; Created by cgenff_charmm2gmx.py

[ moleculetype ]
; Name			   nrexcl
CTX				 3

[ atoms ]
;	 nr		  type	resnr residue  atom   cgnr	   charge		mass  typeB    chargeB		massB
; residue	 1 CTX rtp CTX q	qsum
     1      CG331      1    CTL     C1      1     -0.273     12.011   ;
     2      CG321      1    CTL     C2      2     -0.177     12.011   ;
     3      CG321      1    CTL     C3      3     -0.181     12.011   ;
     4      CG321      1    CTL     C4      4     -0.179     12.011   ;
     5      CG321      1    CTL     C5      5     -0.180     12.011   ;
     6      CG321      1    CTL     C6      6      0.036     12.011   ;
     7      CG301      1    CTL     C7      7      0.391     12.011   ;
     8      CG331      1    CTL     C8      8     -0.269     12.011   ;
     9      CG331      1    CTL     C9      9     -0.269     12.011   ;
    10      OG301      1    CTL     O1     10     -0.402     15.999   ;
    11       HGA3      1    CTL     H1     11      0.090      1.008   ;
    12       HGA3      1    CTL     H2     12      0.090      1.008   ;
    13       HGA3      1    CTL     H3     13      0.090      1.008   ;
    14       HGA2      1    CTL     H4     14      0.090      1.008   ;
    15       HGA2      1    CTL     H5     15      0.090      1.008   ;
    16       HGA2      1    CTL     H6     16      0.090      1.008   ;
    17       HGA2      1    CTL     H7     17      0.090      1.008   ;
    18       HGA2      1    CTL     H8     18      0.090      1.008   ;
    19       HGA2      1    CTL     H9     19      0.090      1.008   ;
    20       HGA2      1    CTL    H10     20      0.090      1.008   ;
    21       HGA2      1    CTL    H11     21      0.090      1.008   ;
    22       HGA2      1    CTL    H12     22      0.090      1.008   ;
    23       HGA2      1    CTL    H13     23      0.090      1.008   ;
    24       HGA3      1    CTL    H14     24      0.090      1.008   ;
    25       HGA3      1    CTL    H15     25      0.090      1.008   ;
    26       HGA3      1    CTL    H16     26      0.090      1.008   ;
    27       HGA3      1    CTL    H17     27      0.090      1.008   ;
    28       HGA3      1    CTL    H18     28      0.090      1.008   ;
    29       HGA3      1    CTL    H19     29      0.090      1.008   ;
    30      NG2S1      1    CTX      N     30     -0.547     14.007   ;
    31      CG311      1    CTX    C10     31      0.183     12.011   ;
    32      CG2O2      1    CTX    C11     32      0.850     12.011   ;
    33      CG311      1    CTX    C12     33      0.272     12.011   ;
    34      CG321      1    CTX    C13     34     -0.212     12.011   ;
    35      CG301      1    CTX    C14     35      0.186     12.011   ;
    36      CG311      1    CTX    C15     36      0.133     12.011   ;
    37      CG2O2      1    CTX    C16     37      0.459     12.011   ;
    38     CG2R61      1    CTX    C17     38      0.086     12.011   ;
    39     CG2R61      1    CTX    C18     39     -0.110     12.011   ;
    40     CG2R61      1    CTX    C19     40     -0.114     12.011   ;
    41     CG2R61      1    CTX    C20     41     -0.115     12.011   ;
    42     CG2R61      1    CTX    C21     42     -0.114     12.011   ;
    43     CG2R61      1    CTX    C22     43     -0.110     12.011   ;
    44      CG311      1    CTX    C23     44     -0.074     12.011   ;
    45      CG301      1    CTX    C24     45      0.088     12.011   ;
    46      CG331      1    CTX    C25     46     -0.263     12.011   ;
    47      CG2O5      1    CTX    C26     47      0.306     12.011   ;
    48      CG311      1    CTX    C27     48      0.362     12.011   ;
    49      CG331      1    CTX    C28     49     -0.088     12.011   ;
    50      CG2D1      1    CTX    C29     50     -0.113     12.011   ;
    51      CG2D1      1    CTX    C30     51     -0.153     12.011   ;
    52      CG331      1    CTX    C31     52     -0.265     12.011   ;
    53      CG301      1    CTX    C32     53      0.016     12.011   ;
    54      CG331      1    CTX    C33     54     -0.269     12.011   ;
    55      CG331      1    CTX    C34     55     -0.269     12.011   ;
    56      CG311      1    CTX    C35     56      0.118     12.011   ;
    57      CG331      1    CTX    C36     57     -0.101     12.011   ;
    58      CG321      1    CTX    C37     58     -0.212     12.011   ;
    59     CG3RC1      1    CTX    C38     59      0.020     12.011   ;
    60     CG3C41      1    CTX    C39     60     -0.106     12.011   ;
    61     CG3RC1      1    CTX    C40     61      0.366     12.011   ;
    62      CG2O2      1    CTX    C41     62      0.885     12.011   ;
    63      CG331      1    CTX    C42     63     -0.313     12.011   ;
    64      CG311      1    CTX    C43     64      0.136     12.011   ;
    65      CG2O1      1    CTX    C44     65      0.638     12.011   ;
    66      CG301      1    CTX    C45     66     -0.054     12.011   ;
    67      CG331      1    CTX    C46     67     -0.273     12.011   ;
    68      CG331      1    CTX    C47     68     -0.273     12.011   ;
    69      CG331      1    CTX    C48     69     -0.273     12.011   ;
    70     CG2R61      1    CTX    C49     70     -0.040     12.011   ;
    71     CG2R61      1    CTX    C50     71     -0.106     12.011   ;
    72     CG2R61      1    CTX    C51     72     -0.115     12.011   ;
    73     CG2R61      1    CTX    C52     73     -0.115     12.011   ;
    74     CG2R61      1    CTX    C53     74     -0.115     12.011   ;
    75     CG2R61      1    CTX    C54     75     -0.106     12.011   ;
    76      OG301      1    CTX     O2     76     -0.506     15.999   ;
    77      OG2D1      1    CTX     O3     77     -0.623     15.999   ;
    78      OG302      1    CTX     O4     78     -0.432     15.999   ;
    79      OG311      1    CTX     O5     79     -0.460     15.999   ;
    80      OG302      1    CTX     O6     80     -0.310     15.999   ;
    81      OG2D1      1    CTX     O7     81     -0.496     15.999   ;
    82      OG2D3      1    CTX     O8     82     -0.515     15.999   ;
    83      OG301      1    CTX     O9     83     -0.377     15.999   ;
    84      OG301      1    CTX    O10     84     -0.367     15.999   ;
    85     OG3C51      1    CTX    O11     85     -0.343     15.999   ;
    86      OG302      1    CTX    O12     86     -0.422     15.999   ;
    87      OG2D1      1    CTX    O13     87     -0.617     15.999   ;
    88      OG2D1      1    CTX    O14     88     -0.511     15.999   ;
    89       HGA1      1    CTX    H20     89      0.090      1.008   ;
    90       HGA1      1    CTX    H21     90      0.090      1.008   ;
    91       HGA2      1    CTX    H22     91      0.090      1.008   ;
    92       HGA2      1    CTX    H23     92      0.090      1.008   ;
    93       HGP1      1    CTX    H24     93      0.292      1.008   ;
    94       HGA1      1    CTX    H25     94      0.090      1.008   ;
    95      HGR61      1    CTX    H26     95      0.115      1.008   ;
    96      HGR61      1    CTX    H27     96      0.115      1.008   ;
    97      HGR61      1    CTX    H28     97      0.115      1.008   ;
    98      HGR61      1    CTX    H29     98      0.115      1.008   ;
    99      HGR61      1    CTX    H30     99      0.115      1.008   ;
   100       HGA1      1    CTX    H31    100      0.090      1.008   ;
   101       HGA3      1    CTX    H32    101      0.090      1.008   ;
   102       HGA3      1    CTX    H33    102      0.090      1.008   ;
   103       HGA3      1    CTX    H34    103      0.090      1.008   ;
   104       HGA1      1    CTX    H35    104      0.090      1.008   ;
   105       HGA3      1    CTX    H36    105      0.090      1.008   ;
   106       HGA3      1    CTX    H37    106      0.090      1.008   ;
   107       HGA3      1    CTX    H38    107      0.090      1.008   ;
   108       HGA3      1    CTX    H39    108      0.090      1.008   ;
   109       HGA3      1    CTX    H40    109      0.090      1.008   ;
   110       HGA3      1    CTX    H41    110      0.090      1.008   ;
   111       HGA3      1    CTX    H42    111      0.090      1.008   ;
   112       HGA3      1    CTX    H43    112      0.090      1.008   ;
   113       HGA3      1    CTX    H44    113      0.090      1.008   ;
   114       HGA3      1    CTX    H45    114      0.090      1.008   ;
   115       HGA3      1    CTX    H46    115      0.090      1.008   ;
   116       HGA3      1    CTX    H47    116      0.090      1.008   ;
   117       HGA1      1    CTX    H48    117      0.090      1.008   ;
   118       HGA3      1    CTX    H49    118      0.090      1.008   ;
   119       HGA3      1    CTX    H50    119      0.090      1.008   ;
   120       HGA3      1    CTX    H51    120      0.090      1.008   ;
   121       HGA2      1    CTX    H52    121      0.090      1.008   ;
   122       HGA2      1    CTX    H53    122      0.090      1.008   ;
   123       HGA1      1    CTX    H54    123      0.090      1.008   ;
   124       HGA2      1    CTX    H55    124      0.090      1.008   ;
   125       HGA2      1    CTX    H56    125      0.090      1.008   ;
   126       HGA3      1    CTX    H57    126      0.090      1.008   ;
   127       HGA3      1    CTX    H58    127      0.090      1.008   ;
   128       HGA3      1    CTX    H59    128      0.090      1.008   ;
   129       HGA1      1    CTX    H60    129      0.090      1.008   ;
   130       HGP1      1    CTX    H61    130      0.284      1.008   ;
   131       HGA3      1    CTX    H62    131      0.090      1.008   ;
   132       HGA3      1    CTX    H63    132      0.090      1.008   ;
   133       HGA3      1    CTX    H64    133      0.090      1.008   ;
   134       HGA3      1    CTX    H65    134      0.090      1.008   ;
   135       HGA3      1    CTX    H66    135      0.090      1.008   ;
   136       HGA3      1    CTX    H67    136      0.090      1.008   ;
   137       HGA3      1    CTX    H68    137      0.090      1.008   ;
   138       HGA3      1    CTX    H69    138      0.090      1.008   ;
   139       HGA3      1    CTX    H70    139      0.090      1.008   ;
   140      HGR61      1    CTX    H71    140      0.115      1.008   ;
   141      HGR61      1    CTX    H72    141      0.115      1.008   ;
   142      HGR61      1    CTX    H73    142      0.115      1.008   ;
   143      HGR61      1    CTX    H74    143      0.115      1.008   ;
   144      HGR61      1    CTX    H75    144      0.115      1.008   ;

[ bonds ]
;	ai	  aj funct			  c0			c1			  c2			c3
    1     2	 1 ;       CG331      CG321
    1    11	 1 ;       CG331       HGA3
    1    12	 1 ;       CG331       HGA3
    1    13	 1 ;       CG331       HGA3
    2     3	 1 ;       CG321      CG321
    2    14	 1 ;       CG321       HGA2
    2    15	 1 ;       CG321       HGA2
    3     4	 1 ;       CG321      CG321
    3    16	 1 ;       CG321       HGA2
    3    17	 1 ;       CG321       HGA2
    4     5	 1 ;       CG321      CG321
    4    18	 1 ;       CG321       HGA2
    4    19	 1 ;       CG321       HGA2
    5     6	 1 ;       CG321      CG321
    5    20	 1 ;       CG321       HGA2
    5    21	 1 ;       CG321       HGA2
    6    10	 1 ;       CG321      OG301
    6    22	 1 ;       CG321       HGA2
    6    23	 1 ;       CG321       HGA2
    7     8	 1 ;       CG301      CG331
    7     9	 1 ;       CG301      CG331
    7    76	 1 ;       CG301      OG301
    7    10	 1 ;       CG301      OG301
    8    24	 1 ;       CG331       HGA3
    8    25	 1 ;       CG331       HGA3
    8    26	 1 ;       CG331       HGA3
    9    27	 1 ;       CG331       HGA3
    9    28	 1 ;       CG331       HGA3
    9    29	 1 ;       CG331       HGA3
   30    65	 1 ;       NG2S1      CG2O1
   30   130	 1 ;       NG2S1       HGP1
   30    64	 1 ;       NG2S1      CG311
   31    32	 1 ;       CG311      CG2O2
   31    64	 1 ;       CG311      CG311
   31    89	 1 ;       CG311       HGA1
   31    76	 1 ;       CG311      OG301
   32    77	 1 ;       CG2O2      OG2D1
   32    78	 1 ;       CG2O2      OG302
   33    34	 1 ;       CG311      CG321
   33    51	 1 ;       CG311      CG2D1
   33    90	 1 ;       CG311       HGA1
   33    78	 1 ;       CG311      OG302
   34    35	 1 ;       CG321      CG301
   34    91	 1 ;       CG321       HGA2
   34    92	 1 ;       CG321       HGA2
   35    36	 1 ;       CG301      CG311
   35    53	 1 ;       CG301      CG301
   35    79	 1 ;       CG301      OG311
   36    44	 1 ;       CG311      CG311
   36    80	 1 ;       CG311      OG302
   36    94	 1 ;       CG311       HGA1
   37    38	 1 ;       CG2O2     CG2R61
   37    81	 1 ;       CG2O2      OG2D1
   37    80	 1 ;       CG2O2      OG302
   38    39	 1 ;      CG2R61     CG2R61
   38    43	 1 ;      CG2R61     CG2R61
   39    40	 1 ;      CG2R61     CG2R61
   39    95	 1 ;      CG2R61      HGR61
   40    41	 1 ;      CG2R61     CG2R61
   40    96	 1 ;      CG2R61      HGR61
   41    42	 1 ;      CG2R61     CG2R61
   41    97	 1 ;      CG2R61      HGR61
   42    43	 1 ;      CG2R61     CG2R61
   42    98	 1 ;      CG2R61      HGR61
   43    99	 1 ;      CG2R61      HGR61
   44    45	 1 ;       CG311      CG301
   44    61	 1 ;       CG311     CG3RC1
   44   100	 1 ;       CG311       HGA1
   45    46	 1 ;       CG301      CG331
   45    47	 1 ;       CG301      CG2O5
   45    56	 1 ;       CG301      CG311
   46   101	 1 ;       CG331       HGA3
   46   102	 1 ;       CG331       HGA3
   46   103	 1 ;       CG331       HGA3
   47    48	 1 ;       CG2O5      CG311
   47    82	 1 ;       CG2O5      OG2D3
   48    50	 1 ;       CG311      CG2D1
   48    83	 1 ;       CG311      OG301
   48   104	 1 ;       CG311       HGA1
   49   105	 1 ;       CG331       HGA3
   49   106	 1 ;       CG331       HGA3
   49   107	 1 ;       CG331       HGA3
   49    83	 1 ;       CG331      OG301
   50    51	 1 ;       CG2D1      CG2D1
   50    53	 1 ;       CG2D1      CG301
   51    52	 1 ;       CG2D1      CG331
   52   108	 1 ;       CG331       HGA3
   52   109	 1 ;       CG331       HGA3
   52   110	 1 ;       CG331       HGA3
   53    54	 1 ;       CG301      CG331
   53    55	 1 ;       CG301      CG331
   54   111	 1 ;       CG331       HGA3
   54   112	 1 ;       CG331       HGA3
   54   113	 1 ;       CG331       HGA3
   55   114	 1 ;       CG331       HGA3
   55   115	 1 ;       CG331       HGA3
   55   116	 1 ;       CG331       HGA3
   56    58	 1 ;       CG311      CG321
   56    84	 1 ;       CG311      OG301
   56   117	 1 ;       CG311       HGA1
   57   118	 1 ;       CG331       HGA3
   57   119	 1 ;       CG331       HGA3
   57   120	 1 ;       CG331       HGA3
   57    84	 1 ;       CG331      OG301
   58    59	 1 ;       CG321     CG3RC1
   58   121	 1 ;       CG321       HGA2
   58   122	 1 ;       CG321       HGA2
   59    61	 1 ;      CG3RC1     CG3RC1
   59    85	 1 ;      CG3RC1     OG3C51
   59   123	 1 ;      CG3RC1       HGA1
   60    61	 1 ;      CG3C41     CG3RC1
   60   124	 1 ;      CG3C41       HGA2
   60   125	 1 ;      CG3C41       HGA2
   60    85	 1 ;      CG3C41     OG3C51
   61    86	 1 ;      CG3RC1      OG302
   62    63	 1 ;       CG2O2      CG331
   62    87	 1 ;       CG2O2      OG2D1
   62    86	 1 ;       CG2O2      OG302
   63   126	 1 ;       CG331       HGA3
   63   127	 1 ;       CG331       HGA3
   63   128	 1 ;       CG331       HGA3
   64    70	 1 ;       CG311     CG2R61
   64   129	 1 ;       CG311       HGA1
   65    66	 1 ;       CG2O1      CG301
   65    88	 1 ;       CG2O1      OG2D1
   66    67	 1 ;       CG301      CG331
   66    68	 1 ;       CG301      CG331
   66    69	 1 ;       CG301      CG331
   67   131	 1 ;       CG331       HGA3
   67   132	 1 ;       CG331       HGA3
   67   133	 1 ;       CG331       HGA3
   68   134	 1 ;       CG331       HGA3
   68   135	 1 ;       CG331       HGA3
   68   136	 1 ;       CG331       HGA3
   69   137	 1 ;       CG331       HGA3
   69   138	 1 ;       CG331       HGA3
   69   139	 1 ;       CG331       HGA3
   70    71	 1 ;      CG2R61     CG2R61
   70    75	 1 ;      CG2R61     CG2R61
   71    72	 1 ;      CG2R61     CG2R61
   71   140	 1 ;      CG2R61      HGR61
   72    73	 1 ;      CG2R61     CG2R61
   72   141	 1 ;      CG2R61      HGR61
   73    74	 1 ;      CG2R61     CG2R61
   73   142	 1 ;      CG2R61      HGR61
   74    75	 1 ;      CG2R61     CG2R61
   74   143	 1 ;      CG2R61      HGR61
   75   144	 1 ;      CG2R61      HGR61
   79    93	 1 ;       OG311       HGP1

[ pairs ]
;	ai	  aj funct			  c0			c1			  c2			c3
    1     4	 1
    1    16	 1
    1    17	 1
    2     5	 1
    2    18	 1
    2    19	 1
    3    11	 1
    3    12	 1
    3    13	 1
    3     6	 1
    3    20	 1
    3    21	 1
    4    14	 1
    4    15	 1
    4    10	 1
    4    22	 1
    4    23	 1
    5    16	 1
    5    17	 1
    5     7	 1
    6    18	 1
    6    19	 1
    6     8	 1
    6     9	 1
    6    76	 1
    7    22	 1
    7    23	 1
    7    32	 1
    7    64	 1
    7    89	 1
    8    27	 1
    8    28	 1
    8    29	 1
    8    31	 1
    9    24	 1
    9    25	 1
    9    26	 1
    9    31	 1
   10    20	 1
   10    21	 1
   10    24	 1
   10    25	 1
   10    26	 1
   10    27	 1
   10    28	 1
   10    29	 1
   10    31	 1
   11    14	 1
   11    15	 1
   12    14	 1
   12    15	 1
   13    14	 1
   13    15	 1
   14    16	 1
   14    17	 1
   15    16	 1
   15    17	 1
   16    18	 1
   16    19	 1
   17    18	 1
   17    19	 1
   18    20	 1
   18    21	 1
   19    20	 1
   19    21	 1
   20    22	 1
   20    23	 1
   21    22	 1
   21    23	 1
   24    76	 1
   25    76	 1
   26    76	 1
   27    76	 1
   28    76	 1
   29    76	 1
   30    32	 1
   30    89	 1
   30    76	 1
   30    71	 1
   30    75	 1
   30    67	 1
   30    68	 1
   30    69	 1
   31    65	 1
   31   130	 1
   31    33	 1
   31    71	 1
   31    75	 1
   32    70	 1
   32   129	 1
   32    34	 1
   32    51	 1
   32    90	 1
   33    77	 1
   33    36	 1
   33    53	 1
   33    79	 1
   33    48	 1
   33   108	 1
   33   109	 1
   33   110	 1
   34    50	 1
   34    52	 1
   34    44	 1
   34    80	 1
   34    94	 1
   34    54	 1
   34    55	 1
   34    93	 1
   35    51	 1
   35    90	 1
   35    78	 1
   35    45	 1
   35    61	 1
   35   100	 1
   35    37	 1
   35    48	 1
   35   111	 1
   35   112	 1
   35   113	 1
   35   114	 1
   35   115	 1
   35   116	 1
   36    91	 1
   36    92	 1
   36    50	 1
   36    54	 1
   36    55	 1
   36    93	 1
   36    38	 1
   36    81	 1
   36    46	 1
   36    47	 1
   36    56	 1
   36    59	 1
   36    60	 1
   36    86	 1
   37    44	 1
   37    94	 1
   37    40	 1
   37    95	 1
   37    42	 1
   37    99	 1
   38    41	 1
   38    96	 1
   38    98	 1
   39    81	 1
   39    80	 1
   39    42	 1
   39    99	 1
   39    97	 1
   40    43	 1
   40    98	 1
   41    95	 1
   41    99	 1
   42    96	 1
   43    81	 1
   43    80	 1
   43    95	 1
   43    97	 1
   44    53	 1
   44    79	 1
   44   101	 1
   44   102	 1
   44   103	 1
   44    48	 1
   44    82	 1
   44    58	 1
   44    84	 1
   44   117	 1
   44    85	 1
   44   123	 1
   44   124	 1
   44   125	 1
   44    62	 1
   45    80	 1
   45    94	 1
   45    59	 1
   45    60	 1
   45    86	 1
   45    50	 1
   45    83	 1
   45   104	 1
   45   121	 1
   45   122	 1
   45    57	 1
   46    61	 1
   46   100	 1
   46    48	 1
   46    82	 1
   46    58	 1
   46    84	 1
   46   117	 1
   47    61	 1
   47   100	 1
   47   101	 1
   47   102	 1
   47   103	 1
   47    58	 1
   47    84	 1
   47   117	 1
   47    51	 1
   47    53	 1
   47    49	 1
   48    56	 1
   48   105	 1
   48   106	 1
   48   107	 1
   48    52	 1
   48    54	 1
   48    55	 1
   49    50	 1
   49   104	 1
   50    90	 1
   50    78	 1
   50    79	 1
   50    82	 1
   50   108	 1
   50   109	 1
   50   110	 1
   50   111	 1
   50   112	 1
   50   113	 1
   50   114	 1
   50   115	 1
   50   116	 1
   51    91	 1
   51    92	 1
   51    83	 1
   51   104	 1
   51    54	 1
   51    55	 1
   52    90	 1
   52    78	 1
   52    53	 1
   53    91	 1
   53    92	 1
   53    80	 1
   53    94	 1
   53    93	 1
   53    83	 1
   53   104	 1
   54    79	 1
   54   114	 1
   54   115	 1
   54   116	 1
   55    79	 1
   55   111	 1
   55   112	 1
   55   113	 1
   56    61	 1
   56   100	 1
   56   101	 1
   56   102	 1
   56   103	 1
   56    82	 1
   56   118	 1
   56   119	 1
   56   120	 1
   56    85	 1
   56   123	 1
   57    58	 1
   57   117	 1
   58    60	 1
   58    86	 1
   59   100	 1
   59    84	 1
   59   117	 1
   59   124	 1
   59   125	 1
   59    62	 1
   60   100	 1
   60   123	 1
   60    62	 1
   61    80	 1
   61    94	 1
   61   121	 1
   61   122	 1
   61    63	 1
   61    87	 1
   64    66	 1
   64    88	 1
   64    77	 1
   64    78	 1
   64    72	 1
   64   140	 1
   64    74	 1
   64   144	 1
   65    70	 1
   65   129	 1
   65   131	 1
   65   132	 1
   65   133	 1
   65   134	 1
   65   135	 1
   65   136	 1
   65   137	 1
   65   138	 1
   65   139	 1
   66   130	 1
   67    88	 1
   67   134	 1
   67   135	 1
   67   136	 1
   67   137	 1
   67   138	 1
   67   139	 1
   68    88	 1
   68   131	 1
   68   132	 1
   68   133	 1
   68   137	 1
   68   138	 1
   68   139	 1
   69    88	 1
   69   131	 1
   69   132	 1
   69   133	 1
   69   134	 1
   69   135	 1
   69   136	 1
   70   130	 1
   70    89	 1
   70    76	 1
   70    73	 1
   70   141	 1
   70   143	 1
   71   129	 1
   71    74	 1
   71   144	 1
   71   142	 1
   72    75	 1
   72   143	 1
   73   140	 1
   73   144	 1
   74   141	 1
   75   129	 1
   75   140	 1
   75   142	 1
   76    77	 1
   76    78	 1
   76   129	 1
   77    89	 1
   78    89	 1
   78    91	 1
   78    92	 1
   79    91	 1
   79    92	 1
   79    80	 1
   79    94	 1
   80   100	 1
   82    83	 1
   82   104	 1
   84   121	 1
   84   122	 1
   85   121	 1
   85   122	 1
   85    86	 1
   86   100	 1
   86   123	 1
   86   124	 1
   86   125	 1
   86   126	 1
   86   127	 1
   86   128	 1
   87   126	 1
   87   127	 1
   87   128	 1
   88   130	 1
   89   129	 1
   90    91	 1
   90    92	 1
   94   100	 1
   95    96	 1
   96    97	 1
   97    98	 1
   98    99	 1
  117   121	 1
  117   122	 1
  121   123	 1
  122   123	 1
  129   130	 1
  140   141	 1
  141   142	 1
  142   143	 1
  143   144	 1

[ angles ]
;	ai	  aj	ak funct			c0			  c1			c2			  c3
    2     1    11	5 ;      CG321      CG331       HGA3
    2     1    12	5 ;      CG321      CG331       HGA3
    2     1    13	5 ;      CG321      CG331       HGA3
   11     1    12	5 ;       HGA3      CG331       HGA3
   11     1    13	5 ;       HGA3      CG331       HGA3
   12     1    13	5 ;       HGA3      CG331       HGA3
    1     2     3	5 ;      CG331      CG321      CG321
    1     2    14	5 ;      CG331      CG321       HGA2
    1     2    15	5 ;      CG331      CG321       HGA2
    3     2    14	5 ;      CG321      CG321       HGA2
    3     2    15	5 ;      CG321      CG321       HGA2
   14     2    15	5 ;       HGA2      CG321       HGA2
    2     3     4	5 ;      CG321      CG321      CG321
    2     3    16	5 ;      CG321      CG321       HGA2
    2     3    17	5 ;      CG321      CG321       HGA2
    4     3    16	5 ;      CG321      CG321       HGA2
    4     3    17	5 ;      CG321      CG321       HGA2
   16     3    17	5 ;       HGA2      CG321       HGA2
    3     4     5	5 ;      CG321      CG321      CG321
    3     4    18	5 ;      CG321      CG321       HGA2
    3     4    19	5 ;      CG321      CG321       HGA2
    5     4    18	5 ;      CG321      CG321       HGA2
    5     4    19	5 ;      CG321      CG321       HGA2
   18     4    19	5 ;       HGA2      CG321       HGA2
    4     5     6	5 ;      CG321      CG321      CG321
    4     5    20	5 ;      CG321      CG321       HGA2
    4     5    21	5 ;      CG321      CG321       HGA2
    6     5    20	5 ;      CG321      CG321       HGA2
    6     5    21	5 ;      CG321      CG321       HGA2
   20     5    21	5 ;       HGA2      CG321       HGA2
    5     6    10	5 ;      CG321      CG321      OG301
    5     6    22	5 ;      CG321      CG321       HGA2
    5     6    23	5 ;      CG321      CG321       HGA2
   10     6    22	5 ;      OG301      CG321       HGA2
   10     6    23	5 ;      OG301      CG321       HGA2
   22     6    23	5 ;       HGA2      CG321       HGA2
    8     7     9	5 ;      CG331      CG301      CG331
    8     7    76	5 ;      CG331      CG301      OG301
    8     7    10	5 ;      CG331      CG301      OG301
    9     7    76	5 ;      CG331      CG301      OG301
    9     7    10	5 ;      CG331      CG301      OG301
   76     7    10	5 ;      OG301      CG301      OG301
    7     8    24	5 ;      CG301      CG331       HGA3
    7     8    25	5 ;      CG301      CG331       HGA3
    7     8    26	5 ;      CG301      CG331       HGA3
   24     8    25	5 ;       HGA3      CG331       HGA3
   24     8    26	5 ;       HGA3      CG331       HGA3
   25     8    26	5 ;       HGA3      CG331       HGA3
    7     9    27	5 ;      CG301      CG331       HGA3
    7     9    28	5 ;      CG301      CG331       HGA3
    7     9    29	5 ;      CG301      CG331       HGA3
   27     9    28	5 ;       HGA3      CG331       HGA3
   27     9    29	5 ;       HGA3      CG331       HGA3
   28     9    29	5 ;       HGA3      CG331       HGA3
    6    10     7	5 ;      CG321      OG301      CG301
   65    30   130	5 ;      CG2O1      NG2S1       HGP1
   65    30    64	5 ;      CG2O1      NG2S1      CG311
  130    30    64	5 ;       HGP1      NG2S1      CG311
   32    31    64	5 ;      CG2O2      CG311      CG311
   32    31    89	5 ;      CG2O2      CG311       HGA1
   32    31    76	5 ;      CG2O2      CG311      OG301
   64    31    89	5 ;      CG311      CG311       HGA1
   64    31    76	5 ;      CG311      CG311      OG301
   89    31    76	5 ;       HGA1      CG311      OG301
   31    32    77	5 ;      CG311      CG2O2      OG2D1
   31    32    78	5 ;      CG311      CG2O2      OG302
   77    32    78	5 ;      OG2D1      CG2O2      OG302
   34    33    51	5 ;      CG321      CG311      CG2D1
   34    33    90	5 ;      CG321      CG311       HGA1
   34    33    78	5 ;      CG321      CG311      OG302
   51    33    90	5 ;      CG2D1      CG311       HGA1
   51    33    78	5 ;      CG2D1      CG311      OG302
   90    33    78	5 ;       HGA1      CG311      OG302
   33    34    35	5 ;      CG311      CG321      CG301
   33    34    91	5 ;      CG311      CG321       HGA2
   33    34    92	5 ;      CG311      CG321       HGA2
   35    34    91	5 ;      CG301      CG321       HGA2
   35    34    92	5 ;      CG301      CG321       HGA2
   91    34    92	5 ;       HGA2      CG321       HGA2
   34    35    36	5 ;      CG321      CG301      CG311
   34    35    53	5 ;      CG321      CG301      CG301
   34    35    79	5 ;      CG321      CG301      OG311
   36    35    53	5 ;      CG311      CG301      CG301
   36    35    79	5 ;      CG311      CG301      OG311
   53    35    79	5 ;      CG301      CG301      OG311
   35    36    44	5 ;      CG301      CG311      CG311
   35    36    80	5 ;      CG301      CG311      OG302
   35    36    94	5 ;      CG301      CG311       HGA1
   44    36    80	5 ;      CG311      CG311      OG302
   44    36    94	5 ;      CG311      CG311       HGA1
   80    36    94	5 ;      OG302      CG311       HGA1
   38    37    81	5 ;     CG2R61      CG2O2      OG2D1
   38    37    80	5 ;     CG2R61      CG2O2      OG302
   81    37    80	5 ;      OG2D1      CG2O2      OG302
   37    38    39	5 ;      CG2O2     CG2R61     CG2R61
   37    38    43	5 ;      CG2O2     CG2R61     CG2R61
   39    38    43	5 ;     CG2R61     CG2R61     CG2R61
   38    39    40	5 ;     CG2R61     CG2R61     CG2R61
   38    39    95	5 ;     CG2R61     CG2R61      HGR61
   40    39    95	5 ;     CG2R61     CG2R61      HGR61
   39    40    41	5 ;     CG2R61     CG2R61     CG2R61
   39    40    96	5 ;     CG2R61     CG2R61      HGR61
   41    40    96	5 ;     CG2R61     CG2R61      HGR61
   40    41    42	5 ;     CG2R61     CG2R61     CG2R61
   40    41    97	5 ;     CG2R61     CG2R61      HGR61
   42    41    97	5 ;     CG2R61     CG2R61      HGR61
   41    42    43	5 ;     CG2R61     CG2R61     CG2R61
   41    42    98	5 ;     CG2R61     CG2R61      HGR61
   43    42    98	5 ;     CG2R61     CG2R61      HGR61
   38    43    42	5 ;     CG2R61     CG2R61     CG2R61
   38    43    99	5 ;     CG2R61     CG2R61      HGR61
   42    43    99	5 ;     CG2R61     CG2R61      HGR61
   36    44    45	5 ;      CG311      CG311      CG301
   36    44    61	5 ;      CG311      CG311     CG3RC1
   36    44   100	5 ;      CG311      CG311       HGA1
   45    44    61	5 ;      CG301      CG311     CG3RC1
   45    44   100	5 ;      CG301      CG311       HGA1
   61    44   100	5 ;     CG3RC1      CG311       HGA1
   44    45    46	5 ;      CG311      CG301      CG331
   44    45    47	5 ;      CG311      CG301      CG2O5
   44    45    56	5 ;      CG311      CG301      CG311
   46    45    47	5 ;      CG331      CG301      CG2O5
   46    45    56	5 ;      CG331      CG301      CG311
   47    45    56	5 ;      CG2O5      CG301      CG311
   45    46   101	5 ;      CG301      CG331       HGA3
   45    46   102	5 ;      CG301      CG331       HGA3
   45    46   103	5 ;      CG301      CG331       HGA3
  101    46   102	5 ;       HGA3      CG331       HGA3
  101    46   103	5 ;       HGA3      CG331       HGA3
  102    46   103	5 ;       HGA3      CG331       HGA3
   45    47    48	5 ;      CG301      CG2O5      CG311
   45    47    82	5 ;      CG301      CG2O5      OG2D3
   48    47    82	5 ;      CG311      CG2O5      OG2D3
   47    48    50	5 ;      CG2O5      CG311      CG2D1
   47    48    83	5 ;      CG2O5      CG311      OG301
   47    48   104	5 ;      CG2O5      CG311       HGA1
   50    48    83	5 ;      CG2D1      CG311      OG301
   50    48   104	5 ;      CG2D1      CG311       HGA1
   83    48   104	5 ;      OG301      CG311       HGA1
  105    49   106	5 ;       HGA3      CG331       HGA3
  105    49   107	5 ;       HGA3      CG331       HGA3
  105    49    83	5 ;       HGA3      CG331      OG301
  106    49   107	5 ;       HGA3      CG331       HGA3
  106    49    83	5 ;       HGA3      CG331      OG301
  107    49    83	5 ;       HGA3      CG331      OG301
   48    50    51	5 ;      CG311      CG2D1      CG2D1
   48    50    53	5 ;      CG311      CG2D1      CG301
   51    50    53	5 ;      CG2D1      CG2D1      CG301
   33    51    50	5 ;      CG311      CG2D1      CG2D1
   33    51    52	5 ;      CG311      CG2D1      CG331
   50    51    52	5 ;      CG2D1      CG2D1      CG331
   51    52   108	5 ;      CG2D1      CG331       HGA3
   51    52   109	5 ;      CG2D1      CG331       HGA3
   51    52   110	5 ;      CG2D1      CG331       HGA3
  108    52   109	5 ;       HGA3      CG331       HGA3
  108    52   110	5 ;       HGA3      CG331       HGA3
  109    52   110	5 ;       HGA3      CG331       HGA3
   35    53    50	5 ;      CG301      CG301      CG2D1
   35    53    54	5 ;      CG301      CG301      CG331
   35    53    55	5 ;      CG301      CG301      CG331
   50    53    54	5 ;      CG2D1      CG301      CG331
   50    53    55	5 ;      CG2D1      CG301      CG331
   54    53    55	5 ;      CG331      CG301      CG331
   53    54   111	5 ;      CG301      CG331       HGA3
   53    54   112	5 ;      CG301      CG331       HGA3
   53    54   113	5 ;      CG301      CG331       HGA3
  111    54   112	5 ;       HGA3      CG331       HGA3
  111    54   113	5 ;       HGA3      CG331       HGA3
  112    54   113	5 ;       HGA3      CG331       HGA3
   53    55   114	5 ;      CG301      CG331       HGA3
   53    55   115	5 ;      CG301      CG331       HGA3
   53    55   116	5 ;      CG301      CG331       HGA3
  114    55   115	5 ;       HGA3      CG331       HGA3
  114    55   116	5 ;       HGA3      CG331       HGA3
  115    55   116	5 ;       HGA3      CG331       HGA3
   45    56    58	5 ;      CG301      CG311      CG321
   45    56    84	5 ;      CG301      CG311      OG301
   45    56   117	5 ;      CG301      CG311       HGA1
   58    56    84	5 ;      CG321      CG311      OG301
   58    56   117	5 ;      CG321      CG311       HGA1
   84    56   117	5 ;      OG301      CG311       HGA1
  118    57   119	5 ;       HGA3      CG331       HGA3
  118    57   120	5 ;       HGA3      CG331       HGA3
  118    57    84	5 ;       HGA3      CG331      OG301
  119    57   120	5 ;       HGA3      CG331       HGA3
  119    57    84	5 ;       HGA3      CG331      OG301
  120    57    84	5 ;       HGA3      CG331      OG301
   56    58    59	5 ;      CG311      CG321     CG3RC1
   56    58   121	5 ;      CG311      CG321       HGA2
   56    58   122	5 ;      CG311      CG321       HGA2
   59    58   121	5 ;     CG3RC1      CG321       HGA2
   59    58   122	5 ;     CG3RC1      CG321       HGA2
  121    58   122	5 ;       HGA2      CG321       HGA2
   58    59    61	5 ;      CG321     CG3RC1     CG3RC1
   58    59    85	5 ;      CG321     CG3RC1     OG3C51
   58    59   123	5 ;      CG321     CG3RC1       HGA1
   61    59    85	5 ;     CG3RC1     CG3RC1     OG3C51
   61    59   123	5 ;     CG3RC1     CG3RC1       HGA1
   85    59   123	5 ;     OG3C51     CG3RC1       HGA1
   61    60   124	5 ;     CG3RC1     CG3C41       HGA2
   61    60   125	5 ;     CG3RC1     CG3C41       HGA2
   61    60    85	5 ;     CG3RC1     CG3C41     OG3C51
  124    60   125	5 ;       HGA2     CG3C41       HGA2
  124    60    85	5 ;       HGA2     CG3C41     OG3C51
  125    60    85	5 ;       HGA2     CG3C41     OG3C51
   44    61    59	5 ;      CG311     CG3RC1     CG3RC1
   44    61    60	5 ;      CG311     CG3RC1     CG3C41
   44    61    86	5 ;      CG311     CG3RC1      OG302
   59    61    60	5 ;     CG3RC1     CG3RC1     CG3C41
   59    61    86	5 ;     CG3RC1     CG3RC1      OG302
   60    61    86	5 ;     CG3C41     CG3RC1      OG302
   63    62    87	5 ;      CG331      CG2O2      OG2D1
   63    62    86	5 ;      CG331      CG2O2      OG302
   87    62    86	5 ;      OG2D1      CG2O2      OG302
   62    63   126	5 ;      CG2O2      CG331       HGA3
   62    63   127	5 ;      CG2O2      CG331       HGA3
   62    63   128	5 ;      CG2O2      CG331       HGA3
  126    63   127	5 ;       HGA3      CG331       HGA3
  126    63   128	5 ;       HGA3      CG331       HGA3
  127    63   128	5 ;       HGA3      CG331       HGA3
   31    64    30	5 ;      CG311      CG311      NG2S1
   31    64    70	5 ;      CG311      CG311     CG2R61
   31    64   129	5 ;      CG311      CG311       HGA1
   30    64    70	5 ;      NG2S1      CG311     CG2R61
   30    64   129	5 ;      NG2S1      CG311       HGA1
   70    64   129	5 ;     CG2R61      CG311       HGA1
   30    65    66	5 ;      NG2S1      CG2O1      CG301
   30    65    88	5 ;      NG2S1      CG2O1      OG2D1
   66    65    88	5 ;      CG301      CG2O1      OG2D1
   65    66    67	5 ;      CG2O1      CG301      CG331
   65    66    68	5 ;      CG2O1      CG301      CG331
   65    66    69	5 ;      CG2O1      CG301      CG331
   67    66    68	5 ;      CG331      CG301      CG331
   67    66    69	5 ;      CG331      CG301      CG331
   68    66    69	5 ;      CG331      CG301      CG331
   66    67   131	5 ;      CG301      CG331       HGA3
   66    67   132	5 ;      CG301      CG331       HGA3
   66    67   133	5 ;      CG301      CG331       HGA3
  131    67   132	5 ;       HGA3      CG331       HGA3
  131    67   133	5 ;       HGA3      CG331       HGA3
  132    67   133	5 ;       HGA3      CG331       HGA3
   66    68   134	5 ;      CG301      CG331       HGA3
   66    68   135	5 ;      CG301      CG331       HGA3
   66    68   136	5 ;      CG301      CG331       HGA3
  134    68   135	5 ;       HGA3      CG331       HGA3
  134    68   136	5 ;       HGA3      CG331       HGA3
  135    68   136	5 ;       HGA3      CG331       HGA3
   66    69   137	5 ;      CG301      CG331       HGA3
   66    69   138	5 ;      CG301      CG331       HGA3
   66    69   139	5 ;      CG301      CG331       HGA3
  137    69   138	5 ;       HGA3      CG331       HGA3
  137    69   139	5 ;       HGA3      CG331       HGA3
  138    69   139	5 ;       HGA3      CG331       HGA3
   64    70    71	5 ;      CG311     CG2R61     CG2R61
   64    70    75	5 ;      CG311     CG2R61     CG2R61
   71    70    75	5 ;     CG2R61     CG2R61     CG2R61
   70    71    72	5 ;     CG2R61     CG2R61     CG2R61
   70    71   140	5 ;     CG2R61     CG2R61      HGR61
   72    71   140	5 ;     CG2R61     CG2R61      HGR61
   71    72    73	5 ;     CG2R61     CG2R61     CG2R61
   71    72   141	5 ;     CG2R61     CG2R61      HGR61
   73    72   141	5 ;     CG2R61     CG2R61      HGR61
   72    73    74	5 ;     CG2R61     CG2R61     CG2R61
   72    73   142	5 ;     CG2R61     CG2R61      HGR61
   74    73   142	5 ;     CG2R61     CG2R61      HGR61
   73    74    75	5 ;     CG2R61     CG2R61     CG2R61
   73    74   143	5 ;     CG2R61     CG2R61      HGR61
   75    74   143	5 ;     CG2R61     CG2R61      HGR61
   70    75    74	5 ;     CG2R61     CG2R61     CG2R61
   70    75   144	5 ;     CG2R61     CG2R61      HGR61
   74    75   144	5 ;     CG2R61     CG2R61      HGR61
    7    76    31	5 ;      CG301      OG301      CG311
   32    78    33	5 ;      CG2O2      OG302      CG311
   35    79    93	5 ;      CG301      OG311       HGP1
   36    80    37	5 ;      CG311      OG302      CG2O2
   48    83    49	5 ;      CG311      OG301      CG331
   56    84    57	5 ;      CG311      OG301      CG331
   59    85    60	5 ;     CG3RC1     OG3C51     CG3C41
   61    86    62	5 ;     CG3RC1      OG302      CG2O2

[ dihedrals ]
;	ai	  aj	ak	  al funct			  c0			c1			  c2			c3			  c4			c5
   11     1     2     3	 9 ;       HGA3      CG331      CG321      CG321
   11     1     2    14	 9 ;       HGA3      CG331      CG321       HGA2
   11     1     2    15	 9 ;       HGA3      CG331      CG321       HGA2
   12     1     2     3	 9 ;       HGA3      CG331      CG321      CG321
   12     1     2    14	 9 ;       HGA3      CG331      CG321       HGA2
   12     1     2    15	 9 ;       HGA3      CG331      CG321       HGA2
   13     1     2     3	 9 ;       HGA3      CG331      CG321      CG321
   13     1     2    14	 9 ;       HGA3      CG331      CG321       HGA2
   13     1     2    15	 9 ;       HGA3      CG331      CG321       HGA2
    1     2     3     4	 9 ;      CG331      CG321      CG321      CG321
    1     2     3    16	 9 ;      CG331      CG321      CG321       HGA2
    1     2     3    17	 9 ;      CG331      CG321      CG321       HGA2
   14     2     3     4	 9 ;       HGA2      CG321      CG321      CG321
   14     2     3    16	 9 ;       HGA2      CG321      CG321       HGA2
   14     2     3    17	 9 ;       HGA2      CG321      CG321       HGA2
   15     2     3     4	 9 ;       HGA2      CG321      CG321      CG321
   15     2     3    16	 9 ;       HGA2      CG321      CG321       HGA2
   15     2     3    17	 9 ;       HGA2      CG321      CG321       HGA2
    2     3     4     5	 9 ;      CG321      CG321      CG321      CG321
    2     3     4    18	 9 ;      CG321      CG321      CG321       HGA2
    2     3     4    19	 9 ;      CG321      CG321      CG321       HGA2
   16     3     4     5	 9 ;       HGA2      CG321      CG321      CG321
   16     3     4    18	 9 ;       HGA2      CG321      CG321       HGA2
   16     3     4    19	 9 ;       HGA2      CG321      CG321       HGA2
   17     3     4     5	 9 ;       HGA2      CG321      CG321      CG321
   17     3     4    18	 9 ;       HGA2      CG321      CG321       HGA2
   17     3     4    19	 9 ;       HGA2      CG321      CG321       HGA2
    3     4     5     6	 9 ;      CG321      CG321      CG321      CG321
    3     4     5    20	 9 ;      CG321      CG321      CG321       HGA2
    3     4     5    21	 9 ;      CG321      CG321      CG321       HGA2
   18     4     5     6	 9 ;       HGA2      CG321      CG321      CG321
   18     4     5    20	 9 ;       HGA2      CG321      CG321       HGA2
   18     4     5    21	 9 ;       HGA2      CG321      CG321       HGA2
   19     4     5     6	 9 ;       HGA2      CG321      CG321      CG321
   19     4     5    20	 9 ;       HGA2      CG321      CG321       HGA2
   19     4     5    21	 9 ;       HGA2      CG321      CG321       HGA2
    4     5     6    10	 9 ;      CG321      CG321      CG321      OG301
    4     5     6    22	 9 ;      CG321      CG321      CG321       HGA2
    4     5     6    23	 9 ;      CG321      CG321      CG321       HGA2
   20     5     6    10	 9 ;       HGA2      CG321      CG321      OG301
   20     5     6    22	 9 ;       HGA2      CG321      CG321       HGA2
   20     5     6    23	 9 ;       HGA2      CG321      CG321       HGA2
   21     5     6    10	 9 ;       HGA2      CG321      CG321      OG301
   21     5     6    22	 9 ;       HGA2      CG321      CG321       HGA2
   21     5     6    23	 9 ;       HGA2      CG321      CG321       HGA2
    5     6    10     7	 9 ;      CG321      CG321      OG301      CG301
   22     6    10     7	 9 ;       HGA2      CG321      OG301      CG301
   23     6    10     7	 9 ;       HGA2      CG321      OG301      CG301
    9     7     8    24	 9 ;      CG331      CG301      CG331       HGA3
    9     7     8    25	 9 ;      CG331      CG301      CG331       HGA3
    9     7     8    26	 9 ;      CG331      CG301      CG331       HGA3
   76     7     8    24	 9 ;      OG301      CG301      CG331       HGA3
   76     7     8    25	 9 ;      OG301      CG301      CG331       HGA3
   76     7     8    26	 9 ;      OG301      CG301      CG331       HGA3
   10     7     8    24	 9 ;      OG301      CG301      CG331       HGA3
   10     7     8    25	 9 ;      OG301      CG301      CG331       HGA3
   10     7     8    26	 9 ;      OG301      CG301      CG331       HGA3
    8     7     9    27	 9 ;      CG331      CG301      CG331       HGA3
    8     7     9    28	 9 ;      CG331      CG301      CG331       HGA3
    8     7     9    29	 9 ;      CG331      CG301      CG331       HGA3
   76     7     9    27	 9 ;      OG301      CG301      CG331       HGA3
   76     7     9    28	 9 ;      OG301      CG301      CG331       HGA3
   76     7     9    29	 9 ;      OG301      CG301      CG331       HGA3
   10     7     9    27	 9 ;      OG301      CG301      CG331       HGA3
   10     7     9    28	 9 ;      OG301      CG301      CG331       HGA3
   10     7     9    29	 9 ;      OG301      CG301      CG331       HGA3
    8     7    76    31	 9 ;      CG331      CG301      OG301      CG311
    9     7    76    31	 9 ;      CG331      CG301      OG301      CG311
   10     7    76    31	 9 ;      OG301      CG301      OG301      CG311
    8     7    10     6	 9 ;      CG331      CG301      OG301      CG321
    9     7    10     6	 9 ;      CG331      CG301      OG301      CG321
   76     7    10     6	 9 ;      OG301      CG301      OG301      CG321
  130    30    65    66	 9 ;       HGP1      NG2S1      CG2O1      CG301
  130    30    65    88	 9 ;       HGP1      NG2S1      CG2O1      OG2D1
   64    30    65    66	 9 ;      CG311      NG2S1      CG2O1      CG301
   64    30    65    88	 9 ;      CG311      NG2S1      CG2O1      OG2D1
   65    30    64    31	 9 ;      CG2O1      NG2S1      CG311      CG311
   65    30    64    70	 9 ;      CG2O1      NG2S1      CG311     CG2R61
   65    30    64   129	 9 ;      CG2O1      NG2S1      CG311       HGA1
  130    30    64    31	 9 ;       HGP1      NG2S1      CG311      CG311
  130    30    64    70	 9 ;       HGP1      NG2S1      CG311     CG2R61
  130    30    64   129	 9 ;       HGP1      NG2S1      CG311       HGA1
   64    31    32    77	 9 ;      CG311      CG311      CG2O2      OG2D1
   64    31    32    78	 9 ;      CG311      CG311      CG2O2      OG302
   89    31    32    77	 9 ;       HGA1      CG311      CG2O2      OG2D1
   89    31    32    78	 9 ;       HGA1      CG311      CG2O2      OG302
   76    31    32    77	 9 ;      OG301      CG311      CG2O2      OG2D1
   76    31    32    78	 9 ;      OG301      CG311      CG2O2      OG302
   32    31    64    30	 9 ;      CG2O2      CG311      CG311      NG2S1
   32    31    64    70	 9 ;      CG2O2      CG311      CG311     CG2R61
   32    31    64   129	 9 ;      CG2O2      CG311      CG311       HGA1
   89    31    64    30	 9 ;       HGA1      CG311      CG311      NG2S1
   89    31    64    70	 9 ;       HGA1      CG311      CG311     CG2R61
   89    31    64   129	 9 ;       HGA1      CG311      CG311       HGA1
   76    31    64    30	 9 ;      OG301      CG311      CG311      NG2S1
   76    31    64    70	 9 ;      OG301      CG311      CG311     CG2R61
   76    31    64   129	 9 ;      OG301      CG311      CG311       HGA1
   32    31    76     7	 9 ;      CG2O2      CG311      OG301      CG301
   64    31    76     7	 9 ;      CG311      CG311      OG301      CG301
   89    31    76     7	 9 ;       HGA1      CG311      OG301      CG301
   31    32    78    33	 9 ;      CG311      CG2O2      OG302      CG311
   77    32    78    33	 9 ;      OG2D1      CG2O2      OG302      CG311
   51    33    34    35	 9 ;      CG2D1      CG311      CG321      CG301
   51    33    34    91	 9 ;      CG2D1      CG311      CG321       HGA2
   51    33    34    92	 9 ;      CG2D1      CG311      CG321       HGA2
   90    33    34    35	 9 ;       HGA1      CG311      CG321      CG301
   90    33    34    91	 9 ;       HGA1      CG311      CG321       HGA2
   90    33    34    92	 9 ;       HGA1      CG311      CG321       HGA2
   78    33    34    35	 9 ;      OG302      CG311      CG321      CG301
   78    33    34    91	 9 ;      OG302      CG311      CG321       HGA2
   78    33    34    92	 9 ;      OG302      CG311      CG321       HGA2
   34    33    51    50	 9 ;      CG321      CG311      CG2D1      CG2D1
   34    33    51    52	 9 ;      CG321      CG311      CG2D1      CG331
   90    33    51    50	 9 ;       HGA1      CG311      CG2D1      CG2D1
   90    33    51    52	 9 ;       HGA1      CG311      CG2D1      CG331
   78    33    51    50	 9 ;      OG302      CG311      CG2D1      CG2D1
   78    33    51    52	 9 ;      OG302      CG311      CG2D1      CG331
   34    33    78    32	 9 ;      CG321      CG311      OG302      CG2O2
   51    33    78    32	 9 ;      CG2D1      CG311      OG302      CG2O2
   90    33    78    32	 9 ;       HGA1      CG311      OG302      CG2O2
   33    34    35    36	 9 ;      CG311      CG321      CG301      CG311
   33    34    35    53	 9 ;      CG311      CG321      CG301      CG301
   33    34    35    79	 9 ;      CG311      CG321      CG301      OG311
   91    34    35    36	 9 ;       HGA2      CG321      CG301      CG311
   91    34    35    53	 9 ;       HGA2      CG321      CG301      CG301
   91    34    35    79	 9 ;       HGA2      CG321      CG301      OG311
   92    34    35    36	 9 ;       HGA2      CG321      CG301      CG311
   92    34    35    53	 9 ;       HGA2      CG321      CG301      CG301
   92    34    35    79	 9 ;       HGA2      CG321      CG301      OG311
   34    35    36    44	 9 ;      CG321      CG301      CG311      CG311
   34    35    36    80	 9 ;      CG321      CG301      CG311      OG302
   34    35    36    94	 9 ;      CG321      CG301      CG311       HGA1
   53    35    36    44	 9 ;      CG301      CG301      CG311      CG311
   53    35    36    80	 9 ;      CG301      CG301      CG311      OG302
   53    35    36    94	 9 ;      CG301      CG301      CG311       HGA1
   79    35    36    44	 9 ;      OG311      CG301      CG311      CG311
   79    35    36    80	 9 ;      OG311      CG301      CG311      OG302
   79    35    36    94	 9 ;      OG311      CG301      CG311       HGA1
   34    35    53    50	 9 ;      CG321      CG301      CG301      CG2D1
   34    35    53    54	 9 ;      CG321      CG301      CG301      CG331
   34    35    53    55	 9 ;      CG321      CG301      CG301      CG331
   36    35    53    50	 9 ;      CG311      CG301      CG301      CG2D1
   36    35    53    54	 9 ;      CG311      CG301      CG301      CG331
   36    35    53    55	 9 ;      CG311      CG301      CG301      CG331
   79    35    53    50	 9 ;      OG311      CG301      CG301      CG2D1
   79    35    53    54	 9 ;      OG311      CG301      CG301      CG331
   79    35    53    55	 9 ;      OG311      CG301      CG301      CG331
   34    35    79    93	 9 ;      CG321      CG301      OG311       HGP1
   36    35    79    93	 9 ;      CG311      CG301      OG311       HGP1
   53    35    79    93	 9 ;      CG301      CG301      OG311       HGP1
   35    36    44    45	 9 ;      CG301      CG311      CG311      CG301
   35    36    44    61	 9 ;      CG301      CG311      CG311     CG3RC1
   35    36    44   100	 9 ;      CG301      CG311      CG311       HGA1
   80    36    44    45	 9 ;      OG302      CG311      CG311      CG301
   80    36    44    61	 9 ;      OG302      CG311      CG311     CG3RC1
   80    36    44   100	 9 ;      OG302      CG311      CG311       HGA1
   94    36    44    45	 9 ;       HGA1      CG311      CG311      CG301
   94    36    44    61	 9 ;       HGA1      CG311      CG311     CG3RC1
   94    36    44   100	 9 ;       HGA1      CG311      CG311       HGA1
   35    36    80    37	 9 ;      CG301      CG311      OG302      CG2O2
   44    36    80    37	 9 ;      CG311      CG311      OG302      CG2O2
   94    36    80    37	 9 ;       HGA1      CG311      OG302      CG2O2
   81    37    38    39	 9 ;      OG2D1      CG2O2     CG2R61     CG2R61
   81    37    38    43	 9 ;      OG2D1      CG2O2     CG2R61     CG2R61
   80    37    38    39	 9 ;      OG302      CG2O2     CG2R61     CG2R61
   80    37    38    43	 9 ;      OG302      CG2O2     CG2R61     CG2R61
   38    37    80    36	 9 ;     CG2R61      CG2O2      OG302      CG311
   81    37    80    36	 9 ;      OG2D1      CG2O2      OG302      CG311
   37    38    39    40	 9 ;      CG2O2     CG2R61     CG2R61     CG2R61
   37    38    39    95	 9 ;      CG2O2     CG2R61     CG2R61      HGR61
   43    38    39    40	 9 ;     CG2R61     CG2R61     CG2R61     CG2R61
   43    38    39    95	 9 ;     CG2R61     CG2R61     CG2R61      HGR61
   37    38    43    42	 9 ;      CG2O2     CG2R61     CG2R61     CG2R61
   37    38    43    99	 9 ;      CG2O2     CG2R61     CG2R61      HGR61
   39    38    43    42	 9 ;     CG2R61     CG2R61     CG2R61     CG2R61
   39    38    43    99	 9 ;     CG2R61     CG2R61     CG2R61      HGR61
   38    39    40    41	 9 ;     CG2R61     CG2R61     CG2R61     CG2R61
   38    39    40    96	 9 ;     CG2R61     CG2R61     CG2R61      HGR61
   95    39    40    41	 9 ;      HGR61     CG2R61     CG2R61     CG2R61
   95    39    40    96	 9 ;      HGR61     CG2R61     CG2R61      HGR61
   39    40    41    42	 9 ;     CG2R61     CG2R61     CG2R61     CG2R61
   39    40    41    97	 9 ;     CG2R61     CG2R61     CG2R61      HGR61
   96    40    41    42	 9 ;      HGR61     CG2R61     CG2R61     CG2R61
   96    40    41    97	 9 ;      HGR61     CG2R61     CG2R61      HGR61
   40    41    42    43	 9 ;     CG2R61     CG2R61     CG2R61     CG2R61
   40    41    42    98	 9 ;     CG2R61     CG2R61     CG2R61      HGR61
   97    41    42    43	 9 ;      HGR61     CG2R61     CG2R61     CG2R61
   97    41    42    98	 9 ;      HGR61     CG2R61     CG2R61      HGR61
   41    42    43    38	 9 ;     CG2R61     CG2R61     CG2R61     CG2R61
   41    42    43    99	 9 ;     CG2R61     CG2R61     CG2R61      HGR61
   98    42    43    38	 9 ;      HGR61     CG2R61     CG2R61     CG2R61
   98    42    43    99	 9 ;      HGR61     CG2R61     CG2R61      HGR61
   36    44    45    46	 9 ;      CG311      CG311      CG301      CG331
   36    44    45    47	 9 ;      CG311      CG311      CG301      CG2O5
   36    44    45    56	 9 ;      CG311      CG311      CG301      CG311
   61    44    45    46	 9 ;     CG3RC1      CG311      CG301      CG331
   61    44    45    47	 9 ;     CG3RC1      CG311      CG301      CG2O5
   61    44    45    56	 9 ;     CG3RC1      CG311      CG301      CG311
  100    44    45    46	 9 ;       HGA1      CG311      CG301      CG331
  100    44    45    47	 9 ;       HGA1      CG311      CG301      CG2O5
  100    44    45    56	 9 ;       HGA1      CG311      CG301      CG311
   36    44    61    59	 9 ;      CG311      CG311     CG3RC1     CG3RC1
   36    44    61    60	 9 ;      CG311      CG311     CG3RC1     CG3C41
   36    44    61    86	 9 ;      CG311      CG311     CG3RC1      OG302
   45    44    61    59	 9 ;      CG301      CG311     CG3RC1     CG3RC1
   45    44    61    60	 9 ;      CG301      CG311     CG3RC1     CG3C41
   45    44    61    86	 9 ;      CG301      CG311     CG3RC1      OG302
  100    44    61    59	 9 ;       HGA1      CG311     CG3RC1     CG3RC1
  100    44    61    60	 9 ;       HGA1      CG311     CG3RC1     CG3C41
  100    44    61    86	 9 ;       HGA1      CG311     CG3RC1      OG302
   44    45    46   101	 9 ;      CG311      CG301      CG331       HGA3
   44    45    46   102	 9 ;      CG311      CG301      CG331       HGA3
   44    45    46   103	 9 ;      CG311      CG301      CG331       HGA3
   47    45    46   101	 9 ;      CG2O5      CG301      CG331       HGA3
   47    45    46   102	 9 ;      CG2O5      CG301      CG331       HGA3
   47    45    46   103	 9 ;      CG2O5      CG301      CG331       HGA3
   56    45    46   101	 9 ;      CG311      CG301      CG331       HGA3
   56    45    46   102	 9 ;      CG311      CG301      CG331       HGA3
   56    45    46   103	 9 ;      CG311      CG301      CG331       HGA3
   44    45    47    48	 9 ;      CG311      CG301      CG2O5      CG311
   44    45    47    82	 9 ;      CG311      CG301      CG2O5      OG2D3
   46    45    47    48	 9 ;      CG331      CG301      CG2O5      CG311
   46    45    47    82	 9 ;      CG331      CG301      CG2O5      OG2D3
   56    45    47    48	 9 ;      CG311      CG301      CG2O5      CG311
   56    45    47    82	 9 ;      CG311      CG301      CG2O5      OG2D3
   44    45    56    58	 9 ;      CG311      CG301      CG311      CG321
   44    45    56    84	 9 ;      CG311      CG301      CG311      OG301
   44    45    56   117	 9 ;      CG311      CG301      CG311       HGA1
   46    45    56    58	 9 ;      CG331      CG301      CG311      CG321
   46    45    56    84	 9 ;      CG331      CG301      CG311      OG301
   46    45    56   117	 9 ;      CG331      CG301      CG311       HGA1
   47    45    56    58	 9 ;      CG2O5      CG301      CG311      CG321
   47    45    56    84	 9 ;      CG2O5      CG301      CG311      OG301
   47    45    56   117	 9 ;      CG2O5      CG301      CG311       HGA1
   45    47    48    50	 9 ;      CG301      CG2O5      CG311      CG2D1
   45    47    48    83	 9 ;      CG301      CG2O5      CG311      OG301
   45    47    48   104	 9 ;      CG301      CG2O5      CG311       HGA1
   82    47    48    50	 9 ;      OG2D3      CG2O5      CG311      CG2D1
   82    47    48    83	 9 ;      OG2D3      CG2O5      CG311      OG301
   82    47    48   104	 9 ;      OG2D3      CG2O5      CG311       HGA1
   47    48    50    51	 9 ;      CG2O5      CG311      CG2D1      CG2D1
   47    48    50    53	 9 ;      CG2O5      CG311      CG2D1      CG301
   83    48    50    51	 9 ;      OG301      CG311      CG2D1      CG2D1
   83    48    50    53	 9 ;      OG301      CG311      CG2D1      CG301
  104    48    50    51	 9 ;       HGA1      CG311      CG2D1      CG2D1
  104    48    50    53	 9 ;       HGA1      CG311      CG2D1      CG301
   47    48    83    49	 9 ;      CG2O5      CG311      OG301      CG331
   50    48    83    49	 9 ;      CG2D1      CG311      OG301      CG331
  104    48    83    49	 9 ;       HGA1      CG311      OG301      CG331
  105    49    83    48	 9 ;       HGA3      CG331      OG301      CG311
  106    49    83    48	 9 ;       HGA3      CG331      OG301      CG311
  107    49    83    48	 9 ;       HGA3      CG331      OG301      CG311
   48    50    51    33	 9 ;      CG311      CG2D1      CG2D1      CG311
   48    50    51    52	 9 ;      CG311      CG2D1      CG2D1      CG331
   53    50    51    33	 9 ;      CG301      CG2D1      CG2D1      CG311
   53    50    51    52	 9 ;      CG301      CG2D1      CG2D1      CG331
   48    50    53    35	 9 ;      CG311      CG2D1      CG301      CG301
   48    50    53    54	 9 ;      CG311      CG2D1      CG301      CG331
   48    50    53    55	 9 ;      CG311      CG2D1      CG301      CG331
   51    50    53    35	 9 ;      CG2D1      CG2D1      CG301      CG301
   51    50    53    54	 9 ;      CG2D1      CG2D1      CG301      CG331
   51    50    53    55	 9 ;      CG2D1      CG2D1      CG301      CG331
   33    51    52   108	 9 ;      CG311      CG2D1      CG331       HGA3
   33    51    52   109	 9 ;      CG311      CG2D1      CG331       HGA3
   33    51    52   110	 9 ;      CG311      CG2D1      CG331       HGA3
   50    51    52   108	 9 ;      CG2D1      CG2D1      CG331       HGA3
   50    51    52   109	 9 ;      CG2D1      CG2D1      CG331       HGA3
   50    51    52   110	 9 ;      CG2D1      CG2D1      CG331       HGA3
   35    53    54   111	 9 ;      CG301      CG301      CG331       HGA3
   35    53    54   112	 9 ;      CG301      CG301      CG331       HGA3
   35    53    54   113	 9 ;      CG301      CG301      CG331       HGA3
   50    53    54   111	 9 ;      CG2D1      CG301      CG331       HGA3
   50    53    54   112	 9 ;      CG2D1      CG301      CG331       HGA3
   50    53    54   113	 9 ;      CG2D1      CG301      CG331       HGA3
   55    53    54   111	 9 ;      CG331      CG301      CG331       HGA3
   55    53    54   112	 9 ;      CG331      CG301      CG331       HGA3
   55    53    54   113	 9 ;      CG331      CG301      CG331       HGA3
   35    53    55   114	 9 ;      CG301      CG301      CG331       HGA3
   35    53    55   115	 9 ;      CG301      CG301      CG331       HGA3
   35    53    55   116	 9 ;      CG301      CG301      CG331       HGA3
   50    53    55   114	 9 ;      CG2D1      CG301      CG331       HGA3
   50    53    55   115	 9 ;      CG2D1      CG301      CG331       HGA3
   50    53    55   116	 9 ;      CG2D1      CG301      CG331       HGA3
   54    53    55   114	 9 ;      CG331      CG301      CG331       HGA3
   54    53    55   115	 9 ;      CG331      CG301      CG331       HGA3
   54    53    55   116	 9 ;      CG331      CG301      CG331       HGA3
   45    56    58    59	 9 ;      CG301      CG311      CG321     CG3RC1
   45    56    58   121	 9 ;      CG301      CG311      CG321       HGA2
   45    56    58   122	 9 ;      CG301      CG311      CG321       HGA2
   84    56    58    59	 9 ;      OG301      CG311      CG321     CG3RC1
   84    56    58   121	 9 ;      OG301      CG311      CG321       HGA2
   84    56    58   122	 9 ;      OG301      CG311      CG321       HGA2
  117    56    58    59	 9 ;       HGA1      CG311      CG321     CG3RC1
  117    56    58   121	 9 ;       HGA1      CG311      CG321       HGA2
  117    56    58   122	 9 ;       HGA1      CG311      CG321       HGA2
   45    56    84    57	 9 ;      CG301      CG311      OG301      CG331
   58    56    84    57	 9 ;      CG321      CG311      OG301      CG331
  117    56    84    57	 9 ;       HGA1      CG311      OG301      CG331
  118    57    84    56	 9 ;       HGA3      CG331      OG301      CG311
  119    57    84    56	 9 ;       HGA3      CG331      OG301      CG311
  120    57    84    56	 9 ;       HGA3      CG331      OG301      CG311
   56    58    59    61	 9 ;      CG311      CG321     CG3RC1     CG3RC1
   56    58    59    85	 9 ;      CG311      CG321     CG3RC1     OG3C51
   56    58    59   123	 9 ;      CG311      CG321     CG3RC1       HGA1
  121    58    59    61	 9 ;       HGA2      CG321     CG3RC1     CG3RC1
  121    58    59    85	 9 ;       HGA2      CG321     CG3RC1     OG3C51
  121    58    59   123	 9 ;       HGA2      CG321     CG3RC1       HGA1
  122    58    59    61	 9 ;       HGA2      CG321     CG3RC1     CG3RC1
  122    58    59    85	 9 ;       HGA2      CG321     CG3RC1     OG3C51
  122    58    59   123	 9 ;       HGA2      CG321     CG3RC1       HGA1
   58    59    61    44	 9 ;      CG321     CG3RC1     CG3RC1      CG311
   58    59    61    60	 9 ;      CG321     CG3RC1     CG3RC1     CG3C41
   58    59    61    86	 9 ;      CG321     CG3RC1     CG3RC1      OG302
   85    59    61    44	 9 ;     OG3C51     CG3RC1     CG3RC1      CG311
   85    59    61    60	 9 ;     OG3C51     CG3RC1     CG3RC1     CG3C41
   85    59    61    86	 9 ;     OG3C51     CG3RC1     CG3RC1      OG302
  123    59    61    44	 9 ;       HGA1     CG3RC1     CG3RC1      CG311
  123    59    61    60	 9 ;       HGA1     CG3RC1     CG3RC1     CG3C41
  123    59    61    86	 9 ;       HGA1     CG3RC1     CG3RC1      OG302
   58    59    85    60	 9 ;      CG321     CG3RC1     OG3C51     CG3C41
   61    59    85    60	 9 ;     CG3RC1     CG3RC1     OG3C51     CG3C41
  123    59    85    60	 9 ;       HGA1     CG3RC1     OG3C51     CG3C41
  124    60    61    44	 9 ;       HGA2     CG3C41     CG3RC1      CG311
  124    60    61    59	 9 ;       HGA2     CG3C41     CG3RC1     CG3RC1
  124    60    61    86	 9 ;       HGA2     CG3C41     CG3RC1      OG302
  125    60    61    44	 9 ;       HGA2     CG3C41     CG3RC1      CG311
  125    60    61    59	 9 ;       HGA2     CG3C41     CG3RC1     CG3RC1
  125    60    61    86	 9 ;       HGA2     CG3C41     CG3RC1      OG302
   85    60    61    44	 9 ;     OG3C51     CG3C41     CG3RC1      CG311
   85    60    61    59	 9 ;     OG3C51     CG3C41     CG3RC1     CG3RC1
   85    60    61    86	 9 ;     OG3C51     CG3C41     CG3RC1      OG302
   61    60    85    59	 9 ;     CG3RC1     CG3C41     OG3C51     CG3RC1
  124    60    85    59	 9 ;       HGA2     CG3C41     OG3C51     CG3RC1
  125    60    85    59	 9 ;       HGA2     CG3C41     OG3C51     CG3RC1
   44    61    86    62	 9 ;      CG311     CG3RC1      OG302      CG2O2
   59    61    86    62	 9 ;     CG3RC1     CG3RC1      OG302      CG2O2
   60    61    86    62	 9 ;     CG3C41     CG3RC1      OG302      CG2O2
   87    62    63   126	 9 ;      OG2D1      CG2O2      CG331       HGA3
   87    62    63   127	 9 ;      OG2D1      CG2O2      CG331       HGA3
   87    62    63   128	 9 ;      OG2D1      CG2O2      CG331       HGA3
   86    62    63   126	 9 ;      OG302      CG2O2      CG331       HGA3
   86    62    63   127	 9 ;      OG302      CG2O2      CG331       HGA3
   86    62    63   128	 9 ;      OG302      CG2O2      CG331       HGA3
   63    62    86    61	 9 ;      CG331      CG2O2      OG302     CG3RC1
   87    62    86    61	 9 ;      OG2D1      CG2O2      OG302     CG3RC1
   31    64    70    71	 9 ;      CG311      CG311     CG2R61     CG2R61
   31    64    70    75	 9 ;      CG311      CG311     CG2R61     CG2R61
   30    64    70    71	 9 ;      NG2S1      CG311     CG2R61     CG2R61
   30    64    70    75	 9 ;      NG2S1      CG311     CG2R61     CG2R61
  129    64    70    71	 9 ;       HGA1      CG311     CG2R61     CG2R61
  129    64    70    75	 9 ;       HGA1      CG311     CG2R61     CG2R61
   30    65    66    67	 9 ;      NG2S1      CG2O1      CG301      CG331
   30    65    66    68	 9 ;      NG2S1      CG2O1      CG301      CG331
   30    65    66    69	 9 ;      NG2S1      CG2O1      CG301      CG331
   88    65    66    67	 9 ;      OG2D1      CG2O1      CG301      CG331
   88    65    66    68	 9 ;      OG2D1      CG2O1      CG301      CG331
   88    65    66    69	 9 ;      OG2D1      CG2O1      CG301      CG331
   65    66    67   131	 9 ;      CG2O1      CG301      CG331       HGA3
   65    66    67   132	 9 ;      CG2O1      CG301      CG331       HGA3
   65    66    67   133	 9 ;      CG2O1      CG301      CG331       HGA3
   68    66    67   131	 9 ;      CG331      CG301      CG331       HGA3
   68    66    67   132	 9 ;      CG331      CG301      CG331       HGA3
   68    66    67   133	 9 ;      CG331      CG301      CG331       HGA3
   69    66    67   131	 9 ;      CG331      CG301      CG331       HGA3
   69    66    67   132	 9 ;      CG331      CG301      CG331       HGA3
   69    66    67   133	 9 ;      CG331      CG301      CG331       HGA3
   65    66    68   134	 9 ;      CG2O1      CG301      CG331       HGA3
   65    66    68   135	 9 ;      CG2O1      CG301      CG331       HGA3
   65    66    68   136	 9 ;      CG2O1      CG301      CG331       HGA3
   67    66    68   134	 9 ;      CG331      CG301      CG331       HGA3
   67    66    68   135	 9 ;      CG331      CG301      CG331       HGA3
   67    66    68   136	 9 ;      CG331      CG301      CG331       HGA3
   69    66    68   134	 9 ;      CG331      CG301      CG331       HGA3
   69    66    68   135	 9 ;      CG331      CG301      CG331       HGA3
   69    66    68   136	 9 ;      CG331      CG301      CG331       HGA3
   65    66    69   137	 9 ;      CG2O1      CG301      CG331       HGA3
   65    66    69   138	 9 ;      CG2O1      CG301      CG331       HGA3
   65    66    69   139	 9 ;      CG2O1      CG301      CG331       HGA3
   67    66    69   137	 9 ;      CG331      CG301      CG331       HGA3
   67    66    69   138	 9 ;      CG331      CG301      CG331       HGA3
   67    66    69   139	 9 ;      CG331      CG301      CG331       HGA3
   68    66    69   137	 9 ;      CG331      CG301      CG331       HGA3
   68    66    69   138	 9 ;      CG331      CG301      CG331       HGA3
   68    66    69   139	 9 ;      CG331      CG301      CG331       HGA3
   64    70    71    72	 9 ;      CG311     CG2R61     CG2R61     CG2R61
   64    70    71   140	 9 ;      CG311     CG2R61     CG2R61      HGR61
   75    70    71    72	 9 ;     CG2R61     CG2R61     CG2R61     CG2R61
   75    70    71   140	 9 ;     CG2R61     CG2R61     CG2R61      HGR61
   64    70    75    74	 9 ;      CG311     CG2R61     CG2R61     CG2R61
   64    70    75   144	 9 ;      CG311     CG2R61     CG2R61      HGR61
   71    70    75    74	 9 ;     CG2R61     CG2R61     CG2R61     CG2R61
   71    70    75   144	 9 ;     CG2R61     CG2R61     CG2R61      HGR61
   70    71    72    73	 9 ;     CG2R61     CG2R61     CG2R61     CG2R61
   70    71    72   141	 9 ;     CG2R61     CG2R61     CG2R61      HGR61
  140    71    72    73	 9 ;      HGR61     CG2R61     CG2R61     CG2R61
  140    71    72   141	 9 ;      HGR61     CG2R61     CG2R61      HGR61
   71    72    73    74	 9 ;     CG2R61     CG2R61     CG2R61     CG2R61
   71    72    73   142	 9 ;     CG2R61     CG2R61     CG2R61      HGR61
  141    72    73    74	 9 ;      HGR61     CG2R61     CG2R61     CG2R61
  141    72    73   142	 9 ;      HGR61     CG2R61     CG2R61      HGR61
   72    73    74    75	 9 ;     CG2R61     CG2R61     CG2R61     CG2R61
   72    73    74   143	 9 ;     CG2R61     CG2R61     CG2R61      HGR61
  142    73    74    75	 9 ;      HGR61     CG2R61     CG2R61     CG2R61
  142    73    74   143	 9 ;      HGR61     CG2R61     CG2R61      HGR61
   73    74    75    70	 9 ;     CG2R61     CG2R61     CG2R61     CG2R61
   73    74    75   144	 9 ;     CG2R61     CG2R61     CG2R61      HGR61
  143    74    75    70	 9 ;      HGR61     CG2R61     CG2R61     CG2R61
  143    74    75   144	 9 ;      HGR61     CG2R61     CG2R61      HGR61

[ dihedrals ]
;	ai	  aj	ak	  al funct			  c0			c1			  c2			c3
   32    31    77    78	 2
   37    38    81    80	 2
   47    45    48    82	 2
   62    63    87    86	 2
   65    66    30    88	 2

