Created by AuToFF
    117
    1LST    C01    1  -0.112   0.168   0.225
    1LST    C02    2  -0.252   0.191   0.279
    1LST    C03    3  -0.089   0.254   0.102
    1LST    C04    4  -0.194   0.005   0.092
    1LST    C05    5  -0.183  -0.141   0.050
    1LST    C06    6  -0.288  -0.170  -0.057
    1LST    C07    7  -0.277  -0.316  -0.099
    1LST    C08    8  -0.382  -0.346  -0.206
    1LST    C09    9  -0.372  -0.492  -0.248
    1LST    C0A   10  -0.476  -0.521  -0.355
    1LST    C0B   11  -0.466  -0.667  -0.397
    1LST    C0C   12  -0.570  -0.697  -0.504
    1LST    C0D   13  -0.560  -0.843  -0.546
    1LST    C0E   14  -0.664  -0.872  -0.653
    1LST    C0F   15  -0.654  -1.018  -0.695
    1LST    C10   16  -0.759  -1.048  -0.802
    1LST    C11   17  -0.748  -1.194  -0.844
    1LST    C12   18  -0.853  -1.223  -0.951
    1LST    C13   19  -0.843  -1.369  -0.993
    1LST    C14   20  -0.947  -1.399  -1.100
    1LST    C15   21  -0.937  -1.545  -1.142
    1LST    O16   22  -0.097   0.032   0.190
    1LST    H17   23  -0.327   0.165   0.201
    1LST    H18   24  -0.264   0.299   0.306
    1LST    H19   25  -0.269   0.128   0.369
    1LST    H1A   26  -0.003   0.323   0.120
    1LST    H1B   27  -0.066   0.189   0.014
    1LST    H1C   28  -0.181   0.314   0.081
    1LST    H1D   29  -0.295   0.025   0.133
    1LST    H1E   30  -0.176   0.071   0.004
    1LST    H1F   31  -0.082  -0.160   0.009
    1LST    H20   32  -0.201  -0.206   0.138
    1LST    H21   33  -0.389  -0.151  -0.016
    1LST    H22   34  -0.270  -0.105  -0.145
    1LST    H23   35  -0.176  -0.336  -0.140
    1LST    H24   36  -0.295  -0.382  -0.011
    1LST    H25   37  -0.483  -0.326  -0.165
    1LST    H26   38  -0.364  -0.280  -0.294
    1LST    H27   39  -0.270  -0.511  -0.289
    1LST    H28   40  -0.389  -0.557  -0.160
    1LST    H29   41  -0.578  -0.502  -0.314
    1LST    H2A   42  -0.458  -0.456  -0.443
    1LST    H2B   43  -0.364  -0.687  -0.438
    1LST    H2C   44  -0.483  -0.733  -0.309
    1LST    H2D   45  -0.672  -0.677  -0.463
    1LST    H2E   46  -0.553  -0.631  -0.592
    1LST    H2F   47  -0.458  -0.862  -0.587
    1LST    H30   48  -0.578  -0.908  -0.458
    1LST    H31   49  -0.766  -0.853  -0.612
    1LST    H32   50  -0.647  -0.807  -0.741
    1LST    H33   51  -0.553  -1.038  -0.736
    1LST    H34   52  -0.672  -1.084  -0.607
    1LST    H35   53  -0.860  -1.028  -0.761
    1LST    H36   54  -0.741  -0.982  -0.890
    1LST    H37   55  -0.647  -1.213  -0.885
    1LST    H38   56  -0.766  -1.259  -0.756
    1LST    H39   57  -0.954  -1.204  -0.910
    1LST    H3A   58  -0.835  -1.158  -1.039
    1LST    H3B   59  -0.741  -1.389  -1.034
    1LST    H3C   60  -0.860  -1.435  -0.905
    1LST    H3D   61  -1.049  -1.379  -1.059
    1LST    H3E   62  -0.929  -1.333  -1.188
    1LST    H3F   63  -1.013  -1.566  -1.220
    1LST    H40   64  -0.835  -1.565  -1.183
    1LST    H41   65  -0.955  -1.610  -1.054
    1LST    N42   66   0.227   0.375   0.611
    1LST    N43   67   0.074   0.503   0.515
    1LST    N44   68   0.079   1.271   0.350
    1LST    N45   69  -0.062   1.267   0.400
    1LST    N46   70  -0.051   1.177   0.520
    1LST    N47   71   0.076   1.137   0.534
    1LST    C48   72   0.176   0.496   0.606
    1LST    C49   73   0.157   0.301   0.520
    1LST    C4A   74   0.061   0.379   0.459
    1LST    C4B   75  -0.037   0.337   0.354
    1LST    C4C   76  -0.006   0.622   0.483
    1LST    C4D   77   0.255   0.951   0.396
    1LST    C4E   78   0.308   0.826   0.429
    1LST    C4F   79   0.223   0.719   0.458
    1LST    C50   80   0.085   0.737   0.453
    1LST    C51   81   0.032   0.861   0.420
    1LST    C52   82   0.116   0.968   0.391
    1LST    C53   83   0.336   1.053   0.369
    1LST    C54   84   0.288   1.176   0.413
    1LST    C55   85   0.377   1.280   0.442
    1LST    C56   86   0.514   1.260   0.425
    1LST    C57   87   0.562   1.137   0.380
    1LST    C58   88   0.473   1.034   0.352
    1LST    C59   89   0.157   1.195   0.429
    1LST    C5A   90   0.222   0.611   0.690
    1LST    C5B   91   0.337   0.566   0.779
    1LST    C5C   92   0.384   0.683   0.864
    1LST    C5D   93   0.498   0.638   0.954
    1LST    O5E   94  -0.018   0.201   0.324
    1LST   Cl5F   95   0.184   0.135   0.486
    1LST    H60   96  -0.021   0.397   0.262
    1LST    H61   97  -0.141   0.352   0.391
    1LST    H62   98  -0.070   0.647   0.570
    1LST    H63   99  -0.070   0.601   0.395
    1LST    H64  100   0.417   0.812   0.433
    1LST    H65  101   0.265   0.621   0.484
    1LST    H66  102  -0.077   0.875   0.416
    1LST    H67  103   0.074   1.066   0.365
    1LST    H68  104   0.340   1.377   0.477
    1LST    H69  105   0.585   1.342   0.447
    1LST    H6A  106   0.670   1.122   0.367
    1LST    H6B  107   0.511   0.936   0.317
    1LST    H6C  108  -0.145   1.314   0.363
    1LST    H6D  109   0.138   0.647   0.753
    1LST    H6E  110   0.257   0.693   0.623
    1LST    H6F  111   0.421   0.529   0.717
    1LST    H70  112   0.301   0.483   0.846
    1LST    H71  113   0.299   0.719   0.927
    1LST    H72  114   0.419   0.765   0.798
    1LST    H73  115   0.533   0.724   1.016
    1LST    H74  116   0.582   0.601   0.891
    1LST    H75  117   0.463   0.556   1.020
   0.00000   0.00000   0.00000
