; Created by AuToFF

[ atomtypes ]
; type                mass       charge   ptype     sigma (nm)    epsilon (kJ/mol)
CG301              12.011000    0.000000     A    2.000000E-01    1.338848E-01
CG331              12.011000    0.000000     A    2.050000E-01    3.263442E-01
CG321              12.011000    0.000000     A    2.010000E-01    2.342984E-01
OG301              15.999400    0.000000     A    1.650000E-01    4.183900E-01
HGA3                1.008000    0.000000     A    1.340000E-01    1.004136E-01
HGA2                1.008000    0.000000     A    1.340000E-01    1.464365E-01
NG2R50             14.007000    0.000000     A    1.850000E-01    8.367800E-01
NG2R52             14.007000    0.000000     A    1.850000E-01    8.367800E-01
NG2R51             14.007000    0.000000     A    1.850000E-01    8.367800E-01
CG2R53             12.011000    0.000000     A    2.200000E-01    8.367800E-02
CG2R51             12.011000    0.000000     A    2.100000E-01    2.091950E-01
CG324              12.011000    0.000000     A    2.175000E-01    2.301145E-01
CG2R67             12.011000    0.000000     A    1.992000E-01    2.928730E-01
CG2R61             12.011000    0.000000     A    1.992000E-01    2.928730E-01
CG251O             12.011000    0.000000     A    2.090000E-01    2.845052E-01
CLGR1              35.453000    0.000000     A    1.860000E-01    9.622970E-01
HGR61               1.008000    0.000000     A    1.358000E-01    1.255170E-01
HGP1                1.008000    0.000000     A    2.250000E-02    1.924594E-01
