; Created by AuToFF

[ moleculetype ]
; name          nrexcl
LST       3

[ atoms ]
;  Index    type       residue  resname    atom      cgnr     charge       mass
     1    CG301           1       LSL      C01       1      0.000000   12.011000
     2    CG331           1       LSL      C02       1      0.000000   12.011000
     3    CG331           1       LSL      C03       1      0.000000   12.011000
     4    CG321           1       LSL      C04       1      0.000000   12.011000
     5    CG321           1       LSL      C05       1      0.000000   12.011000
     6    CG321           1       LSL      C06       1      0.000000   12.011000
     7    CG321           1       LSL      C07       1      0.000000   12.011000
     8    CG321           1       LSL      C08       1      0.000000   12.011000
     9    CG321           1       LSL      C09       1      0.000000   12.011000
    10    CG321           1       LSL      C0A       1      0.000000   12.011000
    11    CG321           1       LSL      C0B       1      0.000000   12.011000
    12    CG321           1       LSL      C0C       1      0.000000   12.011000
    13    CG321           1       LSL      C0D       1      0.000000   12.011000
    14    CG321           1       LSL      C0E       1      0.000000   12.011000
    15    CG321           1       LSL      C0F       1      0.000000   12.011000
    16    CG321           1       LSL      C10       1      0.000000   12.011000
    17    CG321           1       LSL      C11       1      0.000000   12.011000
    18    CG321           1       LSL      C12       1      0.000000   12.011000
    19    CG321           1       LSL      C13       1      0.000000   12.011000
    20    CG321           1       LSL      C14       1      0.000000   12.011000
    21    CG331           1       LSL      C15       1      0.000000   12.011000
    22    OG301           1       LSL      O16       1      0.000000   15.999400
    23    HGA3            1       LSL      H17       1      0.000000    1.008000
    24    HGA3            1       LSL      H18       1      0.000000    1.008000
    25    HGA3            1       LSL      H19       1      0.000000    1.008000
    26    HGA3            1       LSL      H1A       1      0.000000    1.008000
    27    HGA3            1       LSL      H1B       1      0.000000    1.008000
    28    HGA3            1       LSL      H1C       1      0.000000    1.008000
    29    HGA2            1       LSL      H1D       1      0.000000    1.008000
    30    HGA2            1       LSL      H1E       1      0.000000    1.008000
    31    HGA2            1       LSL      H1F       1      0.000000    1.008000
    32    HGA2            1       LSL      H20       1      0.000000    1.008000
    33    HGA2            1       LSL      H21       1      0.000000    1.008000
    34    HGA2            1       LSL      H22       1      0.000000    1.008000
    35    HGA2            1       LSL      H23       1      0.000000    1.008000
    36    HGA2            1       LSL      H24       1      0.000000    1.008000
    37    HGA2            1       LSL      H25       1      0.000000    1.008000
    38    HGA2            1       LSL      H26       1      0.000000    1.008000
    39    HGA2            1       LSL      H27       1      0.000000    1.008000
    40    HGA2            1       LSL      H28       1      0.000000    1.008000
    41    HGA2            1       LSL      H29       1      0.000000    1.008000
    42    HGA2            1       LSL      H2A       1      0.000000    1.008000
    43    HGA2            1       LSL      H2B       1      0.000000    1.008000
    44    HGA2            1       LSL      H2C       1      0.000000    1.008000
    45    HGA2            1       LSL      H2D       1      0.000000    1.008000
    46    HGA2            1       LSL      H2E       1      0.000000    1.008000
    47    HGA2            1       LSL      H2F       1      0.000000    1.008000
    48    HGA2            1       LSL      H30       1      0.000000    1.008000
    49    HGA2            1       LSL      H31       1      0.000000    1.008000
    50    HGA2            1       LSL      H32       1      0.000000    1.008000
    51    HGA2            1       LSL      H33       1      0.000000    1.008000
    52    HGA2            1       LSL      H34       1      0.000000    1.008000
    53    HGA2            1       LSL      H35       1      0.000000    1.008000
    54    HGA2            1       LSL      H36       1      0.000000    1.008000
    55    HGA2            1       LSL      H37       1      0.000000    1.008000
    56    HGA2            1       LSL      H38       1      0.000000    1.008000
    57    HGA2            1       LSL      H39       1      0.000000    1.008000
    58    HGA2            1       LSL      H3A       1      0.000000    1.008000
    59    HGA2            1       LSL      H3B       1      0.000000    1.008000
    60    HGA2            1       LSL      H3C       1      0.000000    1.008000
    61    HGA2            1       LSL      H3D       1      0.000000    1.008000
    62    HGA2            1       LSL      H3E       1      0.000000    1.008000
    63    HGA3            1       LSL      H3F       1      0.000000    1.008000
    64    HGA3            1       LSL      H40       1      0.000000    1.008000
    65    HGA3            1       LSL      H41       1      0.000000    1.008000
    66    NG2R50          1       LST      N42       1      0.000000   14.007000
    67    NG2R52          1       LST      N43       1      0.000000   14.007000
    68    NG2R50          1       LST      N44       1      0.000000   14.007000
    69    NG2R51          1       LST      N45       1      0.000000   14.007000
    70    NG2R50          1       LST      N46       1      0.000000   14.007000
    71    NG2R50          1       LST      N47       1      0.000000   14.007000
    72    CG2R53          1       LST      C48       1      0.000000   12.011000
    73    CG2R51          1       LST      C49       1      0.000000   12.011000
    74    CG2R51          1       LST      C4A       1      0.000000   12.011000
    75    CG321           1       LST      C4B       1      0.000000   12.011000
    76    CG324           1       LST      C4C       1      0.000000   12.011000
    77    CG2R67          1       LST      C4D       1      0.000000   12.011000
    78    CG2R61          1       LST      C4E       1      0.000000   12.011000
    79    CG2R61          1       LST      C4F       1      0.000000   12.011000
    80    CG2R61          1       LST      C50       1      0.000000   12.011000
    81    CG2R61          1       LST      C51       1      0.000000   12.011000
    82    CG2R61          1       LST      C52       1      0.000000   12.011000
    83    CG2R67          1       LST      C53       1      0.000000   12.011000
    84    CG2R61          1       LST      C54       1      0.000000   12.011000
    85    CG2R61          1       LST      C55       1      0.000000   12.011000
    86    CG2R61          1       LST      C56       1      0.000000   12.011000
    87    CG2R61          1       LST      C57       1      0.000000   12.011000
    88    CG2R61          1       LST      C58       1      0.000000   12.011000
    89    CG251O          1       LST      C59       1      0.000000   12.011000
    90    CG321           1       LST      C5A       1      0.000000   12.011000
    91    CG321           1       LST      C5B       1      0.000000   12.011000
    92    CG321           1       LST      C5C       1      0.000000   12.011000
    93    CG331           1       LST      C5D       1      0.000000   12.011000
    94    OG301           1       LST      O5E       1      0.000000   15.999400
    95    CLGR1           1       LST      Cl5F      1      0.000000   35.453000
    96    HGA2            1       LST      H60       1      0.000000    1.008000
    97    HGA2            1       LST      H61       1      0.000000    1.008000
    98    HGA2            1       LST      H62       1      0.000000    1.008000
    99    HGA2            1       LST      H63       1      0.000000    1.008000
   100    HGR61           1       LST      H64       1      0.000000    1.008000
   101    HGR61           1       LST      H65       1      0.000000    1.008000
   102    HGR61           1       LST      H66       1      0.000000    1.008000
   103    HGR61           1       LST      H67       1      0.000000    1.008000
   104    HGR61           1       LST      H68       1      0.000000    1.008000
   105    HGR61           1       LST      H69       1      0.000000    1.008000
   106    HGR61           1       LST      H6A       1      0.000000    1.008000
   107    HGR61           1       LST      H6B       1      0.000000    1.008000
   108    HGP1            1       LST      H6C       1      0.000000    1.008000
   109    HGA2            1       LST      H6D       1      0.000000    1.008000
   110    HGA2            1       LST      H6E       1      0.000000    1.008000
   111    HGA2            1       LST      H6F       1      0.000000    1.008000
   112    HGA2            1       LST      H70       1      0.000000    1.008000
   113    HGA2            1       LST      H71       1      0.000000    1.008000
   114    HGA2            1       LST      H72       1      0.000000    1.008000
   115    HGA3            1       LST      H73       1      0.000000    1.008000
   116    HGA3            1       LST      H74       1      0.000000    1.008000
   117    HGA3            1       LST      H75       1      0.000000    1.008000

[ bonds ]
; atom_i  atom_j  functype     r0 (nm)   k (kJ/mol/nm^2)
       1       2       1       0.1540    1.861836E+05
       1       3       1       0.1540    1.861836E+05
       1      22       1       0.1410    3.012408E+05
       2      23       1       0.1110    2.694432E+05
       2      24       1       0.1110    2.694432E+05
       2      25       1       0.1110    2.694432E+05
       3      26       1       0.1110    2.694432E+05
       3      27       1       0.1110    2.694432E+05
       3      28       1       0.1110    2.694432E+05
       4       5       1       0.1530    1.861836E+05
       4      29       1       0.1110    2.585650E+05
       4      30       1       0.1110    2.585650E+05
       5       6       1       0.1530    1.861836E+05
       5      31       1       0.1110    2.585650E+05
       5      32       1       0.1110    2.585650E+05
       6       7       1       0.1530    1.861836E+05
       6      33       1       0.1110    2.585650E+05
       6      34       1       0.1110    2.585650E+05
       7       8       1       0.1530    1.861836E+05
       7      35       1       0.1110    2.585650E+05
       7      36       1       0.1110    2.585650E+05
       8       9       1       0.1530    1.861836E+05
       8      37       1       0.1110    2.585650E+05
       8      38       1       0.1110    2.585650E+05
       9      10       1       0.1530    1.861836E+05
       9      39       1       0.1110    2.585650E+05
       9      40       1       0.1110    2.585650E+05
      10      11       1       0.1530    1.861836E+05
      10      41       1       0.1110    2.585650E+05
      10      42       1       0.1110    2.585650E+05
      11      12       1       0.1530    1.861836E+05
      11      43       1       0.1110    2.585650E+05
      11      44       1       0.1110    2.585650E+05
      12      13       1       0.1530    1.861836E+05
      12      45       1       0.1110    2.585650E+05
      12      46       1       0.1110    2.585650E+05
      13      14       1       0.1530    1.861836E+05
      13      47       1       0.1110    2.585650E+05
      13      48       1       0.1110    2.585650E+05
      14      15       1       0.1530    1.861836E+05
      14      49       1       0.1110    2.585650E+05
      14      50       1       0.1110    2.585650E+05
      15      16       1       0.1530    1.861836E+05
      15      51       1       0.1110    2.585650E+05
      15      52       1       0.1110    2.585650E+05
      16      17       1       0.1530    1.861836E+05
      16      53       1       0.1110    2.585650E+05
      16      54       1       0.1110    2.585650E+05
      17      18       1       0.1530    1.861836E+05
      17      55       1       0.1110    2.585650E+05
      17      56       1       0.1110    2.585650E+05
      18      19       1       0.1530    1.861836E+05
      18      57       1       0.1110    2.585650E+05
      18      58       1       0.1110    2.585650E+05
      19      20       1       0.1530    1.861836E+05
      19      59       1       0.1110    2.585650E+05
      19      60       1       0.1110    2.585650E+05
      20      21       1       0.1530    1.861836E+05
      20      61       1       0.1110    2.585650E+05
      20      62       1       0.1110    2.585650E+05
      21      63       1       0.1110    2.694432E+05
      21      64       1       0.1110    2.694432E+05
      21      65       1       0.1110    2.694432E+05
       4      22       1       0.1410    3.012408E+05
      66      73       1       0.1380    3.347120E+05
      67      76       1       0.1440    2.694432E+05
      68      69       1       0.1360    3.012408E+05
      68      89       1       0.1410    2.884882E+05
      69      70       1       0.1360    3.012408E+05
      69     108       1       0.1010    3.966338E+05
      70      71       1       0.1290    2.845052E+05
      71      89       1       0.1410    2.884882E+05
      66      72       1       0.1320    3.347120E+05
      67      72       1       0.1320    3.179764E+05
      72      90       1       0.1500    3.556316E+05
      73      74       1       0.1360    3.430798E+05
      67      74       1       0.1370    3.179764E+05
      74      75       1       0.1500    1.921498E+05
      75      94       1       0.1410    3.012408E+05
      75      96       1       0.1110    2.585650E+05
      75      97       1       0.1110    2.585650E+05
      76      80       1       0.1490    1.924594E+05
      76      98       1       0.1100    2.380640E+05
      76      99       1       0.1100    2.380640E+05
      77      78       1       0.1380    2.552180E+05
      77      82       1       0.1380    2.552180E+05
      77      83       1       0.1490    2.510340E+05
      78      79       1       0.1380    2.552180E+05
      78     100       1       0.1080    2.845052E+05
      79      80       1       0.1380    2.552180E+05
      79     101       1       0.1080    2.845052E+05
      80      81       1       0.1380    2.552180E+05
      81      82       1       0.1380    2.552180E+05
      81     102       1       0.1080    2.845052E+05
      82     103       1       0.1080    2.845052E+05
      83      84       1       0.1380    2.552180E+05
      83      88       1       0.1380    2.552180E+05
      84      85       1       0.1380    2.552180E+05
      84      89       1       0.1440    2.510340E+05
      85      86       1       0.1380    2.552180E+05
      85     104       1       0.1080    2.845052E+05
      86      87       1       0.1380    2.552180E+05
      86     105       1       0.1080    2.845052E+05
      87      88       1       0.1380    2.552180E+05
      87     106       1       0.1080    2.845052E+05
      88     107       1       0.1080    2.845052E+05
      90      91       1       0.1530    1.861836E+05
      90     109       1       0.1110    2.585650E+05
      90     110       1       0.1110    2.585650E+05
      91      92       1       0.1530    1.861836E+05
      91     111       1       0.1110    2.585650E+05
      91     112       1       0.1110    2.585650E+05
      92      93       1       0.1530    1.861836E+05
      92     113       1       0.1110    2.585650E+05
      92     114       1       0.1110    2.585650E+05
      93     115       1       0.1110    2.694432E+05
      93     116       1       0.1110    2.694432E+05
      93     117       1       0.1110    2.694432E+05
       1      94       1       0.1410    3.012408E+05
      73      95       1       0.1720    2.000000E+06 ; no parameters found, use a large force constant to constraint the distance

[ angles ]
; atom_i  atom_j  atom_k  functype    a0 (Deg.)  k (kJ/mol/rad^2)
       2       1       3       5        113.50    4.882720E+02       0.2560    9.338690E+03
       2       1      22       5        111.50    3.765600E+02       0.0000    0.000000E+00
       2       1      94       5        111.50    3.765600E+02       0.0000    0.000000E+00
       3       1      22       5        111.50    3.765600E+02       0.0000    0.000000E+00
       3       1      94       5        111.50    3.765600E+02       0.0000    0.000000E+00
      22       1      94       5        107.00    5.898600E+02       0.0000    0.000000E+00
       1       2      23       5        110.10    2.797420E+02       0.2180    1.885310E+04
       1       2      24       5        110.10    2.797420E+02       0.2180    1.885310E+04
       1       2      25       5        110.10    2.797420E+02       0.2180    1.885310E+04
      23       2      24       5        108.40    2.970640E+02       0.1800    4.518720E+03
      23       2      25       5        108.40    2.970640E+02       0.1800    4.518720E+03
      24       2      25       5        108.40    2.970640E+02       0.1800    4.518720E+03
       1       3      26       5        110.10    2.797420E+02       0.2180    1.885310E+04
       1       3      27       5        110.10    2.797420E+02       0.2180    1.885310E+04
       1       3      28       5        110.10    2.797420E+02       0.2180    1.885310E+04
      26       3      27       5        108.40    2.970640E+02       0.1800    4.518720E+03
      26       3      28       5        108.40    2.970640E+02       0.1800    4.518720E+03
      27       3      28       5        108.40    2.970640E+02       0.1800    4.518720E+03
       5       4      29       5        110.10    2.217520E+02       0.2180    1.885310E+04
       5       4      30       5        110.10    2.217520E+02       0.2180    1.885310E+04
       5       4      22       5        111.50    3.765600E+02       0.0000    0.000000E+00
      29       4      30       5        109.00    2.970640E+02       0.1800    4.518720E+03
      22       4      29       5        108.89    3.840920E+02       0.0000    0.000000E+00
      22       4      30       5        108.89    3.840920E+02       0.0000    0.000000E+00
       4       5       6       5        113.60    4.882720E+02       0.2560    9.338690E+03
       4       5      31       5        110.10    2.217520E+02       0.2180    1.885310E+04
       4       5      32       5        110.10    2.217520E+02       0.2180    1.885310E+04
       6       5      31       5        110.10    2.217520E+02       0.2180    1.885310E+04
       6       5      32       5        110.10    2.217520E+02       0.2180    1.885310E+04
      31       5      32       5        109.00    2.970640E+02       0.1800    4.518720E+03
       5       6       7       5        113.60    4.882720E+02       0.2560    9.338690E+03
       5       6      33       5        110.10    2.217520E+02       0.2180    1.885310E+04
       5       6      34       5        110.10    2.217520E+02       0.2180    1.885310E+04
       7       6      33       5        110.10    2.217520E+02       0.2180    1.885310E+04
       7       6      34       5        110.10    2.217520E+02       0.2180    1.885310E+04
      33       6      34       5        109.00    2.970640E+02       0.1800    4.518720E+03
       6       7       8       5        113.60    4.882720E+02       0.2560    9.338690E+03
       6       7      35       5        110.10    2.217520E+02       0.2180    1.885310E+04
       6       7      36       5        110.10    2.217520E+02       0.2180    1.885310E+04
       8       7      35       5        110.10    2.217520E+02       0.2180    1.885310E+04
       8       7      36       5        110.10    2.217520E+02       0.2180    1.885310E+04
      35       7      36       5        109.00    2.970640E+02       0.1800    4.518720E+03
       7       8       9       5        113.60    4.882720E+02       0.2560    9.338690E+03
       7       8      37       5        110.10    2.217520E+02       0.2180    1.885310E+04
       7       8      38       5        110.10    2.217520E+02       0.2180    1.885310E+04
       9       8      37       5        110.10    2.217520E+02       0.2180    1.885310E+04
       9       8      38       5        110.10    2.217520E+02       0.2180    1.885310E+04
      37       8      38       5        109.00    2.970640E+02       0.1800    4.518720E+03
       8       9      10       5        113.60    4.882720E+02       0.2560    9.338690E+03
       8       9      39       5        110.10    2.217520E+02       0.2180    1.885310E+04
       8       9      40       5        110.10    2.217520E+02       0.2180    1.885310E+04
      10       9      39       5        110.10    2.217520E+02       0.2180    1.885310E+04
      10       9      40       5        110.10    2.217520E+02       0.2180    1.885310E+04
      39       9      40       5        109.00    2.970640E+02       0.1800    4.518720E+03
       9      10      11       5        113.60    4.882720E+02       0.2560    9.338690E+03
       9      10      41       5        110.10    2.217520E+02       0.2180    1.885310E+04
       9      10      42       5        110.10    2.217520E+02       0.2180    1.885310E+04
      11      10      41       5        110.10    2.217520E+02       0.2180    1.885310E+04
      11      10      42       5        110.10    2.217520E+02       0.2180    1.885310E+04
      41      10      42       5        109.00    2.970640E+02       0.1800    4.518720E+03
      10      11      12       5        113.60    4.882720E+02       0.2560    9.338690E+03
      10      11      43       5        110.10    2.217520E+02       0.2180    1.885310E+04
      10      11      44       5        110.10    2.217520E+02       0.2180    1.885310E+04
      12      11      43       5        110.10    2.217520E+02       0.2180    1.885310E+04
      12      11      44       5        110.10    2.217520E+02       0.2180    1.885310E+04
      43      11      44       5        109.00    2.970640E+02       0.1800    4.518720E+03
      11      12      13       5        113.60    4.882720E+02       0.2560    9.338690E+03
      11      12      45       5        110.10    2.217520E+02       0.2180    1.885310E+04
      11      12      46       5        110.10    2.217520E+02       0.2180    1.885310E+04
      13      12      45       5        110.10    2.217520E+02       0.2180    1.885310E+04
      13      12      46       5        110.10    2.217520E+02       0.2180    1.885310E+04
      45      12      46       5        109.00    2.970640E+02       0.1800    4.518720E+03
      12      13      14       5        113.60    4.882720E+02       0.2560    9.338690E+03
      12      13      47       5        110.10    2.217520E+02       0.2180    1.885310E+04
      12      13      48       5        110.10    2.217520E+02       0.2180    1.885310E+04
      14      13      47       5        110.10    2.217520E+02       0.2180    1.885310E+04
      14      13      48       5        110.10    2.217520E+02       0.2180    1.885310E+04
      47      13      48       5        109.00    2.970640E+02       0.1800    4.518720E+03
      13      14      15       5        113.60    4.882720E+02       0.2560    9.338690E+03
      13      14      49       5        110.10    2.217520E+02       0.2180    1.885310E+04
      13      14      50       5        110.10    2.217520E+02       0.2180    1.885310E+04
      15      14      49       5        110.10    2.217520E+02       0.2180    1.885310E+04
      15      14      50       5        110.10    2.217520E+02       0.2180    1.885310E+04
      49      14      50       5        109.00    2.970640E+02       0.1800    4.518720E+03
      14      15      16       5        113.60    4.882720E+02       0.2560    9.338690E+03
      14      15      51       5        110.10    2.217520E+02       0.2180    1.885310E+04
      14      15      52       5        110.10    2.217520E+02       0.2180    1.885310E+04
      16      15      51       5        110.10    2.217520E+02       0.2180    1.885310E+04
      16      15      52       5        110.10    2.217520E+02       0.2180    1.885310E+04
      51      15      52       5        109.00    2.970640E+02       0.1800    4.518720E+03
      15      16      17       5        113.60    4.882720E+02       0.2560    9.338690E+03
      15      16      53       5        110.10    2.217520E+02       0.2180    1.885310E+04
      15      16      54       5        110.10    2.217520E+02       0.2180    1.885310E+04
      17      16      53       5        110.10    2.217520E+02       0.2180    1.885310E+04
      17      16      54       5        110.10    2.217520E+02       0.2180    1.885310E+04
      53      16      54       5        109.00    2.970640E+02       0.1800    4.518720E+03
      16      17      18       5        113.60    4.882720E+02       0.2560    9.338690E+03
      16      17      55       5        110.10    2.217520E+02       0.2180    1.885310E+04
      16      17      56       5        110.10    2.217520E+02       0.2180    1.885310E+04
      18      17      55       5        110.10    2.217520E+02       0.2180    1.885310E+04
      18      17      56       5        110.10    2.217520E+02       0.2180    1.885310E+04
      55      17      56       5        109.00    2.970640E+02       0.1800    4.518720E+03
      17      18      19       5        113.60    4.882720E+02       0.2560    9.338690E+03
      17      18      57       5        110.10    2.217520E+02       0.2180    1.885310E+04
      17      18      58       5        110.10    2.217520E+02       0.2180    1.885310E+04
      19      18      57       5        110.10    2.217520E+02       0.2180    1.885310E+04
      19      18      58       5        110.10    2.217520E+02       0.2180    1.885310E+04
      57      18      58       5        109.00    2.970640E+02       0.1800    4.518720E+03
      18      19      20       5        113.60    4.882720E+02       0.2560    9.338690E+03
      18      19      59       5        110.10    2.217520E+02       0.2180    1.885310E+04
      18      19      60       5        110.10    2.217520E+02       0.2180    1.885310E+04
      20      19      59       5        110.10    2.217520E+02       0.2180    1.885310E+04
      20      19      60       5        110.10    2.217520E+02       0.2180    1.885310E+04
      59      19      60       5        109.00    2.970640E+02       0.1800    4.518720E+03
      19      20      21       5        115.00    4.853440E+02       0.2560    6.694400E+03
      19      20      61       5        110.10    2.217520E+02       0.2180    1.885310E+04
      19      20      62       5        110.10    2.217520E+02       0.2180    1.885310E+04
      21      20      61       5        110.10    2.895320E+02       0.2180    1.885310E+04
      21      20      62       5        110.10    2.895320E+02       0.2180    1.885310E+04
      61      20      62       5        109.00    2.970640E+02       0.1800    4.518720E+03
      20      21      63       5        110.10    2.895320E+02       0.2180    1.885310E+04
      20      21      64       5        110.10    2.895320E+02       0.2180    1.885310E+04
      20      21      65       5        110.10    2.895320E+02       0.2180    1.885310E+04
      63      21      64       5        108.40    2.970640E+02       0.1800    4.518720E+03
      63      21      65       5        108.40    2.970640E+02       0.1800    4.518720E+03
      64      21      65       5        108.40    2.970640E+02       0.1800    4.518720E+03
      72      66      73       5        103.50    1.087840E+03       0.0000    0.000000E+00
      72      67      74       5        108.00    1.213360E+03       0.0000    0.000000E+00
      69      68      89       5        101.00    8.368000E+02       0.0000    0.000000E+00
      68      69      70       5        121.00    7.531200E+02       0.0000    0.000000E+00
      68      69     108       5        119.50    2.677760E+02       0.0000    0.000000E+00
      70      69     108       5        119.50    2.677760E+02       0.0000    0.000000E+00
      69      70      71       5        102.20    1.338880E+03       0.0000    0.000000E+00
      70      71      89       5        105.90    9.204800E+02       0.0000    0.000000E+00
      66      72      90       5        123.00    3.832540E+02       0.0000    0.000000E+00
      67      72      90       5        148.17    3.825020E+02       0.0000    0.000000E+00
      66      73      74       5        110.00    1.087840E+03       0.0000    0.000000E+00
      73      74      75       5        130.00    3.832540E+02       0.0000    0.000000E+00
      67      74      73       5        108.00    1.213360E+03       0.0000    0.000000E+00
      67      74      75       5        122.00    3.832540E+02       0.0000    0.000000E+00
      74      75      96       5        109.50    4.602400E+02       0.0000    0.000000E+00
      74      75      97       5        109.50    4.602400E+02       0.0000    0.000000E+00
      94      75      96       5        108.89    3.840920E+02       0.0000    0.000000E+00
      94      75      97       5        108.89    3.840920E+02       0.0000    0.000000E+00
      96      75      97       5        109.00    2.970640E+02       0.1800    4.518720E+03
      67      76      98       5        105.20    3.204940E+02       0.0000    0.000000E+00
      67      76      99       5        105.20    3.204940E+02       0.0000    0.000000E+00
      80      76      98       5        107.50    4.125420E+02       0.0000    0.000000E+00
      80      76      99       5        107.50    4.125420E+02       0.0000    0.000000E+00
      98      76      99       5        109.00    2.970640E+02       0.1800    4.518720E+03
      78      77      82       5        120.00    3.347200E+02       0.0000    0.000000E+00
      78      77      83       5        120.00    3.347200E+02       0.0000    0.000000E+00
      82      77      83       5        120.00    3.347200E+02       0.0000    0.000000E+00
      77      78      79       5        120.00    3.347200E+02       0.0000    0.000000E+00
      77      78     100       5        120.00    2.510400E+02       0.0000    0.000000E+00
      79      78     100       5        120.00    2.510400E+02       0.2150    1.840960E+04
      78      79      80       5        120.00    3.347200E+02       0.2420    2.928800E+04
      78      79     101       5        120.00    2.510400E+02       0.2150    1.840960E+04
      80      79     101       5        120.00    2.510400E+02       0.2150    1.840960E+04
      76      80      79       5        120.00    3.832540E+02       0.0000    0.000000E+00
      76      80      81       5        120.00    3.832540E+02       0.0000    0.000000E+00
      79      80      81       5        120.00    3.347200E+02       0.2420    2.928800E+04
      80      81      82       5        120.00    3.347200E+02       0.2420    2.928800E+04
      80      81     102       5        120.00    2.510400E+02       0.2150    1.840960E+04
      82      81     102       5        120.00    2.510400E+02       0.2150    1.840960E+04
      77      82      81       5        120.00    3.347200E+02       0.0000    0.000000E+00
      77      82     103       5        120.00    2.510400E+02       0.0000    0.000000E+00
      81      82     103       5        120.00    2.510400E+02       0.2150    1.840960E+04
      77      83      84       5        120.00    3.347200E+02       0.0000    0.000000E+00
      77      83      88       5        120.00    3.347200E+02       0.0000    0.000000E+00
      84      83      88       5        120.00    3.347200E+02       0.0000    0.000000E+00
      83      84      85       5        120.00    3.347200E+02       0.0000    0.000000E+00
      83      84      89       5        120.00    2.677760E+02       0.0000    0.000000E+00
      85      84      89       5        120.00    2.677760E+02       0.0000    0.000000E+00
      84      85      86       5        120.00    3.347200E+02       0.2420    2.928800E+04
      84      85     104       5        120.00    2.510400E+02       0.2150    1.840960E+04
      86      85     104       5        120.00    2.510400E+02       0.2150    1.840960E+04
      85      86      87       5        120.00    3.347200E+02       0.2420    2.928800E+04
      85      86     105       5        120.00    2.510400E+02       0.2150    1.840960E+04
      87      86     105       5        120.00    2.510400E+02       0.2150    1.840960E+04
      86      87      88       5        120.00    3.347200E+02       0.2420    2.928800E+04
      86      87     106       5        120.00    2.510400E+02       0.2150    1.840960E+04
      88      87     106       5        120.00    2.510400E+02       0.2150    1.840960E+04
      83      88      87       5        120.00    3.347200E+02       0.0000    0.000000E+00
      83      88     107       5        120.00    2.510400E+02       0.0000    0.000000E+00
      87      88     107       5        120.00    2.510400E+02       0.2150    1.840960E+04
      68      89      71       5        111.00    8.368000E+02       0.0000    0.000000E+00
      68      89      84       5        122.22    3.603260E+02       0.0000    0.000000E+00
      71      89      84       5        122.22    3.603260E+02       0.0000    0.000000E+00
      72      90      91       5        111.00    4.937120E+02       0.0000    0.000000E+00
      72      90     109       5        109.50    4.602400E+02       0.0000    0.000000E+00
      72      90     110       5        109.50    4.602400E+02       0.0000    0.000000E+00
      91      90     109       5        110.10    2.217520E+02       0.2180    1.885310E+04
      91      90     110       5        110.10    2.217520E+02       0.2180    1.885310E+04
     109      90     110       5        109.00    2.970640E+02       0.1800    4.518720E+03
      90      91      92       5        113.60    4.882720E+02       0.2560    9.338690E+03
      90      91     111       5        110.10    2.217520E+02       0.2180    1.885310E+04
      90      91     112       5        110.10    2.217520E+02       0.2180    1.885310E+04
      92      91     111       5        110.10    2.217520E+02       0.2180    1.885310E+04
      92      91     112       5        110.10    2.217520E+02       0.2180    1.885310E+04
     111      91     112       5        109.00    2.970640E+02       0.1800    4.518720E+03
      91      92      93       5        115.00    4.853440E+02       0.2560    6.694400E+03
      91      92     113       5        110.10    2.217520E+02       0.2180    1.885310E+04
      91      92     114       5        110.10    2.217520E+02       0.2180    1.885310E+04
      93      92     113       5        110.10    2.895320E+02       0.2180    1.885310E+04
      93      92     114       5        110.10    2.895320E+02       0.2180    1.885310E+04
     113      92     114       5        109.00    2.970640E+02       0.1800    4.518720E+03
      92      93     115       5        110.10    2.895320E+02       0.2180    1.885310E+04
      92      93     116       5        110.10    2.895320E+02       0.2180    1.885310E+04
      92      93     117       5        110.10    2.895320E+02       0.2180    1.885310E+04
     115      93     116       5        108.40    2.970640E+02       0.1800    4.518720E+03
     115      93     117       5        108.40    2.970640E+02       0.1800    4.518720E+03
     116      93     117       5        108.40    2.970640E+02       0.1800    4.518720E+03
       1      22       4       1        106.84    2.000000E+03 ; no parameters found, use a large force constant to constraint the angle
      72      67      76       1        126.28    2.000000E+03 ; no parameters found, use a large force constant to constraint the angle
      74      67      76       1        126.27    2.000000E+03 ; no parameters found, use a large force constant to constraint the angle
      66      72      67       1        111.48    2.000000E+03 ; no parameters found, use a large force constant to constraint the angle
      66      73      95       1        124.63    2.000000E+03 ; no parameters found, use a large force constant to constraint the angle
      74      73      95       1        124.60    2.000000E+03 ; no parameters found, use a large force constant to constraint the angle
      74      75      94       1        109.48    2.000000E+03 ; no parameters found, use a large force constant to constraint the angle
      67      76      80       1        109.45    2.000000E+03 ; no parameters found, use a large force constant to constraint the angle
       1      94      75       1        106.79    2.000000E+03 ; no parameters found, use a large force constant to constraint the angle

[ dihedrals ]
; PROPER DIHEDRAL ANGLES
; atom_i  atom_j  atom_k  atom_l  functype     c0          c1          c2          c3          c4          c5
      94       1       2      23       9      0.0000      0.6690           3
      94       1       2      24       9      0.0000      0.6690           3
      94       1       2      25       9      0.0000      0.6690           3
      94       1       3      26       9      0.0000      0.6690           3
      94       1       3      27       9      0.0000      0.6690           3
      94       1       3      28       9      0.0000      0.6690           3
      94       1      22       4       9      0.0000      2.1340           1
      94       1      22       4       9      0.0000      2.8030           2
      94       1      22       4       9      0.0000      1.0880           3
      23       2       1       3       9      0.0000      0.6690           3
      23       2       1      22       9      0.0000      0.6690           3
      24       2       1       3       9      0.0000      0.6690           3
      24       2       1      22       9      0.0000      0.6690           3
      25       2       1       3       9      0.0000      0.6690           3
      25       2       1      22       9      0.0000      0.6690           3
      26       3       1       2       9      0.0000      0.6690           3
      26       3       1      22       9      0.0000      0.6690           3
      27       3       1       2       9      0.0000      0.6690           3
      27       3       1      22       9      0.0000      0.6690           3
      28       3       1       2       9      0.0000      0.6690           3
      28       3       1      22       9      0.0000      0.6690           3
       5       4      22       1       9      0.0000      1.0040           1
       5       4      22       1       9      0.0000      1.2130           2
       5       4      22       1       9      0.0000      0.0840           3
      29       4       5       6       9      0.0000      0.8160           3
      29       4      22       1       9      0.0000      0.3970           3
      30       4       5       6       9      0.0000      0.8160           3
      30       4      22       1       9      0.0000      0.3970           3
      22       4       5       6       9    180.0000      0.6690           1
      22       4       5       6       9      0.0000      1.6320           2
      31       5       4      29       9      0.0000      0.9200           3
      31       5       4      30       9      0.0000      0.9200           3
      31       5       4      22       9      0.0000      0.7950           3
      31       5       6       7       9      0.0000      0.8160           3
      32       5       4      29       9      0.0000      0.9200           3
      32       5       4      30       9      0.0000      0.9200           3
      32       5       4      22       9      0.0000      0.7950           3
      32       5       6       7       9      0.0000      0.8160           3
       7       6       5       4       9      0.0000      0.2700           2
       7       6       5       4       9    180.0000      0.6260           3
       7       6       5       4       9      0.0000      0.3960           4
       7       6       5       4       9      0.0000      0.4710           5
      33       6       5       4       9      0.0000      0.8160           3
      33       6       5      31       9      0.0000      0.9200           3
      33       6       5      32       9      0.0000      0.9200           3
      33       6       7       8       9      0.0000      0.8160           3
      34       6       5       4       9      0.0000      0.8160           3
      34       6       5      31       9      0.0000      0.9200           3
      34       6       5      32       9      0.0000      0.9200           3
      34       6       7       8       9      0.0000      0.8160           3
       8       7       6       5       9      0.0000      0.2700           2
       8       7       6       5       9    180.0000      0.6260           3
       8       7       6       5       9      0.0000      0.3960           4
       8       7       6       5       9      0.0000      0.4710           5
      35       7       6       5       9      0.0000      0.8160           3
      35       7       6      33       9      0.0000      0.9200           3
      35       7       6      34       9      0.0000      0.9200           3
      35       7       8       9       9      0.0000      0.8160           3
      36       7       6       5       9      0.0000      0.8160           3
      36       7       6      33       9      0.0000      0.9200           3
      36       7       6      34       9      0.0000      0.9200           3
      36       7       8       9       9      0.0000      0.8160           3
       9       8       7       6       9      0.0000      0.2700           2
       9       8       7       6       9    180.0000      0.6260           3
       9       8       7       6       9      0.0000      0.3960           4
       9       8       7       6       9      0.0000      0.4710           5
      37       8       7       6       9      0.0000      0.8160           3
      37       8       7      35       9      0.0000      0.9200           3
      37       8       7      36       9      0.0000      0.9200           3
      37       8       9      10       9      0.0000      0.8160           3
      38       8       7       6       9      0.0000      0.8160           3
      38       8       7      35       9      0.0000      0.9200           3
      38       8       7      36       9      0.0000      0.9200           3
      38       8       9      10       9      0.0000      0.8160           3
      10       9       8       7       9      0.0000      0.2700           2
      10       9       8       7       9    180.0000      0.6260           3
      10       9       8       7       9      0.0000      0.3960           4
      10       9       8       7       9      0.0000      0.4710           5
      39       9       8       7       9      0.0000      0.8160           3
      39       9       8      37       9      0.0000      0.9200           3
      39       9       8      38       9      0.0000      0.9200           3
      39       9      10      11       9      0.0000      0.8160           3
      40       9       8       7       9      0.0000      0.8160           3
      40       9       8      37       9      0.0000      0.9200           3
      40       9       8      38       9      0.0000      0.9200           3
      40       9      10      11       9      0.0000      0.8160           3
      11      10       9       8       9      0.0000      0.2700           2
      11      10       9       8       9    180.0000      0.6260           3
      11      10       9       8       9      0.0000      0.3960           4
      11      10       9       8       9      0.0000      0.4710           5
      41      10       9       8       9      0.0000      0.8160           3
      41      10       9      39       9      0.0000      0.9200           3
      41      10       9      40       9      0.0000      0.9200           3
      41      10      11      12       9      0.0000      0.8160           3
      42      10       9       8       9      0.0000      0.8160           3
      42      10       9      39       9      0.0000      0.9200           3
      42      10       9      40       9      0.0000      0.9200           3
      42      10      11      12       9      0.0000      0.8160           3
      12      11      10       9       9      0.0000      0.2700           2
      12      11      10       9       9    180.0000      0.6260           3
      12      11      10       9       9      0.0000      0.3960           4
      12      11      10       9       9      0.0000      0.4710           5
      43      11      10       9       9      0.0000      0.8160           3
      43      11      10      41       9      0.0000      0.9200           3
      43      11      10      42       9      0.0000      0.9200           3
      43      11      12      13       9      0.0000      0.8160           3
      44      11      10       9       9      0.0000      0.8160           3
      44      11      10      41       9      0.0000      0.9200           3
      44      11      10      42       9      0.0000      0.9200           3
      44      11      12      13       9      0.0000      0.8160           3
      13      12      11      10       9      0.0000      0.2700           2
      13      12      11      10       9    180.0000      0.6260           3
      13      12      11      10       9      0.0000      0.3960           4
      13      12      11      10       9      0.0000      0.4710           5
      45      12      11      10       9      0.0000      0.8160           3
      45      12      11      43       9      0.0000      0.9200           3
      45      12      11      44       9      0.0000      0.9200           3
      45      12      13      14       9      0.0000      0.8160           3
      46      12      11      10       9      0.0000      0.8160           3
      46      12      11      43       9      0.0000      0.9200           3
      46      12      11      44       9      0.0000      0.9200           3
      46      12      13      14       9      0.0000      0.8160           3
      14      13      12      11       9      0.0000      0.2700           2
      14      13      12      11       9    180.0000      0.6260           3
      14      13      12      11       9      0.0000      0.3960           4
      14      13      12      11       9      0.0000      0.4710           5
      47      13      12      11       9      0.0000      0.8160           3
      47      13      12      45       9      0.0000      0.9200           3
      47      13      12      46       9      0.0000      0.9200           3
      47      13      14      15       9      0.0000      0.8160           3
      48      13      12      11       9      0.0000      0.8160           3
      48      13      12      45       9      0.0000      0.9200           3
      48      13      12      46       9      0.0000      0.9200           3
      48      13      14      15       9      0.0000      0.8160           3
      15      14      13      12       9      0.0000      0.2700           2
      15      14      13      12       9    180.0000      0.6260           3
      15      14      13      12       9      0.0000      0.3960           4
      15      14      13      12       9      0.0000      0.4710           5
      49      14      13      12       9      0.0000      0.8160           3
      49      14      13      47       9      0.0000      0.9200           3
      49      14      13      48       9      0.0000      0.9200           3
      49      14      15      16       9      0.0000      0.8160           3
      50      14      13      12       9      0.0000      0.8160           3
      50      14      13      47       9      0.0000      0.9200           3
      50      14      13      48       9      0.0000      0.9200           3
      50      14      15      16       9      0.0000      0.8160           3
      16      15      14      13       9      0.0000      0.2700           2
      16      15      14      13       9    180.0000      0.6260           3
      16      15      14      13       9      0.0000      0.3960           4
      16      15      14      13       9      0.0000      0.4710           5
      51      15      14      13       9      0.0000      0.8160           3
      51      15      14      49       9      0.0000      0.9200           3
      51      15      14      50       9      0.0000      0.9200           3
      51      15      16      17       9      0.0000      0.8160           3
      52      15      14      13       9      0.0000      0.8160           3
      52      15      14      49       9      0.0000      0.9200           3
      52      15      14      50       9      0.0000      0.9200           3
      52      15      16      17       9      0.0000      0.8160           3
      17      16      15      14       9      0.0000      0.2700           2
      17      16      15      14       9    180.0000      0.6260           3
      17      16      15      14       9      0.0000      0.3960           4
      17      16      15      14       9      0.0000      0.4710           5
      53      16      15      14       9      0.0000      0.8160           3
      53      16      15      51       9      0.0000      0.9200           3
      53      16      15      52       9      0.0000      0.9200           3
      53      16      17      18       9      0.0000      0.8160           3
      54      16      15      14       9      0.0000      0.8160           3
      54      16      15      51       9      0.0000      0.9200           3
      54      16      15      52       9      0.0000      0.9200           3
      54      16      17      18       9      0.0000      0.8160           3
      18      17      16      15       9      0.0000      0.2700           2
      18      17      16      15       9    180.0000      0.6260           3
      18      17      16      15       9      0.0000      0.3960           4
      18      17      16      15       9      0.0000      0.4710           5
      55      17      16      15       9      0.0000      0.8160           3
      55      17      16      53       9      0.0000      0.9200           3
      55      17      16      54       9      0.0000      0.9200           3
      55      17      18      19       9      0.0000      0.8160           3
      56      17      16      15       9      0.0000      0.8160           3
      56      17      16      53       9      0.0000      0.9200           3
      56      17      16      54       9      0.0000      0.9200           3
      56      17      18      19       9      0.0000      0.8160           3
      19      18      17      16       9      0.0000      0.2700           2
      19      18      17      16       9    180.0000      0.6260           3
      19      18      17      16       9      0.0000      0.3960           4
      19      18      17      16       9      0.0000      0.4710           5
      57      18      17      16       9      0.0000      0.8160           3
      57      18      17      55       9      0.0000      0.9200           3
      57      18      17      56       9      0.0000      0.9200           3
      57      18      19      20       9      0.0000      0.8160           3
      58      18      17      16       9      0.0000      0.8160           3
      58      18      17      55       9      0.0000      0.9200           3
      58      18      17      56       9      0.0000      0.9200           3
      58      18      19      20       9      0.0000      0.8160           3
      20      19      18      17       9      0.0000      0.2700           2
      20      19      18      17       9    180.0000      0.6260           3
      20      19      18      17       9      0.0000      0.3960           4
      20      19      18      17       9      0.0000      0.4710           5
      59      19      18      17       9      0.0000      0.8160           3
      59      19      18      57       9      0.0000      0.9200           3
      59      19      18      58       9      0.0000      0.9200           3
      59      19      20      21       9      0.0000      0.7530           3
      60      19      18      17       9      0.0000      0.8160           3
      60      19      18      57       9      0.0000      0.9200           3
      60      19      18      58       9      0.0000      0.9200           3
      60      19      20      21       9      0.0000      0.7530           3
      21      20      19      18       9      0.0000      0.6300           2
      21      20      19      18       9    180.0000      0.3400           3
      21      20      19      18       9      0.0000      0.4530           4
      21      20      19      18       9      0.0000      0.8530           5
      61      20      19      18       9      0.0000      0.8160           3
      61      20      19      59       9      0.0000      0.9200           3
      61      20      19      60       9      0.0000      0.9200           3
      62      20      19      18       9      0.0000      0.8160           3
      62      20      19      59       9      0.0000      0.9200           3
      62      20      19      60       9      0.0000      0.9200           3
      63      21      20      19       9      0.0000      0.6690           3
      63      21      20      61       9      0.0000      0.6690           3
      63      21      20      62       9      0.0000      0.6690           3
      64      21      20      19       9      0.0000      0.6690           3
      64      21      20      61       9      0.0000      0.6690           3
      64      21      20      62       9      0.0000      0.6690           3
      65      21      20      19       9      0.0000      0.6690           3
      65      21      20      61       9      0.0000      0.6690           3
      65      21      20      62       9      0.0000      0.6690           3
       4      22       1       2       9      0.0000      1.6740           1
       4      22       1       2       9      0.0000      2.0500           3
       4      22       1       3       9      0.0000      1.6740           1
       4      22       1       3       9      0.0000      2.0500           3
      73      66      72      67       9    180.0000     16.7360           2
      76      67      74      73       9    180.0000     50.2070           2
      76      67      74      75       9    180.0000     10.4600           2
      74      67      72      66       9    180.0000      7.6230           2
      89      68      69      70       9    180.0000     39.7470           2
     108      69      68      89       9    180.0000      9.6230           2
     108      69      70      71       9    180.0000     10.4600           2
      71      70      69      68       9    180.0000     45.6710           2
      70      71      89      68       9    180.0000     52.5130           2
      89      71      70      69       9    180.0000     58.5750           2
      90      72      66      73       9    180.0000     20.5760           2
      90      72      67      76       9    180.0000     10.4600           2
      90      72      67      74       9    180.0000      7.6230           2
      74      73      66      72       9    180.0000     58.5750           2
      95      73      66      72       9    180.0000      3.7930           2
      95      73      74      67       9    180.0000     10.4600           2
      95      73      74      75       9    180.0000      0.0000           2
      73      74      67      72       9    180.0000     50.2070           2
      67      74      73      66       9    180.0000     12.5520           2
      75      74      73      66       9    180.0000     12.5520           2
      75      74      67      72       9    180.0000     10.4600           2
      74      75      94       1       9      0.0000      1.0040           1
      74      75      94       1       9      0.0000      1.2130           2
      74      75      94       1       9      0.0000      0.0840           3
      94      75      74      73       9      0.0000      0.1260           1
      94      75      74      73       9      0.0000      2.3010           2
      94      75      74      73       9    180.0000      1.6320           3
      94      75      74      67       9      0.0000      0.7950           3
      96      75      74      73       9      0.0000      0.0000           3
      96      75      74      67       9      0.0000      0.7950           3
      96      75      94       1       9      0.0000      0.3970           3
      97      75      74      73       9      0.0000      0.0000           3
      97      75      74      67       9      0.0000      0.7950           3
      97      75      94       1       9      0.0000      0.3970           3
      98      76      67      72       9      0.0000      0.6280           3
      98      76      67      74       9      0.0000      0.6280           3
      98      76      80      79       9      0.0000      0.0000           2
      98      76      80      81       9      0.0000      0.0000           2
      99      76      67      72       9      0.0000      0.6280           3
      99      76      67      74       9      0.0000      0.6280           3
      99      76      80      79       9      0.0000      0.0000           2
      99      76      80      81       9      0.0000      0.0000           2
      82      77      78      79       9    180.0000     12.9700           2
      83      77      78      79       9    180.0000     12.9700           2
      83      77      82      81       9    180.0000     12.9700           2
     100      78      77      82       9    180.0000     17.5720           2
     100      78      77      83       9    180.0000     17.5720           2
     100      78      79      80       9    180.0000     17.5720           2
      78      79      80      76       9    180.0000     12.9700           2
      80      79      78      77       9    180.0000     12.9700           2
     101      79      78      77       9    180.0000     17.5720           2
     101      79      78     100       9    180.0000     10.0410           2
     101      79      80      76       9    180.0000     10.0410           2
     101      79      80      81       9    180.0000     17.5720           2
      79      80      76      67       9    180.0000      0.6280           2
      81      80      76      67       9    180.0000      0.6280           2
      81      80      79      78       9    180.0000     12.9700           2
      80      81      82      77       9    180.0000     12.9700           2
      82      81      80      76       9    180.0000     12.9700           2
      82      81      80      79       9    180.0000     12.9700           2
     102      81      80      76       9    180.0000     10.0410           2
     102      81      80      79       9    180.0000     17.5720           2
     102      81      82      77       9    180.0000     17.5720           2
      81      82      77      78       9    180.0000     12.9700           2
     103      82      77      78       9    180.0000     17.5720           2
     103      82      77      83       9    180.0000     17.5720           2
     103      82      81      80       9    180.0000     17.5720           2
     103      82      81     102       9    180.0000     10.0410           2
      84      83      77      78       9    180.0000      3.7240           2
      84      83      77      82       9    180.0000      3.7240           2
      88      83      77      78       9    180.0000      3.7240           2
      88      83      77      82       9    180.0000      3.7240           2
      88      83      84      85       9    180.0000     12.9700           2
      83      84      89      68       9    180.0000      3.7240           2
      83      84      89      68       9      0.0000      0.4180           4
      83      84      89      71       9    180.0000      3.7240           2
      83      84      89      71       9      0.0000      0.4180           4
      85      84      83      77       9    180.0000     12.9700           2
      85      84      89      68       9    180.0000      3.7240           2
      85      84      89      68       9      0.0000      0.4180           4
      85      84      89      71       9    180.0000      3.7240           2
      85      84      89      71       9      0.0000      0.4180           4
      89      84      83      77       9    180.0000      8.2490           2
      89      84      83      77       9    180.0000      0.0690           4
      89      84      83      88       9    180.0000      8.2490           2
      89      84      83      88       9    180.0000      0.0690           4
      89      84      85      86       9    180.0000      8.2490           2
      89      84      85      86       9    180.0000      0.0690           4
      86      85      84      83       9    180.0000     12.9700           2
     104      85      84      83       9    180.0000     17.5720           2
     104      85      84      89       9    180.0000      8.3680           2
     104      85      86      87       9    180.0000     17.5720           2
      87      86      85      84       9    180.0000     12.9700           2
     105      86      85      84       9    180.0000     17.5720           2
     105      86      85     104       9    180.0000     10.0410           2
     105      86      87      88       9    180.0000     17.5720           2
      86      87      88      83       9    180.0000     12.9700           2
      88      87      86      85       9    180.0000     12.9700           2
     106      87      86      85       9    180.0000     17.5720           2
     106      87      86     105       9    180.0000     10.0410           2
     106      87      88      83       9    180.0000     17.5720           2
      87      88      83      77       9    180.0000     12.9700           2
      87      88      83      84       9    180.0000     12.9700           2
     107      88      83      77       9    180.0000     17.5720           2
     107      88      83      84       9    180.0000     17.5720           2
     107      88      87      86       9    180.0000     17.5720           2
     107      88      87     106       9    180.0000     10.0410           2
      71      89      68      69       9    180.0000     50.2070           2
      84      89      68      69       9    180.0000     16.7360           2
      84      89      71      70       9    180.0000     16.7360           2
      91      90      72      66       9    180.0000      1.5220           1
      91      90      72      66       9      0.0000      0.0620           2
      91      90      72      66       9    180.0000      1.1890           3
      91      90      72      66       9      0.0000      0.1230           6
      91      90      72      67       9    180.0000      0.1230           2
      91      90      72      67       9      0.0000      0.7950           3
     109      90      72      66       9      0.0000      0.7950           3
     109      90      72      67       9      0.0000      1.4150           3
     109      90      91      92       9      0.0000      0.8160           3
     110      90      72      66       9      0.0000      0.7950           3
     110      90      72      67       9      0.0000      1.4150           3
     110      90      91      92       9      0.0000      0.8160           3
      92      91      90      72       9      0.0000      0.1670           3
     111      91      90      72       9      0.0000      0.8370           3
     111      91      90     109       9      0.0000      0.9200           3
     111      91      90     110       9      0.0000      0.9200           3
     111      91      92      93       9      0.0000      0.7530           3
     112      91      90      72       9      0.0000      0.8370           3
     112      91      90     109       9      0.0000      0.9200           3
     112      91      90     110       9      0.0000      0.9200           3
     112      91      92      93       9      0.0000      0.7530           3
      93      92      91      90       9      0.0000      0.6300           2
      93      92      91      90       9    180.0000      0.3400           3
      93      92      91      90       9      0.0000      0.4530           4
      93      92      91      90       9      0.0000      0.8530           5
     113      92      91      90       9      0.0000      0.8160           3
     113      92      91     111       9      0.0000      0.9200           3
     113      92      91     112       9      0.0000      0.9200           3
     114      92      91      90       9      0.0000      0.8160           3
     114      92      91     111       9      0.0000      0.9200           3
     114      92      91     112       9      0.0000      0.9200           3
     115      93      92      91       9      0.0000      0.6690           3
     115      93      92     113       9      0.0000      0.6690           3
     115      93      92     114       9      0.0000      0.6690           3
     116      93      92      91       9      0.0000      0.6690           3
     116      93      92     113       9      0.0000      0.6690           3
     116      93      92     114       9      0.0000      0.6690           3
     117      93      92      91       9      0.0000      0.6690           3
     117      93      92     113       9      0.0000      0.6690           3
     117      93      92     114       9      0.0000      0.6690           3
      75      94       1       2       9      0.0000      1.6740           1
      75      94       1       2       9      0.0000      2.0500           3
      75      94       1       3       9      0.0000      1.6740           1
      75      94       1       3       9      0.0000      2.0500           3
      75      94       1      22       9      0.0000      2.1340           1
      75      94       1      22       9      0.0000      2.8030           2
      75      94       1      22       9      0.0000      1.0880           3
      76      67      72      66       9      0.0000      0.0000           1 ; no dihedral parameters found and use zero coefficient
      80      76      67      72       9      0.0000      0.0000           1 ; no dihedral parameters found and use zero coefficient
      80      76      67      74       9      0.0000      0.0000           1 ; no dihedral parameters found and use zero coefficient

[ dihedrals ]
; IMPROPER DIHEDRAL ANGLES
; atom_i  atom_j  atom_k  atom_l  functype     c0          c1          c2          c3          c4          c5
      74      73      67      75       2      0.0000    443.4940
      78      77      79     100       2      0.0000    251.0340
      79      78      80     101       2      0.0000    251.0340
      81      80      82     102       2      0.0000    251.0340
      82      77      81     103       2      0.0000    251.0340
      85      84      86     104       2      0.0000    251.0340
      86      85      87     105       2      0.0000    251.0340
      87      86      88     106       2      0.0000    251.0340
      88      83      87     107       2      0.0000    251.0340
      89      68      71      84       2      0.0000    251.0340

; sigma_14 and epsilon_14 et.al here are calculated according to the mixing rules defined by force fields.
; These parameters are commented out by default because the 'gen-pairs' is set to yes in the [ defaults ] directive.
; If you want to risk mixing this toplogy file with other forcefields which has a different 1-4 scale factor, 
; you can remove these comments and set 'gen-pairs' in [ defaults ] directive to no.
[ pairs ]
; atom_i  atom_j  functype
      94      23       1  ;      94      23       1    0.149500    0.204968
      94      24       1  ;      94      24       1    0.149500    0.204968
      94      25       1  ;      94      25       1    0.149500    0.204968
      94      26       1  ;      94      26       1    0.149500    0.204968
      94      27       1  ;      94      27       1    0.149500    0.204968
      94      28       1  ;      94      28       1    0.149500    0.204968
      94       4       1  ;      94       4       1    0.183000    0.313094
      23       3       1  ;      23       3       1    0.169500    0.181023
      23      22       1  ;      23      22       1    0.149500    0.204968
      24       3       1  ;      24       3       1    0.169500    0.181023
      24      22       1  ;      24      22       1    0.149500    0.204968
      25       3       1  ;      25       3       1    0.169500    0.181023
      25      22       1  ;      25      22       1    0.149500    0.204968
      26       2       1  ;      26       2       1    0.169500    0.181023
      26      22       1  ;      26      22       1    0.149500    0.204968
      27       2       1  ;      27       2       1    0.169500    0.181023
      27      22       1  ;      27      22       1    0.149500    0.204968
      28       2       1  ;      28       2       1    0.169500    0.181023
      28      22       1  ;      28      22       1    0.149500    0.204968
       5       1       1  ;       5       1       1    0.200500    0.177113
      29       6       1  ;      29       6       1    0.167500    0.185229
      29       1       1  ;      29       1       1    0.167000    0.140020
      30       6       1  ;      30       6       1    0.167500    0.185229
      30       1       1  ;      30       1       1    0.167000    0.140020
      22       6       1  ;      22       6       1    0.183000    0.313094
      31      29       1  ;      31      29       1    0.134000    0.146436
      31      30       1  ;      31      30       1    0.134000    0.146436
      31      22       1  ;      31      22       1    0.149500    0.247523
      31       7       1  ;      31       7       1    0.167500    0.185229
      32      29       1  ;      32      29       1    0.134000    0.146436
      32      30       1  ;      32      30       1    0.134000    0.146436
      32      22       1  ;      32      22       1    0.149500    0.247523
      32       7       1  ;      32       7       1    0.167500    0.185229
       7       4       1  ;       7       4       1    0.201000    0.234298
      33       4       1  ;      33       4       1    0.167500    0.185229
      33      31       1  ;      33      31       1    0.134000    0.146436
      33      32       1  ;      33      32       1    0.134000    0.146436
      33       8       1  ;      33       8       1    0.167500    0.185229
      34       4       1  ;      34       4       1    0.167500    0.185229
      34      31       1  ;      34      31       1    0.134000    0.146436
      34      32       1  ;      34      32       1    0.134000    0.146436
      34       8       1  ;      34       8       1    0.167500    0.185229
       8       5       1  ;       8       5       1    0.201000    0.234298
      35       5       1  ;      35       5       1    0.167500    0.185229
      35      33       1  ;      35      33       1    0.134000    0.146436
      35      34       1  ;      35      34       1    0.134000    0.146436
      35       9       1  ;      35       9       1    0.167500    0.185229
      36       5       1  ;      36       5       1    0.167500    0.185229
      36      33       1  ;      36      33       1    0.134000    0.146436
      36      34       1  ;      36      34       1    0.134000    0.146436
      36       9       1  ;      36       9       1    0.167500    0.185229
       9       6       1  ;       9       6       1    0.201000    0.234298
      37       6       1  ;      37       6       1    0.167500    0.185229
      37      35       1  ;      37      35       1    0.134000    0.146436
      37      36       1  ;      37      36       1    0.134000    0.146436
      37      10       1  ;      37      10       1    0.167500    0.185229
      38       6       1  ;      38       6       1    0.167500    0.185229
      38      35       1  ;      38      35       1    0.134000    0.146436
      38      36       1  ;      38      36       1    0.134000    0.146436
      38      10       1  ;      38      10       1    0.167500    0.185229
      10       7       1  ;      10       7       1    0.201000    0.234298
      39       7       1  ;      39       7       1    0.167500    0.185229
      39      37       1  ;      39      37       1    0.134000    0.146436
      39      38       1  ;      39      38       1    0.134000    0.146436
      39      11       1  ;      39      11       1    0.167500    0.185229
      40       7       1  ;      40       7       1    0.167500    0.185229
      40      37       1  ;      40      37       1    0.134000    0.146436
      40      38       1  ;      40      38       1    0.134000    0.146436
      40      11       1  ;      40      11       1    0.167500    0.185229
      11       8       1  ;      11       8       1    0.201000    0.234298
      41       8       1  ;      41       8       1    0.167500    0.185229
      41      39       1  ;      41      39       1    0.134000    0.146436
      41      40       1  ;      41      40       1    0.134000    0.146436
      41      12       1  ;      41      12       1    0.167500    0.185229
      42       8       1  ;      42       8       1    0.167500    0.185229
      42      39       1  ;      42      39       1    0.134000    0.146436
      42      40       1  ;      42      40       1    0.134000    0.146436
      42      12       1  ;      42      12       1    0.167500    0.185229
      12       9       1  ;      12       9       1    0.201000    0.234298
      43       9       1  ;      43       9       1    0.167500    0.185229
      43      41       1  ;      43      41       1    0.134000    0.146436
      43      42       1  ;      43      42       1    0.134000    0.146436
      43      13       1  ;      43      13       1    0.167500    0.185229
      44       9       1  ;      44       9       1    0.167500    0.185229
      44      41       1  ;      44      41       1    0.134000    0.146436
      44      42       1  ;      44      42       1    0.134000    0.146436
      44      13       1  ;      44      13       1    0.167500    0.185229
      13      10       1  ;      13      10       1    0.201000    0.234298
      45      10       1  ;      45      10       1    0.167500    0.185229
      45      43       1  ;      45      43       1    0.134000    0.146436
      45      44       1  ;      45      44       1    0.134000    0.146436
      45      14       1  ;      45      14       1    0.167500    0.185229
      46      10       1  ;      46      10       1    0.167500    0.185229
      46      43       1  ;      46      43       1    0.134000    0.146436
      46      44       1  ;      46      44       1    0.134000    0.146436
      46      14       1  ;      46      14       1    0.167500    0.185229
      14      11       1  ;      14      11       1    0.201000    0.234298
      47      11       1  ;      47      11       1    0.167500    0.185229
      47      45       1  ;      47      45       1    0.134000    0.146436
      47      46       1  ;      47      46       1    0.134000    0.146436
      47      15       1  ;      47      15       1    0.167500    0.185229
      48      11       1  ;      48      11       1    0.167500    0.185229
      48      45       1  ;      48      45       1    0.134000    0.146436
      48      46       1  ;      48      46       1    0.134000    0.146436
      48      15       1  ;      48      15       1    0.167500    0.185229
      15      12       1  ;      15      12       1    0.201000    0.234298
      49      12       1  ;      49      12       1    0.167500    0.185229
      49      47       1  ;      49      47       1    0.134000    0.146436
      49      48       1  ;      49      48       1    0.134000    0.146436
      49      16       1  ;      49      16       1    0.167500    0.185229
      50      12       1  ;      50      12       1    0.167500    0.185229
      50      47       1  ;      50      47       1    0.134000    0.146436
      50      48       1  ;      50      48       1    0.134000    0.146436
      50      16       1  ;      50      16       1    0.167500    0.185229
      16      13       1  ;      16      13       1    0.201000    0.234298
      51      13       1  ;      51      13       1    0.167500    0.185229
      51      49       1  ;      51      49       1    0.134000    0.146436
      51      50       1  ;      51      50       1    0.134000    0.146436
      51      17       1  ;      51      17       1    0.167500    0.185229
      52      13       1  ;      52      13       1    0.167500    0.185229
      52      49       1  ;      52      49       1    0.134000    0.146436
      52      50       1  ;      52      50       1    0.134000    0.146436
      52      17       1  ;      52      17       1    0.167500    0.185229
      17      14       1  ;      17      14       1    0.201000    0.234298
      53      14       1  ;      53      14       1    0.167500    0.185229
      53      51       1  ;      53      51       1    0.134000    0.146436
      53      52       1  ;      53      52       1    0.134000    0.146436
      53      18       1  ;      53      18       1    0.167500    0.185229
      54      14       1  ;      54      14       1    0.167500    0.185229
      54      51       1  ;      54      51       1    0.134000    0.146436
      54      52       1  ;      54      52       1    0.134000    0.146436
      54      18       1  ;      54      18       1    0.167500    0.185229
      18      15       1  ;      18      15       1    0.201000    0.234298
      55      15       1  ;      55      15       1    0.167500    0.185229
      55      53       1  ;      55      53       1    0.134000    0.146436
      55      54       1  ;      55      54       1    0.134000    0.146436
      55      19       1  ;      55      19       1    0.167500    0.185229
      56      15       1  ;      56      15       1    0.167500    0.185229
      56      53       1  ;      56      53       1    0.134000    0.146436
      56      54       1  ;      56      54       1    0.134000    0.146436
      56      19       1  ;      56      19       1    0.167500    0.185229
      19      16       1  ;      19      16       1    0.201000    0.234298
      57      16       1  ;      57      16       1    0.167500    0.185229
      57      55       1  ;      57      55       1    0.134000    0.146436
      57      56       1  ;      57      56       1    0.134000    0.146436
      57      20       1  ;      57      20       1    0.167500    0.185229
      58      16       1  ;      58      16       1    0.167500    0.185229
      58      55       1  ;      58      55       1    0.134000    0.146436
      58      56       1  ;      58      56       1    0.134000    0.146436
      58      20       1  ;      58      20       1    0.167500    0.185229
      20      17       1  ;      20      17       1    0.201000    0.234298
      59      17       1  ;      59      17       1    0.167500    0.185229
      59      57       1  ;      59      57       1    0.134000    0.146436
      59      58       1  ;      59      58       1    0.134000    0.146436
      59      21       1  ;      59      21       1    0.169500    0.218606
      60      17       1  ;      60      17       1    0.167500    0.185229
      60      57       1  ;      60      57       1    0.134000    0.146436
      60      58       1  ;      60      58       1    0.134000    0.146436
      60      21       1  ;      60      21       1    0.169500    0.218606
      21      18       1  ;      21      18       1    0.203000    0.276517
      61      18       1  ;      61      18       1    0.167500    0.185229
      61      59       1  ;      61      59       1    0.134000    0.146436
      61      60       1  ;      61      60       1    0.134000    0.146436
      62      18       1  ;      62      18       1    0.167500    0.185229
      62      59       1  ;      62      59       1    0.134000    0.146436
      62      60       1  ;      62      60       1    0.134000    0.146436
      63      19       1  ;      63      19       1    0.167500    0.153384
      63      61       1  ;      63      61       1    0.134000    0.121261
      63      62       1  ;      63      62       1    0.134000    0.121261
      64      19       1  ;      64      19       1    0.167500    0.153384
      64      61       1  ;      64      61       1    0.134000    0.121261
      64      62       1  ;      64      62       1    0.134000    0.121261
      65      19       1  ;      65      19       1    0.167500    0.153384
      65      61       1  ;      65      61       1    0.134000    0.121261
      65      62       1  ;      65      62       1    0.134000    0.121261
       4       2       1  ;       4       2       1    0.203000    0.276517
       4       3       1  ;       4       3       1    0.203000    0.276517
      76      73       1  ;      76      73       1    0.213750    0.219406
      76      75       1  ;      76      75       1    0.209250    0.232197
     108      89       1  ;     108      89       1    0.115750    0.233999
     108      71       1  ;     108      71       1    0.103750    0.401306
      90      73       1  ;      90      73       1    0.205500    0.221391
      90      76       1  ;      90      76       1    0.209250    0.232197
      90      74       1  ;      90      74       1    0.205500    0.221391
      95      72       1  ;      95      72       1    0.203000    0.283766
      95      67       1  ;      95      67       1    0.185500    0.897347
      95      75       1  ;      95      75       1    0.193500    0.474831
      75      66       1  ;      75      66       1    0.193000    0.442782
      75      72       1  ;      75      72       1    0.210500    0.140020
      74       1       1  ;      74       1       1    0.205000    0.167356
      94      73       1  ;      94      73       1    0.187500    0.295846
      94      67       1  ;      94      67       1    0.175000    0.591693
      96      73       1  ;      96      73       1    0.172000    0.175025
      96      67       1  ;      96      67       1    0.159500    0.350050
      96       1       1  ;      96       1       1    0.167000    0.140020
      97      73       1  ;      97      73       1    0.172000    0.175025
      97      67       1  ;      97      67       1    0.159500    0.350050
      97       1       1  ;      97       1       1    0.167000    0.140020
      98      72       1  ;      98      72       1    0.177000    0.110696
      98      74       1  ;      98      74       1    0.172000    0.175025
      98      79       1  ;      98      79       1    0.166600    0.207092
      98      81       1  ;      98      81       1    0.166600    0.207092
      99      72       1  ;      99      72       1    0.177000    0.110696
      99      74       1  ;      99      74       1    0.172000    0.175025
      99      79       1  ;      99      79       1    0.166600    0.207092
      99      81       1  ;      99      81       1    0.166600    0.207092
      82      79       1  ;      82      79       1    0.199200    0.292873
      83      79       1  ;      83      79       1    0.199200    0.292873
      83      81       1  ;      83      81       1    0.199200    0.292873
     100      82       1  ;     100      82       1    0.167500    0.191730
     100      83       1  ;     100      83       1    0.167500    0.191730
     100      80       1  ;     100      80       1    0.167500    0.191730
      78      76       1  ;      78      76       1    0.208350    0.259604
      80      77       1  ;      80      77       1    0.199200    0.292873
     101      77       1  ;     101      77       1    0.167500    0.191730
     101     100       1  ;     101     100       1    0.135800    0.125517
     101      76       1  ;     101      76       1    0.176650    0.169951
     101      81       1  ;     101      81       1    0.167500    0.191730
      79      67       1  ;      79      67       1    0.192100    0.495046
      81      67       1  ;      81      67       1    0.192100    0.495046
      81      78       1  ;      81      78       1    0.199200    0.292873
      82      76       1  ;      82      76       1    0.208350    0.259604
     102      76       1  ;     102      76       1    0.176650    0.169951
     102      79       1  ;     102      79       1    0.167500    0.191730
     102      77       1  ;     102      77       1    0.167500    0.191730
     103      78       1  ;     103      78       1    0.167500    0.191730
     103      83       1  ;     103      83       1    0.167500    0.191730
     103      80       1  ;     103      80       1    0.167500    0.191730
     103     102       1  ;     103     102       1    0.135800    0.125517
      84      78       1  ;      84      78       1    0.199200    0.292873
      84      82       1  ;      84      82       1    0.199200    0.292873
      88      78       1  ;      88      78       1    0.199200    0.292873
      88      82       1  ;      88      82       1    0.199200    0.292873
      88      85       1  ;      88      85       1    0.199200    0.292873
      83      68       1  ;      83      68       1    0.192100    0.495046
      83      71       1  ;      83      71       1    0.192100    0.495046
      85      77       1  ;      85      77       1    0.199200    0.292873
      85      68       1  ;      85      68       1    0.192100    0.495046
      85      71       1  ;      85      71       1    0.192100    0.495046
      89      77       1  ;      89      77       1    0.204100    0.288659
      89      88       1  ;      89      88       1    0.204100    0.288659
      89      86       1  ;      89      86       1    0.204100    0.288659
      86      83       1  ;      86      83       1    0.199200    0.292873
     104      83       1  ;     104      83       1    0.167500    0.191730
     104      89       1  ;     104      89       1    0.172400    0.188972
     104      87       1  ;     104      87       1    0.167500    0.191730
      87      84       1  ;      87      84       1    0.199200    0.292873
     105      84       1  ;     105      84       1    0.167500    0.191730
     105     104       1  ;     105     104       1    0.135800    0.125517
     105      88       1  ;     105      88       1    0.167500    0.191730
     106      85       1  ;     106      85       1    0.167500    0.191730
     106     105       1  ;     106     105       1    0.135800    0.125517
     106      83       1  ;     106      83       1    0.167500    0.191730
      87      77       1  ;      87      77       1    0.199200    0.292873
     107      77       1  ;     107      77       1    0.167500    0.191730
     107      84       1  ;     107      84       1    0.167500    0.191730
     107      86       1  ;     107      86       1    0.167500    0.191730
     107     106       1  ;     107     106       1    0.135800    0.125517
      84      69       1  ;      84      69       1    0.192100    0.495046
      84      70       1  ;      84      70       1    0.192100    0.495046
      91      66       1  ;      91      66       1    0.193000    0.442782
      91      67       1  ;      91      67       1    0.193000    0.442782
     109      66       1  ;     109      66       1    0.159500    0.350050
     109      67       1  ;     109      67       1    0.159500    0.350050
     109      92       1  ;     109      92       1    0.167500    0.185229
     110      66       1  ;     110      66       1    0.159500    0.350050
     110      67       1  ;     110      67       1    0.159500    0.350050
     110      92       1  ;     110      92       1    0.167500    0.185229
      92      72       1  ;      92      72       1    0.210500    0.140020
     111      72       1  ;     111      72       1    0.177000    0.110696
     111     109       1  ;     111     109       1    0.134000    0.146436
     111     110       1  ;     111     110       1    0.134000    0.146436
     111      93       1  ;     111      93       1    0.169500    0.218606
     112      72       1  ;     112      72       1    0.177000    0.110696
     112     109       1  ;     112     109       1    0.134000    0.146436
     112     110       1  ;     112     110       1    0.134000    0.146436
     112      93       1  ;     112      93       1    0.169500    0.218606
      93      90       1  ;      93      90       1    0.203000    0.276517
     113      90       1  ;     113      90       1    0.167500    0.185229
     113     111       1  ;     113     111       1    0.134000    0.146436
     113     112       1  ;     113     112       1    0.134000    0.146436
     114      90       1  ;     114      90       1    0.167500    0.185229
     114     111       1  ;     114     111       1    0.134000    0.146436
     114     112       1  ;     114     112       1    0.134000    0.146436
     115      91       1  ;     115      91       1    0.167500    0.153384
     115     113       1  ;     115     113       1    0.134000    0.121261
     115     114       1  ;     115     114       1    0.134000    0.121261
     116      91       1  ;     116      91       1    0.167500    0.153384
     116     113       1  ;     116     113       1    0.134000    0.121261
     116     114       1  ;     116     114       1    0.134000    0.121261
     117      91       1  ;     117      91       1    0.167500    0.153384
     117     113       1  ;     117     113       1    0.134000    0.121261
     117     114       1  ;     117     114       1    0.134000    0.121261
      75       2       1  ;      75       2       1    0.203000    0.276517
      75       3       1  ;      75       3       1    0.203000    0.276517
      75      22       1  ;      75      22       1    0.183000    0.313094
      76      66       1  ;      76      66       1    0.201250    0.438811
      80      72       1  ;      80      72       1    0.209600    0.156547
      80      74       1  ;      80      74       1    0.204600    0.247523

[ dihedral_restraints ]
; atom_i  atom_j  atom_k  atom_l  functype     phi     dphi   kfac
      76      67      72      66       1     179.9387       0     500
      80      76      67      72       1      51.4943       0     500
      80      76      67      74       1    -128.5803       0     500
