; Created by cgenff_charmm2gmx.py

[ moleculetype ]
; Name			   nrexcl
PTX				 3

[ atoms ]
;	 nr		  type	resnr residue  atom   cgnr	   charge		mass  typeB    chargeB		massB
; residue	 1 PTX rtp PTX q	qsum
     1      CG331      1    PTL     C1      1     -0.060     12.011   ;
     2      CG301      1    PTL     C2      2      0.019     12.011   ;
     3      CG331      1    PTL     C3      3     -0.259     12.011   ;
     4      CG321      1    PTL     C4      4      0.064     12.011   ;
     5      OG301      1    PTL     O1      5     -0.344     15.999   ;
     6      BRGA1      1    PTL     Br      6     -0.151     79.904   ;
     7       HGA3      1    PTL     H1      7      0.090      1.008   ;
     8       HGA3      1    PTL     H2      8      0.090      1.008   ;
     9       HGA3      1    PTL     H3      9      0.090      1.008   ;
    10       HGA3      1    PTL     H4     10      0.090      1.008   ;
    11       HGA3      1    PTL     H5     11      0.090      1.008   ;
    12       HGA3      1    PTL     H6     12      0.090      1.008   ;
    13       HGA2      1    PTL     H7     13      0.140      1.008   ;
    14       HGA2      1    PTL     H8     14      0.140      1.008   ;
    15      NG2S1      1    PTX      N     15     -0.404     14.007   ;
    16      CG311      1    PTX     C5     16      0.213     12.011   ;
    17      CG2O2      1    PTX     C6     17      0.850     12.011   ;
    18      CG311      1    PTX     C7     18      0.272     12.011   ;
    19      CG321      1    PTX     C8     19     -0.212     12.011   ;
    20      CG301      1    PTX     C9     20      0.186     12.011   ;
    21      CG311      1    PTX    C10     21      0.133     12.011   ;
    22      CG2O2      1    PTX    C11     22      0.459     12.011   ;
    23     CG2R61      1    PTX    C12     23      0.086     12.011   ;
    24     CG2R61      1    PTX    C13     24     -0.110     12.011   ;
    25     CG2R61      1    PTX    C14     25     -0.114     12.011   ;
    26     CG2R61      1    PTX    C15     26     -0.115     12.011   ;
    27     CG2R61      1    PTX    C16     27     -0.114     12.011   ;
    28     CG2R61      1    PTX    C17     28     -0.110     12.011   ;
    29      CG311      1    PTX    C18     29     -0.074     12.011   ;
    30      CG301      1    PTX    C19     30      0.081     12.011   ;
    31      CG331      1    PTX    C20     31     -0.263     12.011   ;
    32      CG2O5      1    PTX    C21     32      0.297     12.011   ;
    33      CG311      1    PTX    C22     33      0.432     12.011   ;
    34      CG2O2      1    PTX    C23     34      0.834     12.011   ;
    35      CG331      1    PTX    C24     35     -0.311     12.011   ;
    36      CG2D1      1    PTX    C25     36     -0.113     12.011   ;
    37      CG2D1      1    PTX    C26     37     -0.153     12.011   ;
    38      CG331      1    PTX    C27     38     -0.265     12.011   ;
    39      CG301      1    PTX    C28     39      0.016     12.011   ;
    40      CG331      1    PTX    C29     40     -0.269     12.011   ;
    41      CG331      1    PTX    C30     41     -0.269     12.011   ;
    42      CG311      1    PTX    C31     42      0.166     12.011   ;
    43      CG321      1    PTX    C32     43     -0.201     12.011   ;
    44     CG3RC1      1    PTX    C33     44      0.015     12.011   ;
    45     CG3C41      1    PTX    C34     45     -0.106     12.011   ;
    46     CG3RC1      1    PTX    C35     46      0.366     12.011   ;
    47      CG2O2      1    PTX    C36     47      0.885     12.011   ;
    48      CG331      1    PTX    C37     48     -0.313     12.011   ;
    49      CG311      1    PTX    C38     49      0.127     12.011   ;
    50      CG2O1      1    PTX    C39     50      0.341     12.011   ;
    51     CG2R61      1    PTX    C40     51     -0.137     12.011   ;
    52     CG2R61      1    PTX    C41     52     -0.024     12.011   ;
    53     CG2R61      1    PTX    C42     53     -0.109     12.011   ;
    54     CG2R61      1    PTX    C43     54     -0.115     12.011   ;
    55     CG2R61      1    PTX    C44     55     -0.109     12.011   ;
    56     CG2R61      1    PTX    C45     56     -0.024     12.011   ;
    57     CG2R61      1    PTX    C46     57     -0.040     12.011   ;
    58     CG2R61      1    PTX    C47     58     -0.106     12.011   ;
    59     CG2R61      1    PTX    C48     59     -0.115     12.011   ;
    60     CG2R61      1    PTX    C49     60     -0.115     12.011   ;
    61     CG2R61      1    PTX    C50     61     -0.115     12.011   ;
    62     CG2R61      1    PTX    C51     62     -0.106     12.011   ;
    63      OG301      1    PTX     O2     63     -0.468     15.999   ;
    64      OG2D1      1    PTX     O3     64     -0.623     15.999   ;
    65      OG302      1    PTX     O4     65     -0.432     15.999   ;
    66      OG311      1    PTX     O5     66     -0.460     15.999   ;
    67      OG302      1    PTX     O6     67     -0.310     15.999   ;
    68      OG2D1      1    PTX     O7     68     -0.496     15.999   ;
    69      OG2D3      1    PTX     O8     69     -0.515     15.999   ;
    70      OG302      1    PTX     O9     70     -0.427     15.999   ;
    71      OG2D1      1    PTX    O10     71     -0.625     15.999   ;
    72      OG311      1    PTX    O11     72     -0.642     15.999   ;
    73     OG3C51      1    PTX    O12     73     -0.343     15.999   ;
    74      OG302      1    PTX    O13     74     -0.422     15.999   ;
    75      OG2D1      1    PTX    O14     75     -0.617     15.999   ;
    76      OG2D1      1    PTX    O15     76     -0.458     15.999   ;
    77       HGA1      1    PTX     H9     77      0.090      1.008   ;
    78       HGA1      1    PTX    H10     78      0.090      1.008   ;
    79       HGA2      1    PTX    H11     79      0.090      1.008   ;
    80       HGA2      1    PTX    H12     80      0.090      1.008   ;
    81       HGP1      1    PTX    H13     81      0.292      1.008   ;
    82       HGA1      1    PTX    H14     82      0.090      1.008   ;
    83      HGR61      1    PTX    H15     83      0.115      1.008   ;
    84      HGR61      1    PTX    H16     84      0.115      1.008   ;
    85      HGR61      1    PTX    H17     85      0.115      1.008   ;
    86      HGR61      1    PTX    H18     86      0.115      1.008   ;
    87      HGR61      1    PTX    H19     87      0.115      1.008   ;
    88       HGA1      1    PTX    H20     88      0.090      1.008   ;
    89       HGA3      1    PTX    H21     89      0.090      1.008   ;
    90       HGA3      1    PTX    H22     90      0.090      1.008   ;
    91       HGA3      1    PTX    H23     91      0.090      1.008   ;
    92       HGA1      1    PTX    H24     92      0.090      1.008   ;
    93       HGA3      1    PTX    H25     93      0.090      1.008   ;
    94       HGA3      1    PTX    H26     94      0.090      1.008   ;
    95       HGA3      1    PTX    H27     95      0.090      1.008   ;
    96       HGA3      1    PTX    H28     96      0.090      1.008   ;
    97       HGA3      1    PTX    H29     97      0.090      1.008   ;
    98       HGA3      1    PTX    H30     98      0.090      1.008   ;
    99       HGA3      1    PTX    H31     99      0.090      1.008   ;
   100       HGA3      1    PTX    H32    100      0.090      1.008   ;
   101       HGA3      1    PTX    H33    101      0.090      1.008   ;
   102       HGA3      1    PTX    H34    102      0.090      1.008   ;
   103       HGA3      1    PTX    H35    103      0.090      1.008   ;
   104       HGA3      1    PTX    H36    104      0.090      1.008   ;
   105       HGA1      1    PTX    H37    105      0.090      1.008   ;
   106       HGP1      1    PTX    H38    106      0.400      1.008   ;
   107       HGA2      1    PTX    H39    107      0.090      1.008   ;
   108       HGA2      1    PTX    H40    108      0.090      1.008   ;
   109       HGA1      1    PTX    H41    109      0.090      1.008   ;
   110       HGA2      1    PTX    H42    110      0.090      1.008   ;
   111       HGA2      1    PTX    H43    111      0.090      1.008   ;
   112       HGA3      1    PTX    H44    112      0.090      1.008   ;
   113       HGA3      1    PTX    H45    113      0.090      1.008   ;
   114       HGA3      1    PTX    H46    114      0.090      1.008   ;
   115       HGA1      1    PTX    H47    115      0.090      1.008   ;
   116       HGP1      1    PTX    H48    116      0.274      1.008   ;
   117      HGR61      1    PTX    H49    117      0.115      1.008   ;
   118      HGR61      1    PTX    H50    118      0.115      1.008   ;
   119      HGR61      1    PTX    H51    119      0.115      1.008   ;
   120      HGR61      1    PTX    H52    120      0.115      1.008   ;
   121      HGR61      1    PTX    H53    121      0.115      1.008   ;
   122      HGR61      1    PTX    H54    122      0.115      1.008   ;
   123      HGR61      1    PTX    H55    123      0.115      1.008   ;
   124      HGR61      1    PTX    H56    124      0.115      1.008   ;
   125      HGR61      1    PTX    H57    125      0.115      1.008   ;
   126      HGR61      1    PTX    H58    126      0.115      1.008   ;
; ;   127        LPH      1    PTX    LP1 ; ;   127      0.050      0.000   ;

[ bonds ]
;	ai	  aj funct			  c0			c1			  c2			c3
    1     5	 1 ;       CG331      OG301
    1     7	 1 ;       CG331       HGA3
    1     8	 1 ;       CG331       HGA3
    1     9	 1 ;       CG331       HGA3
    2     3	 1 ;       CG301      CG331
    2     4	 1 ;       CG301      CG321
    2    63	 1 ;       CG301      OG301
    2     5	 1 ;       CG301      OG301
    3    10	 1 ;       CG331       HGA3
    3    11	 1 ;       CG331       HGA3
    3    12	 1 ;       CG331       HGA3
    4     6	 1 ;       CG321      BRGA1
    4    13	 1 ;       CG321       HGA2
    4    14	 1 ;       CG321       HGA2
   15    50	 1 ;       NG2S1      CG2O1
   15   116	 1 ;       NG2S1       HGP1
   15    49	 1 ;       NG2S1      CG311
   16    17	 1 ;       CG311      CG2O2
   16    49	 1 ;       CG311      CG311
   16    77	 1 ;       CG311       HGA1
   16    63	 1 ;       CG311      OG301
   17    64	 1 ;       CG2O2      OG2D1
   17    65	 1 ;       CG2O2      OG302
   18    19	 1 ;       CG311      CG321
   18    37	 1 ;       CG311      CG2D1
   18    78	 1 ;       CG311       HGA1
   18    65	 1 ;       CG311      OG302
   19    20	 1 ;       CG321      CG301
   19    79	 1 ;       CG321       HGA2
   19    80	 1 ;       CG321       HGA2
   20    21	 1 ;       CG301      CG311
   20    39	 1 ;       CG301      CG301
   20    66	 1 ;       CG301      OG311
   21    29	 1 ;       CG311      CG311
   21    67	 1 ;       CG311      OG302
   21    82	 1 ;       CG311       HGA1
   22    23	 1 ;       CG2O2     CG2R61
   22    68	 1 ;       CG2O2      OG2D1
   22    67	 1 ;       CG2O2      OG302
   23    24	 1 ;      CG2R61     CG2R61
   23    28	 1 ;      CG2R61     CG2R61
   24    25	 1 ;      CG2R61     CG2R61
   24    83	 1 ;      CG2R61      HGR61
   25    26	 1 ;      CG2R61     CG2R61
   25    84	 1 ;      CG2R61      HGR61
   26    27	 1 ;      CG2R61     CG2R61
   26    85	 1 ;      CG2R61      HGR61
   27    28	 1 ;      CG2R61     CG2R61
   27    86	 1 ;      CG2R61      HGR61
   28    87	 1 ;      CG2R61      HGR61
   29    30	 1 ;       CG311      CG301
   29    46	 1 ;       CG311     CG3RC1
   29    88	 1 ;       CG311       HGA1
   30    31	 1 ;       CG301      CG331
   30    32	 1 ;       CG301      CG2O5
   30    42	 1 ;       CG301      CG311
   31    89	 1 ;       CG331       HGA3
   31    90	 1 ;       CG331       HGA3
   31    91	 1 ;       CG331       HGA3
   32    33	 1 ;       CG2O5      CG311
   32    69	 1 ;       CG2O5      OG2D3
   33    36	 1 ;       CG311      CG2D1
   33    70	 1 ;       CG311      OG302
   33    92	 1 ;       CG311       HGA1
   34    35	 1 ;       CG2O2      CG331
   34    71	 1 ;       CG2O2      OG2D1
   34    70	 1 ;       CG2O2      OG302
   35    93	 1 ;       CG331       HGA3
   35    94	 1 ;       CG331       HGA3
   35    95	 1 ;       CG331       HGA3
   36    37	 1 ;       CG2D1      CG2D1
   36    39	 1 ;       CG2D1      CG301
   37    38	 1 ;       CG2D1      CG331
   38    96	 1 ;       CG331       HGA3
   38    97	 1 ;       CG331       HGA3
   38    98	 1 ;       CG331       HGA3
   39    40	 1 ;       CG301      CG331
   39    41	 1 ;       CG301      CG331
   40    99	 1 ;       CG331       HGA3
   40   100	 1 ;       CG331       HGA3
   40   101	 1 ;       CG331       HGA3
   41   102	 1 ;       CG331       HGA3
   41   103	 1 ;       CG331       HGA3
   41   104	 1 ;       CG331       HGA3
   42    43	 1 ;       CG311      CG321
   42    72	 1 ;       CG311      OG311
   42   105	 1 ;       CG311       HGA1
   43    44	 1 ;       CG321     CG3RC1
   43   107	 1 ;       CG321       HGA2
   43   108	 1 ;       CG321       HGA2
   44    46	 1 ;      CG3RC1     CG3RC1
   44    73	 1 ;      CG3RC1     OG3C51
   44   109	 1 ;      CG3RC1       HGA1
   45    46	 1 ;      CG3C41     CG3RC1
   45   110	 1 ;      CG3C41       HGA2
   45   111	 1 ;      CG3C41       HGA2
   45    73	 1 ;      CG3C41     OG3C51
   46    74	 1 ;      CG3RC1      OG302
   47    48	 1 ;       CG2O2      CG331
   47    75	 1 ;       CG2O2      OG2D1
   47    74	 1 ;       CG2O2      OG302
   48   112	 1 ;       CG331       HGA3
   48   113	 1 ;       CG331       HGA3
   48   114	 1 ;       CG331       HGA3
   49    57	 1 ;       CG311     CG2R61
   49   115	 1 ;       CG311       HGA1
   50    51	 1 ;       CG2O1     CG2R61
   50    76	 1 ;       CG2O1      OG2D1
   51    52	 1 ;      CG2R61     CG2R61
   51    56	 1 ;      CG2R61     CG2R61
   52    53	 1 ;      CG2R61     CG2R61
   52   117	 1 ;      CG2R61      HGR61
   53    54	 1 ;      CG2R61     CG2R61
   53   118	 1 ;      CG2R61      HGR61
   54    55	 1 ;      CG2R61     CG2R61
   54   119	 1 ;      CG2R61      HGR61
   55    56	 1 ;      CG2R61     CG2R61
   55   120	 1 ;      CG2R61      HGR61
   56   121	 1 ;      CG2R61      HGR61
   57    58	 1 ;      CG2R61     CG2R61
   57    62	 1 ;      CG2R61     CG2R61
   58    59	 1 ;      CG2R61     CG2R61
   58   122	 1 ;      CG2R61      HGR61
   59    60	 1 ;      CG2R61     CG2R61
   59   123	 1 ;      CG2R61      HGR61
   60    61	 1 ;      CG2R61     CG2R61
   60   124	 1 ;      CG2R61      HGR61
   61    62	 1 ;      CG2R61     CG2R61
   61   125	 1 ;      CG2R61      HGR61
   62   126	 1 ;      CG2R61      HGR61
   66    81	 1 ;       OG311       HGP1
   72   106	 1 ;       OG311       HGP1

[ pairs ]
;	ai	  aj funct			  c0			c1			  c2			c3
    1     3	 1
    1     4	 1
    1    63	 1
    2     7	 1
    2     8	 1
    2     9	 1
    2    17	 1
    2    49	 1
    2    77	 1
    3     6	 1
;   127     3	 1
    3    13	 1
    3    14	 1
    3    16	 1
    4    10	 1
    4    11	 1
    4    12	 1
    4    16	 1
    5    10	 1
    5    11	 1
    5    12	 1
    5     6	 1
;   127     5	 1
    5    13	 1
    5    14	 1
    5    16	 1
    6    63	 1
;   127    63	 1
   10    63	 1
   11    63	 1
   12    63	 1
   13    63	 1
   14    63	 1
   15    17	 1
   15    77	 1
   15    63	 1
   15    58	 1
   15    62	 1
   15    52	 1
   15    56	 1
   16    50	 1
   16   116	 1
   16    18	 1
   16    58	 1
   16    62	 1
   17    57	 1
   17   115	 1
   17    19	 1
   17    37	 1
   17    78	 1
   18    64	 1
   18    21	 1
   18    39	 1
   18    66	 1
   18    33	 1
   18    96	 1
   18    97	 1
   18    98	 1
   19    36	 1
   19    38	 1
   19    29	 1
   19    67	 1
   19    82	 1
   19    40	 1
   19    41	 1
   19    81	 1
   20    37	 1
   20    78	 1
   20    65	 1
   20    30	 1
   20    46	 1
   20    88	 1
   20    22	 1
   20    33	 1
   20    99	 1
   20   100	 1
   20   101	 1
   20   102	 1
   20   103	 1
   20   104	 1
   21    79	 1
   21    80	 1
   21    36	 1
   21    40	 1
   21    41	 1
   21    81	 1
   21    23	 1
   21    68	 1
   21    31	 1
   21    32	 1
   21    42	 1
   21    44	 1
   21    45	 1
   21    74	 1
   22    29	 1
   22    82	 1
   22    25	 1
   22    83	 1
   22    27	 1
   22    87	 1
   23    26	 1
   23    84	 1
   23    86	 1
   24    68	 1
   24    67	 1
   24    27	 1
   24    87	 1
   24    85	 1
   25    28	 1
   25    86	 1
   26    83	 1
   26    87	 1
   27    84	 1
   28    68	 1
   28    67	 1
   28    83	 1
   28    85	 1
   29    39	 1
   29    66	 1
   29    89	 1
   29    90	 1
   29    91	 1
   29    33	 1
   29    69	 1
   29    43	 1
   29    72	 1
   29   105	 1
   29    73	 1
   29   109	 1
   29   110	 1
   29   111	 1
   29    47	 1
   30    67	 1
   30    82	 1
   30    44	 1
   30    45	 1
   30    74	 1
   30    36	 1
   30    70	 1
   30    92	 1
   30   107	 1
   30   108	 1
   30   106	 1
   31    46	 1
   31    88	 1
   31    33	 1
   31    69	 1
   31    43	 1
   31    72	 1
   31   105	 1
   32    46	 1
   32    88	 1
   32    89	 1
   32    90	 1
   32    91	 1
   32    43	 1
   32    72	 1
   32   105	 1
   32    37	 1
   32    39	 1
   32    34	 1
   33    42	 1
   33    35	 1
   33    71	 1
   33    38	 1
   33    40	 1
   33    41	 1
   34    36	 1
   34    92	 1
   36    78	 1
   36    65	 1
   36    66	 1
   36    69	 1
   36    96	 1
   36    97	 1
   36    98	 1
   36    99	 1
   36   100	 1
   36   101	 1
   36   102	 1
   36   103	 1
   36   104	 1
   37    79	 1
   37    80	 1
   37    70	 1
   37    92	 1
   37    40	 1
   37    41	 1
   38    78	 1
   38    65	 1
   38    39	 1
   39    79	 1
   39    80	 1
   39    67	 1
   39    82	 1
   39    81	 1
   39    70	 1
   39    92	 1
   40    66	 1
   40   102	 1
   40   103	 1
   40   104	 1
   41    66	 1
   41    99	 1
   41   100	 1
   41   101	 1
   42    46	 1
   42    88	 1
   42    89	 1
   42    90	 1
   42    91	 1
   42    69	 1
   42    73	 1
   42   109	 1
   43   106	 1
   43    45	 1
   43    74	 1
   44    88	 1
   44    72	 1
   44   105	 1
   44   110	 1
   44   111	 1
   44    47	 1
   45    88	 1
   45   109	 1
   45    47	 1
   46    67	 1
   46    82	 1
   46   107	 1
   46   108	 1
   46    48	 1
   46    75	 1
   49    51	 1
   49    76	 1
   49    64	 1
   49    65	 1
   49    59	 1
   49   122	 1
   49    61	 1
   49   126	 1
   50    57	 1
   50   115	 1
   50    53	 1
   50   117	 1
   50    55	 1
   50   121	 1
   51   116	 1
   51    54	 1
   51   118	 1
   51   120	 1
   52    76	 1
   52    55	 1
   52   121	 1
   52   119	 1
   53    56	 1
   53   120	 1
   54   117	 1
   54   121	 1
   55   118	 1
   56    76	 1
   56   117	 1
   56   119	 1
   57   116	 1
   57    77	 1
   57    63	 1
   57    60	 1
   57   123	 1
   57   125	 1
   58   115	 1
   58    61	 1
   58   126	 1
   58   124	 1
   59    62	 1
   59   125	 1
   60   122	 1
   60   126	 1
   61   123	 1
   62   115	 1
   62   122	 1
   62   124	 1
   63    64	 1
   63    65	 1
   63   115	 1
   64    77	 1
   65    77	 1
   65    79	 1
   65    80	 1
   66    79	 1
   66    80	 1
   66    67	 1
   66    82	 1
   67    88	 1
   69    70	 1
   69    92	 1
   70    93	 1
   70    94	 1
   70    95	 1
   71    93	 1
   71    94	 1
   71    95	 1
   72   107	 1
   72   108	 1
   73   107	 1
   73   108	 1
   73    74	 1
   74    88	 1
   74   109	 1
   74   110	 1
   74   111	 1
   74   112	 1
   74   113	 1
   74   114	 1
   75   112	 1
   75   113	 1
   75   114	 1
   76   116	 1
   77   115	 1
   78    79	 1
   78    80	 1
   82    88	 1
   83    84	 1
   84    85	 1
   85    86	 1
   86    87	 1
  105   107	 1
  105   108	 1
  105   106	 1
  107   109	 1
  108   109	 1
  115   116	 1
  117   118	 1
  118   119	 1
  119   120	 1
  120   121	 1
  122   123	 1
  123   124	 1
  124   125	 1
  125   126	 1

[ angles ]
;	ai	  aj	ak funct			c0			  c1			c2			  c3
    5     1     7	5 ;      OG301      CG331       HGA3
    5     1     8	5 ;      OG301      CG331       HGA3
    5     1     9	5 ;      OG301      CG331       HGA3
    7     1     8	5 ;       HGA3      CG331       HGA3
    7     1     9	5 ;       HGA3      CG331       HGA3
    8     1     9	5 ;       HGA3      CG331       HGA3
    3     2     4	5 ;      CG331      CG301      CG321
    3     2    63	5 ;      CG331      CG301      OG301
    3     2     5	5 ;      CG331      CG301      OG301
    4     2    63	5 ;      CG321      CG301      OG301
    4     2     5	5 ;      CG321      CG301      OG301
   63     2     5	5 ;      OG301      CG301      OG301
    2     3    10	5 ;      CG301      CG331       HGA3
    2     3    11	5 ;      CG301      CG331       HGA3
    2     3    12	5 ;      CG301      CG331       HGA3
   10     3    11	5 ;       HGA3      CG331       HGA3
   10     3    12	5 ;       HGA3      CG331       HGA3
   11     3    12	5 ;       HGA3      CG331       HGA3
    2     4     6	5 ;      CG301      CG321      BRGA1
    2     4    13	5 ;      CG301      CG321       HGA2
    2     4    14	5 ;      CG301      CG321       HGA2
    6     4    13	5 ;      BRGA1      CG321       HGA2
    6     4    14	5 ;      BRGA1      CG321       HGA2
   13     4    14	5 ;       HGA2      CG321       HGA2
    1     5     2	5 ;      CG331      OG301      CG301
   50    15   116	5 ;      CG2O1      NG2S1       HGP1
   50    15    49	5 ;      CG2O1      NG2S1      CG311
  116    15    49	5 ;       HGP1      NG2S1      CG311
   17    16    49	5 ;      CG2O2      CG311      CG311
   17    16    77	5 ;      CG2O2      CG311       HGA1
   17    16    63	5 ;      CG2O2      CG311      OG301
   49    16    77	5 ;      CG311      CG311       HGA1
   49    16    63	5 ;      CG311      CG311      OG301
   77    16    63	5 ;       HGA1      CG311      OG301
   16    17    64	5 ;      CG311      CG2O2      OG2D1
   16    17    65	5 ;      CG311      CG2O2      OG302
   64    17    65	5 ;      OG2D1      CG2O2      OG302
   19    18    37	5 ;      CG321      CG311      CG2D1
   19    18    78	5 ;      CG321      CG311       HGA1
   19    18    65	5 ;      CG321      CG311      OG302
   37    18    78	5 ;      CG2D1      CG311       HGA1
   37    18    65	5 ;      CG2D1      CG311      OG302
   78    18    65	5 ;       HGA1      CG311      OG302
   18    19    20	5 ;      CG311      CG321      CG301
   18    19    79	5 ;      CG311      CG321       HGA2
   18    19    80	5 ;      CG311      CG321       HGA2
   20    19    79	5 ;      CG301      CG321       HGA2
   20    19    80	5 ;      CG301      CG321       HGA2
   79    19    80	5 ;       HGA2      CG321       HGA2
   19    20    21	5 ;      CG321      CG301      CG311
   19    20    39	5 ;      CG321      CG301      CG301
   19    20    66	5 ;      CG321      CG301      OG311
   21    20    39	5 ;      CG311      CG301      CG301
   21    20    66	5 ;      CG311      CG301      OG311
   39    20    66	5 ;      CG301      CG301      OG311
   20    21    29	5 ;      CG301      CG311      CG311
   20    21    67	5 ;      CG301      CG311      OG302
   20    21    82	5 ;      CG301      CG311       HGA1
   29    21    67	5 ;      CG311      CG311      OG302
   29    21    82	5 ;      CG311      CG311       HGA1
   67    21    82	5 ;      OG302      CG311       HGA1
   23    22    68	5 ;     CG2R61      CG2O2      OG2D1
   23    22    67	5 ;     CG2R61      CG2O2      OG302
   68    22    67	5 ;      OG2D1      CG2O2      OG302
   22    23    24	5 ;      CG2O2     CG2R61     CG2R61
   22    23    28	5 ;      CG2O2     CG2R61     CG2R61
   24    23    28	5 ;     CG2R61     CG2R61     CG2R61
   23    24    25	5 ;     CG2R61     CG2R61     CG2R61
   23    24    83	5 ;     CG2R61     CG2R61      HGR61
   25    24    83	5 ;     CG2R61     CG2R61      HGR61
   24    25    26	5 ;     CG2R61     CG2R61     CG2R61
   24    25    84	5 ;     CG2R61     CG2R61      HGR61
   26    25    84	5 ;     CG2R61     CG2R61      HGR61
   25    26    27	5 ;     CG2R61     CG2R61     CG2R61
   25    26    85	5 ;     CG2R61     CG2R61      HGR61
   27    26    85	5 ;     CG2R61     CG2R61      HGR61
   26    27    28	5 ;     CG2R61     CG2R61     CG2R61
   26    27    86	5 ;     CG2R61     CG2R61      HGR61
   28    27    86	5 ;     CG2R61     CG2R61      HGR61
   23    28    27	5 ;     CG2R61     CG2R61     CG2R61
   23    28    87	5 ;     CG2R61     CG2R61      HGR61
   27    28    87	5 ;     CG2R61     CG2R61      HGR61
   21    29    30	5 ;      CG311      CG311      CG301
   21    29    46	5 ;      CG311      CG311     CG3RC1
   21    29    88	5 ;      CG311      CG311       HGA1
   30    29    46	5 ;      CG301      CG311     CG3RC1
   30    29    88	5 ;      CG301      CG311       HGA1
   46    29    88	5 ;     CG3RC1      CG311       HGA1
   29    30    31	5 ;      CG311      CG301      CG331
   29    30    32	5 ;      CG311      CG301      CG2O5
   29    30    42	5 ;      CG311      CG301      CG311
   31    30    32	5 ;      CG331      CG301      CG2O5
   31    30    42	5 ;      CG331      CG301      CG311
   32    30    42	5 ;      CG2O5      CG301      CG311
   30    31    89	5 ;      CG301      CG331       HGA3
   30    31    90	5 ;      CG301      CG331       HGA3
   30    31    91	5 ;      CG301      CG331       HGA3
   89    31    90	5 ;       HGA3      CG331       HGA3
   89    31    91	5 ;       HGA3      CG331       HGA3
   90    31    91	5 ;       HGA3      CG331       HGA3
   30    32    33	5 ;      CG301      CG2O5      CG311
   30    32    69	5 ;      CG301      CG2O5      OG2D3
   33    32    69	5 ;      CG311      CG2O5      OG2D3
   32    33    36	5 ;      CG2O5      CG311      CG2D1
   32    33    70	5 ;      CG2O5      CG311      OG302
   32    33    92	5 ;      CG2O5      CG311       HGA1
   36    33    70	5 ;      CG2D1      CG311      OG302
   36    33    92	5 ;      CG2D1      CG311       HGA1
   70    33    92	5 ;      OG302      CG311       HGA1
   35    34    71	5 ;      CG331      CG2O2      OG2D1
   35    34    70	5 ;      CG331      CG2O2      OG302
   71    34    70	5 ;      OG2D1      CG2O2      OG302
   34    35    93	5 ;      CG2O2      CG331       HGA3
   34    35    94	5 ;      CG2O2      CG331       HGA3
   34    35    95	5 ;      CG2O2      CG331       HGA3
   93    35    94	5 ;       HGA3      CG331       HGA3
   93    35    95	5 ;       HGA3      CG331       HGA3
   94    35    95	5 ;       HGA3      CG331       HGA3
   33    36    37	5 ;      CG311      CG2D1      CG2D1
   33    36    39	5 ;      CG311      CG2D1      CG301
   37    36    39	5 ;      CG2D1      CG2D1      CG301
   18    37    36	5 ;      CG311      CG2D1      CG2D1
   18    37    38	5 ;      CG311      CG2D1      CG331
   36    37    38	5 ;      CG2D1      CG2D1      CG331
   37    38    96	5 ;      CG2D1      CG331       HGA3
   37    38    97	5 ;      CG2D1      CG331       HGA3
   37    38    98	5 ;      CG2D1      CG331       HGA3
   96    38    97	5 ;       HGA3      CG331       HGA3
   96    38    98	5 ;       HGA3      CG331       HGA3
   97    38    98	5 ;       HGA3      CG331       HGA3
   20    39    36	5 ;      CG301      CG301      CG2D1
   20    39    40	5 ;      CG301      CG301      CG331
   20    39    41	5 ;      CG301      CG301      CG331
   36    39    40	5 ;      CG2D1      CG301      CG331
   36    39    41	5 ;      CG2D1      CG301      CG331
   40    39    41	5 ;      CG331      CG301      CG331
   39    40    99	5 ;      CG301      CG331       HGA3
   39    40   100	5 ;      CG301      CG331       HGA3
   39    40   101	5 ;      CG301      CG331       HGA3
   99    40   100	5 ;       HGA3      CG331       HGA3
   99    40   101	5 ;       HGA3      CG331       HGA3
  100    40   101	5 ;       HGA3      CG331       HGA3
   39    41   102	5 ;      CG301      CG331       HGA3
   39    41   103	5 ;      CG301      CG331       HGA3
   39    41   104	5 ;      CG301      CG331       HGA3
  102    41   103	5 ;       HGA3      CG331       HGA3
  102    41   104	5 ;       HGA3      CG331       HGA3
  103    41   104	5 ;       HGA3      CG331       HGA3
   30    42    43	5 ;      CG301      CG311      CG321
   30    42    72	5 ;      CG301      CG311      OG311
   30    42   105	5 ;      CG301      CG311       HGA1
   43    42    72	5 ;      CG321      CG311      OG311
   43    42   105	5 ;      CG321      CG311       HGA1
   72    42   105	5 ;      OG311      CG311       HGA1
   42    43    44	5 ;      CG311      CG321     CG3RC1
   42    43   107	5 ;      CG311      CG321       HGA2
   42    43   108	5 ;      CG311      CG321       HGA2
   44    43   107	5 ;     CG3RC1      CG321       HGA2
   44    43   108	5 ;     CG3RC1      CG321       HGA2
  107    43   108	5 ;       HGA2      CG321       HGA2
   43    44    46	5 ;      CG321     CG3RC1     CG3RC1
   43    44    73	5 ;      CG321     CG3RC1     OG3C51
   43    44   109	5 ;      CG321     CG3RC1       HGA1
   46    44    73	5 ;     CG3RC1     CG3RC1     OG3C51
   46    44   109	5 ;     CG3RC1     CG3RC1       HGA1
   73    44   109	5 ;     OG3C51     CG3RC1       HGA1
   46    45   110	5 ;     CG3RC1     CG3C41       HGA2
   46    45   111	5 ;     CG3RC1     CG3C41       HGA2
   46    45    73	5 ;     CG3RC1     CG3C41     OG3C51
  110    45   111	5 ;       HGA2     CG3C41       HGA2
  110    45    73	5 ;       HGA2     CG3C41     OG3C51
  111    45    73	5 ;       HGA2     CG3C41     OG3C51
   29    46    44	5 ;      CG311     CG3RC1     CG3RC1
   29    46    45	5 ;      CG311     CG3RC1     CG3C41
   29    46    74	5 ;      CG311     CG3RC1      OG302
   44    46    45	5 ;     CG3RC1     CG3RC1     CG3C41
   44    46    74	5 ;     CG3RC1     CG3RC1      OG302
   45    46    74	5 ;     CG3C41     CG3RC1      OG302
   48    47    75	5 ;      CG331      CG2O2      OG2D1
   48    47    74	5 ;      CG331      CG2O2      OG302
   75    47    74	5 ;      OG2D1      CG2O2      OG302
   47    48   112	5 ;      CG2O2      CG331       HGA3
   47    48   113	5 ;      CG2O2      CG331       HGA3
   47    48   114	5 ;      CG2O2      CG331       HGA3
  112    48   113	5 ;       HGA3      CG331       HGA3
  112    48   114	5 ;       HGA3      CG331       HGA3
  113    48   114	5 ;       HGA3      CG331       HGA3
   16    49    15	5 ;      CG311      CG311      NG2S1
   16    49    57	5 ;      CG311      CG311     CG2R61
   16    49   115	5 ;      CG311      CG311       HGA1
   15    49    57	5 ;      NG2S1      CG311     CG2R61
   15    49   115	5 ;      NG2S1      CG311       HGA1
   57    49   115	5 ;     CG2R61      CG311       HGA1
   15    50    51	5 ;      NG2S1      CG2O1     CG2R61
   15    50    76	5 ;      NG2S1      CG2O1      OG2D1
   51    50    76	5 ;     CG2R61      CG2O1      OG2D1
   50    51    52	5 ;      CG2O1     CG2R61     CG2R61
   50    51    56	5 ;      CG2O1     CG2R61     CG2R61
   52    51    56	5 ;     CG2R61     CG2R61     CG2R61
   51    52    53	5 ;     CG2R61     CG2R61     CG2R61
   51    52   117	5 ;     CG2R61     CG2R61      HGR61
   53    52   117	5 ;     CG2R61     CG2R61      HGR61
   52    53    54	5 ;     CG2R61     CG2R61     CG2R61
   52    53   118	5 ;     CG2R61     CG2R61      HGR61
   54    53   118	5 ;     CG2R61     CG2R61      HGR61
   53    54    55	5 ;     CG2R61     CG2R61     CG2R61
   53    54   119	5 ;     CG2R61     CG2R61      HGR61
   55    54   119	5 ;     CG2R61     CG2R61      HGR61
   54    55    56	5 ;     CG2R61     CG2R61     CG2R61
   54    55   120	5 ;     CG2R61     CG2R61      HGR61
   56    55   120	5 ;     CG2R61     CG2R61      HGR61
   51    56    55	5 ;     CG2R61     CG2R61     CG2R61
   51    56   121	5 ;     CG2R61     CG2R61      HGR61
   55    56   121	5 ;     CG2R61     CG2R61      HGR61
   49    57    58	5 ;      CG311     CG2R61     CG2R61
   49    57    62	5 ;      CG311     CG2R61     CG2R61
   58    57    62	5 ;     CG2R61     CG2R61     CG2R61
   57    58    59	5 ;     CG2R61     CG2R61     CG2R61
   57    58   122	5 ;     CG2R61     CG2R61      HGR61
   59    58   122	5 ;     CG2R61     CG2R61      HGR61
   58    59    60	5 ;     CG2R61     CG2R61     CG2R61
   58    59   123	5 ;     CG2R61     CG2R61      HGR61
   60    59   123	5 ;     CG2R61     CG2R61      HGR61
   59    60    61	5 ;     CG2R61     CG2R61     CG2R61
   59    60   124	5 ;     CG2R61     CG2R61      HGR61
   61    60   124	5 ;     CG2R61     CG2R61      HGR61
   60    61    62	5 ;     CG2R61     CG2R61     CG2R61
   60    61   125	5 ;     CG2R61     CG2R61      HGR61
   62    61   125	5 ;     CG2R61     CG2R61      HGR61
   57    62    61	5 ;     CG2R61     CG2R61     CG2R61
   57    62   126	5 ;     CG2R61     CG2R61      HGR61
   61    62   126	5 ;     CG2R61     CG2R61      HGR61
    2    63    16	5 ;      CG301      OG301      CG311
   17    65    18	5 ;      CG2O2      OG302      CG311
   20    66    81	5 ;      CG301      OG311       HGP1
   21    67    22	5 ;      CG311      OG302      CG2O2
   33    70    34	5 ;      CG311      OG302      CG2O2
   42    72   106	5 ;      CG311      OG311       HGP1
   44    73    45	5 ;     CG3RC1     OG3C51     CG3C41
   46    74    47	5 ;     CG3RC1      OG302      CG2O2

[ dihedrals ]
;	ai	  aj	ak	  al funct			  c0			c1			  c2			c3			  c4			c5
    7     1     5     2	 9 ;       HGA3      CG331      OG301      CG301
    8     1     5     2	 9 ;       HGA3      CG331      OG301      CG301
    9     1     5     2	 9 ;       HGA3      CG331      OG301      CG301
    4     2     3    10	 9 ;      CG321      CG301      CG331       HGA3
    4     2     3    11	 9 ;      CG321      CG301      CG331       HGA3
    4     2     3    12	 9 ;      CG321      CG301      CG331       HGA3
   63     2     3    10	 9 ;      OG301      CG301      CG331       HGA3
   63     2     3    11	 9 ;      OG301      CG301      CG331       HGA3
   63     2     3    12	 9 ;      OG301      CG301      CG331       HGA3
    5     2     3    10	 9 ;      OG301      CG301      CG331       HGA3
    5     2     3    11	 9 ;      OG301      CG301      CG331       HGA3
    5     2     3    12	 9 ;      OG301      CG301      CG331       HGA3
    3     2     4     6	 9 ;      CG331      CG301      CG321      BRGA1
    3     2     4    13	 9 ;      CG331      CG301      CG321       HGA2
    3     2     4    14	 9 ;      CG331      CG301      CG321       HGA2
   63     2     4     6	 9 ;      OG301      CG301      CG321      BRGA1
   63     2     4    13	 9 ;      OG301      CG301      CG321       HGA2
   63     2     4    14	 9 ;      OG301      CG301      CG321       HGA2
    5     2     4     6	 9 ;      OG301      CG301      CG321      BRGA1
    5     2     4    13	 9 ;      OG301      CG301      CG321       HGA2
    5     2     4    14	 9 ;      OG301      CG301      CG321       HGA2
    3     2    63    16	 9 ;      CG331      CG301      OG301      CG311
    4     2    63    16	 9 ;      CG321      CG301      OG301      CG311
    5     2    63    16	 9 ;      OG301      CG301      OG301      CG311
    3     2     5     1	 9 ;      CG331      CG301      OG301      CG331
    4     2     5     1	 9 ;      CG321      CG301      OG301      CG331
   63     2     5     1	 9 ;      OG301      CG301      OG301      CG331
  116    15    50    51	 9 ;       HGP1      NG2S1      CG2O1     CG2R61
  116    15    50    76	 9 ;       HGP1      NG2S1      CG2O1      OG2D1
   49    15    50    51	 9 ;      CG311      NG2S1      CG2O1     CG2R61
   49    15    50    76	 9 ;      CG311      NG2S1      CG2O1      OG2D1
   50    15    49    16	 9 ;      CG2O1      NG2S1      CG311      CG311
   50    15    49    57	 9 ;      CG2O1      NG2S1      CG311     CG2R61
   50    15    49   115	 9 ;      CG2O1      NG2S1      CG311       HGA1
  116    15    49    16	 9 ;       HGP1      NG2S1      CG311      CG311
  116    15    49    57	 9 ;       HGP1      NG2S1      CG311     CG2R61
  116    15    49   115	 9 ;       HGP1      NG2S1      CG311       HGA1
   49    16    17    64	 9 ;      CG311      CG311      CG2O2      OG2D1
   49    16    17    65	 9 ;      CG311      CG311      CG2O2      OG302
   77    16    17    64	 9 ;       HGA1      CG311      CG2O2      OG2D1
   77    16    17    65	 9 ;       HGA1      CG311      CG2O2      OG302
   63    16    17    64	 9 ;      OG301      CG311      CG2O2      OG2D1
   63    16    17    65	 9 ;      OG301      CG311      CG2O2      OG302
   17    16    49    15	 9 ;      CG2O2      CG311      CG311      NG2S1
   17    16    49    57	 9 ;      CG2O2      CG311      CG311     CG2R61
   17    16    49   115	 9 ;      CG2O2      CG311      CG311       HGA1
   77    16    49    15	 9 ;       HGA1      CG311      CG311      NG2S1
   77    16    49    57	 9 ;       HGA1      CG311      CG311     CG2R61
   77    16    49   115	 9 ;       HGA1      CG311      CG311       HGA1
   63    16    49    15	 9 ;      OG301      CG311      CG311      NG2S1
   63    16    49    57	 9 ;      OG301      CG311      CG311     CG2R61
   63    16    49   115	 9 ;      OG301      CG311      CG311       HGA1
   17    16    63     2	 9 ;      CG2O2      CG311      OG301      CG301
   49    16    63     2	 9 ;      CG311      CG311      OG301      CG301
   77    16    63     2	 9 ;       HGA1      CG311      OG301      CG301
   16    17    65    18	 9 ;      CG311      CG2O2      OG302      CG311
   64    17    65    18	 9 ;      OG2D1      CG2O2      OG302      CG311
   37    18    19    20	 9 ;      CG2D1      CG311      CG321      CG301
   37    18    19    79	 9 ;      CG2D1      CG311      CG321       HGA2
   37    18    19    80	 9 ;      CG2D1      CG311      CG321       HGA2
   78    18    19    20	 9 ;       HGA1      CG311      CG321      CG301
   78    18    19    79	 9 ;       HGA1      CG311      CG321       HGA2
   78    18    19    80	 9 ;       HGA1      CG311      CG321       HGA2
   65    18    19    20	 9 ;      OG302      CG311      CG321      CG301
   65    18    19    79	 9 ;      OG302      CG311      CG321       HGA2
   65    18    19    80	 9 ;      OG302      CG311      CG321       HGA2
   19    18    37    36	 9 ;      CG321      CG311      CG2D1      CG2D1
   19    18    37    38	 9 ;      CG321      CG311      CG2D1      CG331
   78    18    37    36	 9 ;       HGA1      CG311      CG2D1      CG2D1
   78    18    37    38	 9 ;       HGA1      CG311      CG2D1      CG331
   65    18    37    36	 9 ;      OG302      CG311      CG2D1      CG2D1
   65    18    37    38	 9 ;      OG302      CG311      CG2D1      CG331
   19    18    65    17	 9 ;      CG321      CG311      OG302      CG2O2
   37    18    65    17	 9 ;      CG2D1      CG311      OG302      CG2O2
   78    18    65    17	 9 ;       HGA1      CG311      OG302      CG2O2
   18    19    20    21	 9 ;      CG311      CG321      CG301      CG311
   18    19    20    39	 9 ;      CG311      CG321      CG301      CG301
   18    19    20    66	 9 ;      CG311      CG321      CG301      OG311
   79    19    20    21	 9 ;       HGA2      CG321      CG301      CG311
   79    19    20    39	 9 ;       HGA2      CG321      CG301      CG301
   79    19    20    66	 9 ;       HGA2      CG321      CG301      OG311
   80    19    20    21	 9 ;       HGA2      CG321      CG301      CG311
   80    19    20    39	 9 ;       HGA2      CG321      CG301      CG301
   80    19    20    66	 9 ;       HGA2      CG321      CG301      OG311
   19    20    21    29	 9 ;      CG321      CG301      CG311      CG311
   19    20    21    67	 9 ;      CG321      CG301      CG311      OG302
   19    20    21    82	 9 ;      CG321      CG301      CG311       HGA1
   39    20    21    29	 9 ;      CG301      CG301      CG311      CG311
   39    20    21    67	 9 ;      CG301      CG301      CG311      OG302
   39    20    21    82	 9 ;      CG301      CG301      CG311       HGA1
   66    20    21    29	 9 ;      OG311      CG301      CG311      CG311
   66    20    21    67	 9 ;      OG311      CG301      CG311      OG302
   66    20    21    82	 9 ;      OG311      CG301      CG311       HGA1
   19    20    39    36	 9 ;      CG321      CG301      CG301      CG2D1
   19    20    39    40	 9 ;      CG321      CG301      CG301      CG331
   19    20    39    41	 9 ;      CG321      CG301      CG301      CG331
   21    20    39    36	 9 ;      CG311      CG301      CG301      CG2D1
   21    20    39    40	 9 ;      CG311      CG301      CG301      CG331
   21    20    39    41	 9 ;      CG311      CG301      CG301      CG331
   66    20    39    36	 9 ;      OG311      CG301      CG301      CG2D1
   66    20    39    40	 9 ;      OG311      CG301      CG301      CG331
   66    20    39    41	 9 ;      OG311      CG301      CG301      CG331
   19    20    66    81	 9 ;      CG321      CG301      OG311       HGP1
   21    20    66    81	 9 ;      CG311      CG301      OG311       HGP1
   39    20    66    81	 9 ;      CG301      CG301      OG311       HGP1
   20    21    29    30	 9 ;      CG301      CG311      CG311      CG301
   20    21    29    46	 9 ;      CG301      CG311      CG311     CG3RC1
   20    21    29    88	 9 ;      CG301      CG311      CG311       HGA1
   67    21    29    30	 9 ;      OG302      CG311      CG311      CG301
   67    21    29    46	 9 ;      OG302      CG311      CG311     CG3RC1
   67    21    29    88	 9 ;      OG302      CG311      CG311       HGA1
   82    21    29    30	 9 ;       HGA1      CG311      CG311      CG301
   82    21    29    46	 9 ;       HGA1      CG311      CG311     CG3RC1
   82    21    29    88	 9 ;       HGA1      CG311      CG311       HGA1
   20    21    67    22	 9 ;      CG301      CG311      OG302      CG2O2
   29    21    67    22	 9 ;      CG311      CG311      OG302      CG2O2
   82    21    67    22	 9 ;       HGA1      CG311      OG302      CG2O2
   68    22    23    24	 9 ;      OG2D1      CG2O2     CG2R61     CG2R61
   68    22    23    28	 9 ;      OG2D1      CG2O2     CG2R61     CG2R61
   67    22    23    24	 9 ;      OG302      CG2O2     CG2R61     CG2R61
   67    22    23    28	 9 ;      OG302      CG2O2     CG2R61     CG2R61
   23    22    67    21	 9 ;     CG2R61      CG2O2      OG302      CG311
   68    22    67    21	 9 ;      OG2D1      CG2O2      OG302      CG311
   22    23    24    25	 9 ;      CG2O2     CG2R61     CG2R61     CG2R61
   22    23    24    83	 9 ;      CG2O2     CG2R61     CG2R61      HGR61
   28    23    24    25	 9 ;     CG2R61     CG2R61     CG2R61     CG2R61
   28    23    24    83	 9 ;     CG2R61     CG2R61     CG2R61      HGR61
   22    23    28    27	 9 ;      CG2O2     CG2R61     CG2R61     CG2R61
   22    23    28    87	 9 ;      CG2O2     CG2R61     CG2R61      HGR61
   24    23    28    27	 9 ;     CG2R61     CG2R61     CG2R61     CG2R61
   24    23    28    87	 9 ;     CG2R61     CG2R61     CG2R61      HGR61
   23    24    25    26	 9 ;     CG2R61     CG2R61     CG2R61     CG2R61
   23    24    25    84	 9 ;     CG2R61     CG2R61     CG2R61      HGR61
   83    24    25    26	 9 ;      HGR61     CG2R61     CG2R61     CG2R61
   83    24    25    84	 9 ;      HGR61     CG2R61     CG2R61      HGR61
   24    25    26    27	 9 ;     CG2R61     CG2R61     CG2R61     CG2R61
   24    25    26    85	 9 ;     CG2R61     CG2R61     CG2R61      HGR61
   84    25    26    27	 9 ;      HGR61     CG2R61     CG2R61     CG2R61
   84    25    26    85	 9 ;      HGR61     CG2R61     CG2R61      HGR61
   25    26    27    28	 9 ;     CG2R61     CG2R61     CG2R61     CG2R61
   25    26    27    86	 9 ;     CG2R61     CG2R61     CG2R61      HGR61
   85    26    27    28	 9 ;      HGR61     CG2R61     CG2R61     CG2R61
   85    26    27    86	 9 ;      HGR61     CG2R61     CG2R61      HGR61
   26    27    28    23	 9 ;     CG2R61     CG2R61     CG2R61     CG2R61
   26    27    28    87	 9 ;     CG2R61     CG2R61     CG2R61      HGR61
   86    27    28    23	 9 ;      HGR61     CG2R61     CG2R61     CG2R61
   86    27    28    87	 9 ;      HGR61     CG2R61     CG2R61      HGR61
   21    29    30    31	 9 ;      CG311      CG311      CG301      CG331
   21    29    30    32	 9 ;      CG311      CG311      CG301      CG2O5
   21    29    30    42	 9 ;      CG311      CG311      CG301      CG311
   46    29    30    31	 9 ;     CG3RC1      CG311      CG301      CG331
   46    29    30    32	 9 ;     CG3RC1      CG311      CG301      CG2O5
   46    29    30    42	 9 ;     CG3RC1      CG311      CG301      CG311
   88    29    30    31	 9 ;       HGA1      CG311      CG301      CG331
   88    29    30    32	 9 ;       HGA1      CG311      CG301      CG2O5
   88    29    30    42	 9 ;       HGA1      CG311      CG301      CG311
   21    29    46    44	 9 ;      CG311      CG311     CG3RC1     CG3RC1
   21    29    46    45	 9 ;      CG311      CG311     CG3RC1     CG3C41
   21    29    46    74	 9 ;      CG311      CG311     CG3RC1      OG302
   30    29    46    44	 9 ;      CG301      CG311     CG3RC1     CG3RC1
   30    29    46    45	 9 ;      CG301      CG311     CG3RC1     CG3C41
   30    29    46    74	 9 ;      CG301      CG311     CG3RC1      OG302
   88    29    46    44	 9 ;       HGA1      CG311     CG3RC1     CG3RC1
   88    29    46    45	 9 ;       HGA1      CG311     CG3RC1     CG3C41
   88    29    46    74	 9 ;       HGA1      CG311     CG3RC1      OG302
   29    30    31    89	 9 ;      CG311      CG301      CG331       HGA3
   29    30    31    90	 9 ;      CG311      CG301      CG331       HGA3
   29    30    31    91	 9 ;      CG311      CG301      CG331       HGA3
   32    30    31    89	 9 ;      CG2O5      CG301      CG331       HGA3
   32    30    31    90	 9 ;      CG2O5      CG301      CG331       HGA3
   32    30    31    91	 9 ;      CG2O5      CG301      CG331       HGA3
   42    30    31    89	 9 ;      CG311      CG301      CG331       HGA3
   42    30    31    90	 9 ;      CG311      CG301      CG331       HGA3
   42    30    31    91	 9 ;      CG311      CG301      CG331       HGA3
   29    30    32    33	 9 ;      CG311      CG301      CG2O5      CG311
   29    30    32    69	 9 ;      CG311      CG301      CG2O5      OG2D3
   31    30    32    33	 9 ;      CG331      CG301      CG2O5      CG311
   31    30    32    69	 9 ;      CG331      CG301      CG2O5      OG2D3
   42    30    32    33	 9 ;      CG311      CG301      CG2O5      CG311
   42    30    32    69	 9 ;      CG311      CG301      CG2O5      OG2D3
   29    30    42    43	 9 ;      CG311      CG301      CG311      CG321
   29    30    42    72	 9 ;      CG311      CG301      CG311      OG311
   29    30    42   105	 9 ;      CG311      CG301      CG311       HGA1
   31    30    42    43	 9 ;      CG331      CG301      CG311      CG321
   31    30    42    72	 9 ;      CG331      CG301      CG311      OG311
   31    30    42   105	 9 ;      CG331      CG301      CG311       HGA1
   32    30    42    43	 9 ;      CG2O5      CG301      CG311      CG321
   32    30    42    72	 9 ;      CG2O5      CG301      CG311      OG311
   32    30    42   105	 9 ;      CG2O5      CG301      CG311       HGA1
   30    32    33    36	 9 ;      CG301      CG2O5      CG311      CG2D1
   30    32    33    70	 9 ;      CG301      CG2O5      CG311      OG302
   30    32    33    92	 9 ;      CG301      CG2O5      CG311       HGA1
   69    32    33    36	 9 ;      OG2D3      CG2O5      CG311      CG2D1
   69    32    33    70	 9 ;      OG2D3      CG2O5      CG311      OG302
   69    32    33    92	 9 ;      OG2D3      CG2O5      CG311       HGA1
   32    33    36    37	 9 ;      CG2O5      CG311      CG2D1      CG2D1
   32    33    36    39	 9 ;      CG2O5      CG311      CG2D1      CG301
   70    33    36    37	 9 ;      OG302      CG311      CG2D1      CG2D1
   70    33    36    39	 9 ;      OG302      CG311      CG2D1      CG301
   92    33    36    37	 9 ;       HGA1      CG311      CG2D1      CG2D1
   92    33    36    39	 9 ;       HGA1      CG311      CG2D1      CG301
   32    33    70    34	 9 ;      CG2O5      CG311      OG302      CG2O2
   36    33    70    34	 9 ;      CG2D1      CG311      OG302      CG2O2
   92    33    70    34	 9 ;       HGA1      CG311      OG302      CG2O2
   71    34    35    93	 9 ;      OG2D1      CG2O2      CG331       HGA3
   71    34    35    94	 9 ;      OG2D1      CG2O2      CG331       HGA3
   71    34    35    95	 9 ;      OG2D1      CG2O2      CG331       HGA3
   70    34    35    93	 9 ;      OG302      CG2O2      CG331       HGA3
   70    34    35    94	 9 ;      OG302      CG2O2      CG331       HGA3
   70    34    35    95	 9 ;      OG302      CG2O2      CG331       HGA3
   35    34    70    33	 9 ;      CG331      CG2O2      OG302      CG311
   71    34    70    33	 9 ;      OG2D1      CG2O2      OG302      CG311
   33    36    37    18	 9 ;      CG311      CG2D1      CG2D1      CG311
   33    36    37    38	 9 ;      CG311      CG2D1      CG2D1      CG331
   39    36    37    18	 9 ;      CG301      CG2D1      CG2D1      CG311
   39    36    37    38	 9 ;      CG301      CG2D1      CG2D1      CG331
   33    36    39    20	 9 ;      CG311      CG2D1      CG301      CG301
   33    36    39    40	 9 ;      CG311      CG2D1      CG301      CG331
   33    36    39    41	 9 ;      CG311      CG2D1      CG301      CG331
   37    36    39    20	 9 ;      CG2D1      CG2D1      CG301      CG301
   37    36    39    40	 9 ;      CG2D1      CG2D1      CG301      CG331
   37    36    39    41	 9 ;      CG2D1      CG2D1      CG301      CG331
   18    37    38    96	 9 ;      CG311      CG2D1      CG331       HGA3
   18    37    38    97	 9 ;      CG311      CG2D1      CG331       HGA3
   18    37    38    98	 9 ;      CG311      CG2D1      CG331       HGA3
   36    37    38    96	 9 ;      CG2D1      CG2D1      CG331       HGA3
   36    37    38    97	 9 ;      CG2D1      CG2D1      CG331       HGA3
   36    37    38    98	 9 ;      CG2D1      CG2D1      CG331       HGA3
   20    39    40    99	 9 ;      CG301      CG301      CG331       HGA3
   20    39    40   100	 9 ;      CG301      CG301      CG331       HGA3
   20    39    40   101	 9 ;      CG301      CG301      CG331       HGA3
   36    39    40    99	 9 ;      CG2D1      CG301      CG331       HGA3
   36    39    40   100	 9 ;      CG2D1      CG301      CG331       HGA3
   36    39    40   101	 9 ;      CG2D1      CG301      CG331       HGA3
   41    39    40    99	 9 ;      CG331      CG301      CG331       HGA3
   41    39    40   100	 9 ;      CG331      CG301      CG331       HGA3
   41    39    40   101	 9 ;      CG331      CG301      CG331       HGA3
   20    39    41   102	 9 ;      CG301      CG301      CG331       HGA3
   20    39    41   103	 9 ;      CG301      CG301      CG331       HGA3
   20    39    41   104	 9 ;      CG301      CG301      CG331       HGA3
   36    39    41   102	 9 ;      CG2D1      CG301      CG331       HGA3
   36    39    41   103	 9 ;      CG2D1      CG301      CG331       HGA3
   36    39    41   104	 9 ;      CG2D1      CG301      CG331       HGA3
   40    39    41   102	 9 ;      CG331      CG301      CG331       HGA3
   40    39    41   103	 9 ;      CG331      CG301      CG331       HGA3
   40    39    41   104	 9 ;      CG331      CG301      CG331       HGA3
   30    42    43    44	 9 ;      CG301      CG311      CG321     CG3RC1
   30    42    43   107	 9 ;      CG301      CG311      CG321       HGA2
   30    42    43   108	 9 ;      CG301      CG311      CG321       HGA2
   72    42    43    44	 9 ;      OG311      CG311      CG321     CG3RC1
   72    42    43   107	 9 ;      OG311      CG311      CG321       HGA2
   72    42    43   108	 9 ;      OG311      CG311      CG321       HGA2
  105    42    43    44	 9 ;       HGA1      CG311      CG321     CG3RC1
  105    42    43   107	 9 ;       HGA1      CG311      CG321       HGA2
  105    42    43   108	 9 ;       HGA1      CG311      CG321       HGA2
   30    42    72   106	 9 ;      CG301      CG311      OG311       HGP1
   43    42    72   106	 9 ;      CG321      CG311      OG311       HGP1
  105    42    72   106	 9 ;       HGA1      CG311      OG311       HGP1
   42    43    44    46	 9 ;      CG311      CG321     CG3RC1     CG3RC1
   42    43    44    73	 9 ;      CG311      CG321     CG3RC1     OG3C51
   42    43    44   109	 9 ;      CG311      CG321     CG3RC1       HGA1
  107    43    44    46	 9 ;       HGA2      CG321     CG3RC1     CG3RC1
  107    43    44    73	 9 ;       HGA2      CG321     CG3RC1     OG3C51
  107    43    44   109	 9 ;       HGA2      CG321     CG3RC1       HGA1
  108    43    44    46	 9 ;       HGA2      CG321     CG3RC1     CG3RC1
  108    43    44    73	 9 ;       HGA2      CG321     CG3RC1     OG3C51
  108    43    44   109	 9 ;       HGA2      CG321     CG3RC1       HGA1
   43    44    46    29	 9 ;      CG321     CG3RC1     CG3RC1      CG311
   43    44    46    45	 9 ;      CG321     CG3RC1     CG3RC1     CG3C41
   43    44    46    74	 9 ;      CG321     CG3RC1     CG3RC1      OG302
   73    44    46    29	 9 ;     OG3C51     CG3RC1     CG3RC1      CG311
   73    44    46    45	 9 ;     OG3C51     CG3RC1     CG3RC1     CG3C41
   73    44    46    74	 9 ;     OG3C51     CG3RC1     CG3RC1      OG302
  109    44    46    29	 9 ;       HGA1     CG3RC1     CG3RC1      CG311
  109    44    46    45	 9 ;       HGA1     CG3RC1     CG3RC1     CG3C41
  109    44    46    74	 9 ;       HGA1     CG3RC1     CG3RC1      OG302
   43    44    73    45	 9 ;      CG321     CG3RC1     OG3C51     CG3C41
   46    44    73    45	 9 ;     CG3RC1     CG3RC1     OG3C51     CG3C41
  109    44    73    45	 9 ;       HGA1     CG3RC1     OG3C51     CG3C41
  110    45    46    29	 9 ;       HGA2     CG3C41     CG3RC1      CG311
  110    45    46    44	 9 ;       HGA2     CG3C41     CG3RC1     CG3RC1
  110    45    46    74	 9 ;       HGA2     CG3C41     CG3RC1      OG302
  111    45    46    29	 9 ;       HGA2     CG3C41     CG3RC1      CG311
  111    45    46    44	 9 ;       HGA2     CG3C41     CG3RC1     CG3RC1
  111    45    46    74	 9 ;       HGA2     CG3C41     CG3RC1      OG302
   73    45    46    29	 9 ;     OG3C51     CG3C41     CG3RC1      CG311
   73    45    46    44	 9 ;     OG3C51     CG3C41     CG3RC1     CG3RC1
   73    45    46    74	 9 ;     OG3C51     CG3C41     CG3RC1      OG302
   46    45    73    44	 9 ;     CG3RC1     CG3C41     OG3C51     CG3RC1
  110    45    73    44	 9 ;       HGA2     CG3C41     OG3C51     CG3RC1
  111    45    73    44	 9 ;       HGA2     CG3C41     OG3C51     CG3RC1
   29    46    74    47	 9 ;      CG311     CG3RC1      OG302      CG2O2
   44    46    74    47	 9 ;     CG3RC1     CG3RC1      OG302      CG2O2
   45    46    74    47	 9 ;     CG3C41     CG3RC1      OG302      CG2O2
   75    47    48   112	 9 ;      OG2D1      CG2O2      CG331       HGA3
   75    47    48   113	 9 ;      OG2D1      CG2O2      CG331       HGA3
   75    47    48   114	 9 ;      OG2D1      CG2O2      CG331       HGA3
   74    47    48   112	 9 ;      OG302      CG2O2      CG331       HGA3
   74    47    48   113	 9 ;      OG302      CG2O2      CG331       HGA3
   74    47    48   114	 9 ;      OG302      CG2O2      CG331       HGA3
   48    47    74    46	 9 ;      CG331      CG2O2      OG302     CG3RC1
   75    47    74    46	 9 ;      OG2D1      CG2O2      OG302     CG3RC1
   16    49    57    58	 9 ;      CG311      CG311     CG2R61     CG2R61
   16    49    57    62	 9 ;      CG311      CG311     CG2R61     CG2R61
   15    49    57    58	 9 ;      NG2S1      CG311     CG2R61     CG2R61
   15    49    57    62	 9 ;      NG2S1      CG311     CG2R61     CG2R61
  115    49    57    58	 9 ;       HGA1      CG311     CG2R61     CG2R61
  115    49    57    62	 9 ;       HGA1      CG311     CG2R61     CG2R61
   15    50    51    52	 9 ;      NG2S1      CG2O1     CG2R61     CG2R61
   15    50    51    56	 9 ;      NG2S1      CG2O1     CG2R61     CG2R61
   76    50    51    52	 9 ;      OG2D1      CG2O1     CG2R61     CG2R61
   76    50    51    56	 9 ;      OG2D1      CG2O1     CG2R61     CG2R61
   50    51    52    53	 9 ;      CG2O1     CG2R61     CG2R61     CG2R61
   50    51    52   117	 9 ;      CG2O1     CG2R61     CG2R61      HGR61
   56    51    52    53	 9 ;     CG2R61     CG2R61     CG2R61     CG2R61
   56    51    52   117	 9 ;     CG2R61     CG2R61     CG2R61      HGR61
   50    51    56    55	 9 ;      CG2O1     CG2R61     CG2R61     CG2R61
   50    51    56   121	 9 ;      CG2O1     CG2R61     CG2R61      HGR61
   52    51    56    55	 9 ;     CG2R61     CG2R61     CG2R61     CG2R61
   52    51    56   121	 9 ;     CG2R61     CG2R61     CG2R61      HGR61
   51    52    53    54	 9 ;     CG2R61     CG2R61     CG2R61     CG2R61
   51    52    53   118	 9 ;     CG2R61     CG2R61     CG2R61      HGR61
  117    52    53    54	 9 ;      HGR61     CG2R61     CG2R61     CG2R61
  117    52    53   118	 9 ;      HGR61     CG2R61     CG2R61      HGR61
   52    53    54    55	 9 ;     CG2R61     CG2R61     CG2R61     CG2R61
   52    53    54   119	 9 ;     CG2R61     CG2R61     CG2R61      HGR61
  118    53    54    55	 9 ;      HGR61     CG2R61     CG2R61     CG2R61
  118    53    54   119	 9 ;      HGR61     CG2R61     CG2R61      HGR61
   53    54    55    56	 9 ;     CG2R61     CG2R61     CG2R61     CG2R61
   53    54    55   120	 9 ;     CG2R61     CG2R61     CG2R61      HGR61
  119    54    55    56	 9 ;      HGR61     CG2R61     CG2R61     CG2R61
  119    54    55   120	 9 ;      HGR61     CG2R61     CG2R61      HGR61
   54    55    56    51	 9 ;     CG2R61     CG2R61     CG2R61     CG2R61
   54    55    56   121	 9 ;     CG2R61     CG2R61     CG2R61      HGR61
  120    55    56    51	 9 ;      HGR61     CG2R61     CG2R61     CG2R61
  120    55    56   121	 9 ;      HGR61     CG2R61     CG2R61      HGR61
   49    57    58    59	 9 ;      CG311     CG2R61     CG2R61     CG2R61
   49    57    58   122	 9 ;      CG311     CG2R61     CG2R61      HGR61
   62    57    58    59	 9 ;     CG2R61     CG2R61     CG2R61     CG2R61
   62    57    58   122	 9 ;     CG2R61     CG2R61     CG2R61      HGR61
   49    57    62    61	 9 ;      CG311     CG2R61     CG2R61     CG2R61
   49    57    62   126	 9 ;      CG311     CG2R61     CG2R61      HGR61
   58    57    62    61	 9 ;     CG2R61     CG2R61     CG2R61     CG2R61
   58    57    62   126	 9 ;     CG2R61     CG2R61     CG2R61      HGR61
   57    58    59    60	 9 ;     CG2R61     CG2R61     CG2R61     CG2R61
   57    58    59   123	 9 ;     CG2R61     CG2R61     CG2R61      HGR61
  122    58    59    60	 9 ;      HGR61     CG2R61     CG2R61     CG2R61
  122    58    59   123	 9 ;      HGR61     CG2R61     CG2R61      HGR61
   58    59    60    61	 9 ;     CG2R61     CG2R61     CG2R61     CG2R61
   58    59    60   124	 9 ;     CG2R61     CG2R61     CG2R61      HGR61
  123    59    60    61	 9 ;      HGR61     CG2R61     CG2R61     CG2R61
  123    59    60   124	 9 ;      HGR61     CG2R61     CG2R61      HGR61
   59    60    61    62	 9 ;     CG2R61     CG2R61     CG2R61     CG2R61
   59    60    61   125	 9 ;     CG2R61     CG2R61     CG2R61      HGR61
  124    60    61    62	 9 ;      HGR61     CG2R61     CG2R61     CG2R61
  124    60    61   125	 9 ;      HGR61     CG2R61     CG2R61      HGR61
   60    61    62    57	 9 ;     CG2R61     CG2R61     CG2R61     CG2R61
   60    61    62   126	 9 ;     CG2R61     CG2R61     CG2R61      HGR61
  125    61    62    57	 9 ;      HGR61     CG2R61     CG2R61     CG2R61
  125    61    62   126	 9 ;      HGR61     CG2R61     CG2R61      HGR61

[ dihedrals ]
;	ai	  aj	ak	  al funct			  c0			c1			  c2			c3
   17    16    64    65	 2
   22    23    68    67	 2
   32    30    33    69	 2
   34    35    71    70	 2
   47    48    75    74	 2
   50    51    15    76	 2

;[ virtual_sites2 ]
; Site   from				funct a
;   127     6     4     2   -0.189

;[ exclusions ]
;	ai	  aj
;    6; ;   127	 1
;   127     4	 1
;   127     2	 1
;   127    13	 1
;   127    14	 1
;   127     3	 1
;   127     5	 1
;   127    63	 1

