; Created by cgenff_charmm2gmx.py

[ moleculetype ]
; Name			   nrexcl
PTX				 3

[ atoms ]
;	 nr		  type	resnr residue  atom   cgnr	   charge		mass  typeB    chargeB		massB
; residue	 1 PTX rtp PTX q	qsum
     1      CG331      1    PTL     C1      1     -0.098     12.011   ;
     2      CG321      1    PTL     C2      2     -0.009     12.011   ;
     3      CG321      1    PTL     C3      3     -0.009     12.011   ;
     4      CG321      1    PTL     C4      4     -0.009     12.011   ;
     5      CG321      1    PTL     C5      5     -0.009     12.011   ;
     6      CG321      1    PTL     C6      6     -0.009     12.011   ;
     7      CG321      1    PTL     C7      7      0.036     12.011   ;
     8      CG301      1    PTL     C8      8      0.391     12.011   ;
     9      CG331      1    PTL     C9      9     -0.269     12.011   ;
    10      CG331      1    PTL    C10     10     -0.269     12.011   ;
    11      OG301      1    PTL     O1     11     -0.343     15.999   ;
    12      OG301      1    PTL     O2     12     -0.342     15.999   ;
    13      OG301      1    PTL     O3     13     -0.342     15.999   ;
    14      OG301      1    PTL     O4     14     -0.402     15.999   ;
    15       HGA3      1    PTL     H1     15      0.090      1.008   ;
    16       HGA3      1    PTL     H2     16      0.090      1.008   ;
    17       HGA3      1    PTL     H3     17      0.090      1.008   ;
    18       HGA2      1    PTL     H4     18      0.090      1.008   ;
    19       HGA2      1    PTL     H5     19      0.090      1.008   ;
    20       HGA2      1    PTL     H6     20      0.090      1.008   ;
    21       HGA2      1    PTL     H7     21      0.090      1.008   ;
    22       HGA2      1    PTL     H8     22      0.090      1.008   ;
    23       HGA2      1    PTL     H9     23      0.090      1.008   ;
    24       HGA2      1    PTL    H10     24      0.090      1.008   ;
    25       HGA2      1    PTL    H11     25      0.090      1.008   ;
    26       HGA2      1    PTL    H12     26      0.090      1.008   ;
    27       HGA2      1    PTL    H13     27      0.090      1.008   ;
    28       HGA2      1    PTL    H14     28      0.090      1.008   ;
    29       HGA2      1    PTL    H15     29      0.090      1.008   ;
    30       HGA3      1    PTL    H16     30      0.090      1.008   ;
    31       HGA3      1    PTL    H17     31      0.090      1.008   ;
    32       HGA3      1    PTL    H18     32      0.090      1.008   ;
    33       HGA3      1    PTL    H19     33      0.090      1.008   ;
    34       HGA3      1    PTL    H20     34      0.090      1.008   ;
    35       HGA3      1    PTL    H21     35      0.090      1.008   ;
    36      NG2S1      1    PTX      N     36     -0.404     14.007   ;
    37      CG311      1    PTX    C11     37      0.183     12.011   ;
    38      CG2O2      1    PTX    C12     38      0.850     12.011   ;
    39      CG311      1    PTX    C13     39      0.272     12.011   ;
    40      CG321      1    PTX    C14     40     -0.212     12.011   ;
    41      CG301      1    PTX    C15     41      0.186     12.011   ;
    42      CG311      1    PTX    C16     42      0.133     12.011   ;
    43      CG2O2      1    PTX    C17     43      0.459     12.011   ;
    44     CG2R61      1    PTX    C18     44      0.086     12.011   ;
    45     CG2R61      1    PTX    C19     45     -0.110     12.011   ;
    46     CG2R61      1    PTX    C20     46     -0.114     12.011   ;
    47     CG2R61      1    PTX    C21     47     -0.115     12.011   ;
    48     CG2R61      1    PTX    C22     48     -0.114     12.011   ;
    49     CG2R61      1    PTX    C23     49     -0.110     12.011   ;
    50      CG311      1    PTX    C24     50     -0.074     12.011   ;
    51      CG301      1    PTX    C25     51      0.081     12.011   ;
    52      CG331      1    PTX    C26     52     -0.263     12.011   ;
    53      CG2O5      1    PTX    C27     53      0.297     12.011   ;
    54      CG311      1    PTX    C28     54      0.432     12.011   ;
    55      CG2O2      1    PTX    C29     55      0.834     12.011   ;
    56      CG331      1    PTX    C30     56     -0.311     12.011   ;
    57      CG2D1      1    PTX    C31     57     -0.113     12.011   ;
    58      CG2D1      1    PTX    C32     58     -0.153     12.011   ;
    59      CG331      1    PTX    C33     59     -0.265     12.011   ;
    60      CG301      1    PTX    C34     60      0.016     12.011   ;
    61      CG331      1    PTX    C35     61     -0.269     12.011   ;
    62      CG331      1    PTX    C36     62     -0.269     12.011   ;
    63      CG311      1    PTX    C37     63      0.166     12.011   ;
    64      CG321      1    PTX    C38     64     -0.201     12.011   ;
    65     CG3RC1      1    PTX    C39     65      0.015     12.011   ;
    66     CG3C41      1    PTX    C40     66     -0.106     12.011   ;
    67     CG3RC1      1    PTX    C41     67      0.366     12.011   ;
    68      CG2O2      1    PTX    C42     68      0.885     12.011   ;
    69      CG331      1    PTX    C43     69     -0.313     12.011   ;
    70      CG311      1    PTX    C44     70      0.127     12.011   ;
    71      CG2O1      1    PTX    C45     71      0.341     12.011   ;
    72     CG2R61      1    PTX    C46     72     -0.137     12.011   ;
    73     CG2R61      1    PTX    C47     73     -0.024     12.011   ;
    74     CG2R61      1    PTX    C48     74     -0.109     12.011   ;
    75     CG2R61      1    PTX    C49     75     -0.115     12.011   ;
    76     CG2R61      1    PTX    C50     76     -0.109     12.011   ;
    77     CG2R61      1    PTX    C51     77     -0.024     12.011   ;
    78     CG2R61      1    PTX    C52     78     -0.040     12.011   ;
    79     CG2R61      1    PTX    C53     79     -0.106     12.011   ;
    80     CG2R61      1    PTX    C54     80     -0.115     12.011   ;
    81     CG2R61      1    PTX    C55     81     -0.115     12.011   ;
    82     CG2R61      1    PTX    C56     82     -0.115     12.011   ;
    83     CG2R61      1    PTX    C57     83     -0.106     12.011   ;
    84      OG301      1    PTX     O5     84     -0.506     15.999   ;
    85      OG2D1      1    PTX     O6     85     -0.623     15.999   ;
    86      OG302      1    PTX     O7     86     -0.432     15.999   ;
    87      OG311      1    PTX     O8     87     -0.460     15.999   ;
    88      OG302      1    PTX     O9     88     -0.310     15.999   ;
    89      OG2D1      1    PTX    O10     89     -0.496     15.999   ;
    90      OG2D3      1    PTX    O11     90     -0.515     15.999   ;
    91      OG302      1    PTX    O12     91     -0.427     15.999   ;
    92      OG2D1      1    PTX    O13     92     -0.625     15.999   ;
    93      OG311      1    PTX    O14     93     -0.642     15.999   ;
    94     OG3C51      1    PTX    O15     94     -0.343     15.999   ;
    95      OG302      1    PTX    O16     95     -0.422     15.999   ;
    96      OG2D1      1    PTX    O17     96     -0.617     15.999   ;
    97      OG2D1      1    PTX    O18     97     -0.458     15.999   ;
    98       HGA1      1    PTX    H22     98      0.090      1.008   ;
    99       HGA1      1    PTX    H23     99      0.090      1.008   ;
   100       HGA2      1    PTX    H24    100      0.090      1.008   ;
   101       HGA2      1    PTX    H25    101      0.090      1.008   ;
   102       HGP1      1    PTX    H26    102      0.292      1.008   ;
   103       HGA1      1    PTX    H27    103      0.090      1.008   ;
   104      HGR61      1    PTX    H28    104      0.115      1.008   ;
   105      HGR61      1    PTX    H29    105      0.115      1.008   ;
   106      HGR61      1    PTX    H30    106      0.115      1.008   ;
   107      HGR61      1    PTX    H31    107      0.115      1.008   ;
   108      HGR61      1    PTX    H32    108      0.115      1.008   ;
   109       HGA1      1    PTX    H33    109      0.090      1.008   ;
   110       HGA3      1    PTX    H34    110      0.090      1.008   ;
   111       HGA3      1    PTX    H35    111      0.090      1.008   ;
   112       HGA3      1    PTX    H36    112      0.090      1.008   ;
   113       HGA1      1    PTX    H37    113      0.090      1.008   ;
   114       HGA3      1    PTX    H38    114      0.090      1.008   ;
   115       HGA3      1    PTX    H39    115      0.090      1.008   ;
   116       HGA3      1    PTX    H40    116      0.090      1.008   ;
   117       HGA3      1    PTX    H41    117      0.090      1.008   ;
   118       HGA3      1    PTX    H42    118      0.090      1.008   ;
   119       HGA3      1    PTX    H43    119      0.090      1.008   ;
   120       HGA3      1    PTX    H44    120      0.090      1.008   ;
   121       HGA3      1    PTX    H45    121      0.090      1.008   ;
   122       HGA3      1    PTX    H46    122      0.090      1.008   ;
   123       HGA3      1    PTX    H47    123      0.090      1.008   ;
   124       HGA3      1    PTX    H48    124      0.090      1.008   ;
   125       HGA3      1    PTX    H49    125      0.090      1.008   ;
   126       HGA1      1    PTX    H50    126      0.090      1.008   ;
   127       HGP1      1    PTX    H51    127      0.400      1.008   ;
   128       HGA2      1    PTX    H52    128      0.090      1.008   ;
   129       HGA2      1    PTX    H53    129      0.090      1.008   ;
   130       HGA1      1    PTX    H54    130      0.090      1.008   ;
   131       HGA2      1    PTX    H55    131      0.090      1.008   ;
   132       HGA2      1    PTX    H56    132      0.090      1.008   ;
   133       HGA3      1    PTX    H57    133      0.090      1.008   ;
   134       HGA3      1    PTX    H58    134      0.090      1.008   ;
   135       HGA3      1    PTX    H59    135      0.090      1.008   ;
   136       HGA1      1    PTX    H60    136      0.090      1.008   ;
   137       HGP1      1    PTX    H61    137      0.274      1.008   ;
   138      HGR61      1    PTX    H62    138      0.115      1.008   ;
   139      HGR61      1    PTX    H63    139      0.115      1.008   ;
   140      HGR61      1    PTX    H64    140      0.115      1.008   ;
   141      HGR61      1    PTX    H65    141      0.115      1.008   ;
   142      HGR61      1    PTX    H66    142      0.115      1.008   ;
   143      HGR61      1    PTX    H67    143      0.115      1.008   ;
   144      HGR61      1    PTX    H68    144      0.115      1.008   ;
   145      HGR61      1    PTX    H69    145      0.115      1.008   ;
   146      HGR61      1    PTX    H70    146      0.115      1.008   ;
   147      HGR61      1    PTX    H71    147      0.115      1.008   ;

[ bonds ]
;	ai	  aj funct			  c0			c1			  c2			c3
    1    11	 1 ;       CG331      OG301
    1    15	 1 ;       CG331       HGA3
    1    16	 1 ;       CG331       HGA3
    1    17	 1 ;       CG331       HGA3
    2     3	 1 ;       CG321      CG321
    2    18	 1 ;       CG321       HGA2
    2    19	 1 ;       CG321       HGA2
    2    11	 1 ;       CG321      OG301
    3    12	 1 ;       CG321      OG301
    3    20	 1 ;       CG321       HGA2
    3    21	 1 ;       CG321       HGA2
    4     5	 1 ;       CG321      CG321
    4    22	 1 ;       CG321       HGA2
    4    23	 1 ;       CG321       HGA2
    4    12	 1 ;       CG321      OG301
    5    13	 1 ;       CG321      OG301
    5    24	 1 ;       CG321       HGA2
    5    25	 1 ;       CG321       HGA2
    6     7	 1 ;       CG321      CG321
    6    26	 1 ;       CG321       HGA2
    6    27	 1 ;       CG321       HGA2
    6    13	 1 ;       CG321      OG301
    7    14	 1 ;       CG321      OG301
    7    28	 1 ;       CG321       HGA2
    7    29	 1 ;       CG321       HGA2
    8     9	 1 ;       CG301      CG331
    8    10	 1 ;       CG301      CG331
    8    84	 1 ;       CG301      OG301
    8    14	 1 ;       CG301      OG301
    9    30	 1 ;       CG331       HGA3
    9    31	 1 ;       CG331       HGA3
    9    32	 1 ;       CG331       HGA3
   10    33	 1 ;       CG331       HGA3
   10    34	 1 ;       CG331       HGA3
   10    35	 1 ;       CG331       HGA3
   36    71	 1 ;       NG2S1      CG2O1
   36   137	 1 ;       NG2S1       HGP1
   36    70	 1 ;       NG2S1      CG311
   37    38	 1 ;       CG311      CG2O2
   37    70	 1 ;       CG311      CG311
   37    98	 1 ;       CG311       HGA1
   37    84	 1 ;       CG311      OG301
   38    85	 1 ;       CG2O2      OG2D1
   38    86	 1 ;       CG2O2      OG302
   39    40	 1 ;       CG311      CG321
   39    58	 1 ;       CG311      CG2D1
   39    99	 1 ;       CG311       HGA1
   39    86	 1 ;       CG311      OG302
   40    41	 1 ;       CG321      CG301
   40   100	 1 ;       CG321       HGA2
   40   101	 1 ;       CG321       HGA2
   41    42	 1 ;       CG301      CG311
   41    60	 1 ;       CG301      CG301
   41    87	 1 ;       CG301      OG311
   42    50	 1 ;       CG311      CG311
   42    88	 1 ;       CG311      OG302
   42   103	 1 ;       CG311       HGA1
   43    44	 1 ;       CG2O2     CG2R61
   43    89	 1 ;       CG2O2      OG2D1
   43    88	 1 ;       CG2O2      OG302
   44    45	 1 ;      CG2R61     CG2R61
   44    49	 1 ;      CG2R61     CG2R61
   45    46	 1 ;      CG2R61     CG2R61
   45   104	 1 ;      CG2R61      HGR61
   46    47	 1 ;      CG2R61     CG2R61
   46   105	 1 ;      CG2R61      HGR61
   47    48	 1 ;      CG2R61     CG2R61
   47   106	 1 ;      CG2R61      HGR61
   48    49	 1 ;      CG2R61     CG2R61
   48   107	 1 ;      CG2R61      HGR61
   49   108	 1 ;      CG2R61      HGR61
   50    51	 1 ;       CG311      CG301
   50    67	 1 ;       CG311     CG3RC1
   50   109	 1 ;       CG311       HGA1
   51    52	 1 ;       CG301      CG331
   51    53	 1 ;       CG301      CG2O5
   51    63	 1 ;       CG301      CG311
   52   110	 1 ;       CG331       HGA3
   52   111	 1 ;       CG331       HGA3
   52   112	 1 ;       CG331       HGA3
   53    54	 1 ;       CG2O5      CG311
   53    90	 1 ;       CG2O5      OG2D3
   54    57	 1 ;       CG311      CG2D1
   54    91	 1 ;       CG311      OG302
   54   113	 1 ;       CG311       HGA1
   55    56	 1 ;       CG2O2      CG331
   55    92	 1 ;       CG2O2      OG2D1
   55    91	 1 ;       CG2O2      OG302
   56   114	 1 ;       CG331       HGA3
   56   115	 1 ;       CG331       HGA3
   56   116	 1 ;       CG331       HGA3
   57    58	 1 ;       CG2D1      CG2D1
   57    60	 1 ;       CG2D1      CG301
   58    59	 1 ;       CG2D1      CG331
   59   117	 1 ;       CG331       HGA3
   59   118	 1 ;       CG331       HGA3
   59   119	 1 ;       CG331       HGA3
   60    61	 1 ;       CG301      CG331
   60    62	 1 ;       CG301      CG331
   61   120	 1 ;       CG331       HGA3
   61   121	 1 ;       CG331       HGA3
   61   122	 1 ;       CG331       HGA3
   62   123	 1 ;       CG331       HGA3
   62   124	 1 ;       CG331       HGA3
   62   125	 1 ;       CG331       HGA3
   63    64	 1 ;       CG311      CG321
   63    93	 1 ;       CG311      OG311
   63   126	 1 ;       CG311       HGA1
   64    65	 1 ;       CG321     CG3RC1
   64   128	 1 ;       CG321       HGA2
   64   129	 1 ;       CG321       HGA2
   65    67	 1 ;      CG3RC1     CG3RC1
   65    94	 1 ;      CG3RC1     OG3C51
   65   130	 1 ;      CG3RC1       HGA1
   66    67	 1 ;      CG3C41     CG3RC1
   66   131	 1 ;      CG3C41       HGA2
   66   132	 1 ;      CG3C41       HGA2
   66    94	 1 ;      CG3C41     OG3C51
   67    95	 1 ;      CG3RC1      OG302
   68    69	 1 ;       CG2O2      CG331
   68    96	 1 ;       CG2O2      OG2D1
   68    95	 1 ;       CG2O2      OG302
   69   133	 1 ;       CG331       HGA3
   69   134	 1 ;       CG331       HGA3
   69   135	 1 ;       CG331       HGA3
   70    78	 1 ;       CG311     CG2R61
   70   136	 1 ;       CG311       HGA1
   71    72	 1 ;       CG2O1     CG2R61
   71    97	 1 ;       CG2O1      OG2D1
   72    73	 1 ;      CG2R61     CG2R61
   72    77	 1 ;      CG2R61     CG2R61
   73    74	 1 ;      CG2R61     CG2R61
   73   138	 1 ;      CG2R61      HGR61
   74    75	 1 ;      CG2R61     CG2R61
   74   139	 1 ;      CG2R61      HGR61
   75    76	 1 ;      CG2R61     CG2R61
   75   140	 1 ;      CG2R61      HGR61
   76    77	 1 ;      CG2R61     CG2R61
   76   141	 1 ;      CG2R61      HGR61
   77   142	 1 ;      CG2R61      HGR61
   78    79	 1 ;      CG2R61     CG2R61
   78    83	 1 ;      CG2R61     CG2R61
   79    80	 1 ;      CG2R61     CG2R61
   79   143	 1 ;      CG2R61      HGR61
   80    81	 1 ;      CG2R61     CG2R61
   80   144	 1 ;      CG2R61      HGR61
   81    82	 1 ;      CG2R61     CG2R61
   81   145	 1 ;      CG2R61      HGR61
   82    83	 1 ;      CG2R61     CG2R61
   82   146	 1 ;      CG2R61      HGR61
   83   147	 1 ;      CG2R61      HGR61
   87   102	 1 ;       OG311       HGP1
   93   127	 1 ;       OG311       HGP1

[ pairs ]
;	ai	  aj funct			  c0			c1			  c2			c3
    1     3	 1
    1    18	 1
    1    19	 1
    2    15	 1
    2    16	 1
    2    17	 1
    2     4	 1
    3     5	 1
    3    22	 1
    3    23	 1
    4    20	 1
    4    21	 1
    4     6	 1
    5     7	 1
    5    26	 1
    5    27	 1
    6    24	 1
    6    25	 1
    6     8	 1
    7     9	 1
    7    10	 1
    7    84	 1
    8    28	 1
    8    29	 1
    8    38	 1
    8    70	 1
    8    98	 1
    9    33	 1
    9    34	 1
    9    35	 1
    9    37	 1
   10    30	 1
   10    31	 1
   10    32	 1
   10    37	 1
   11    12	 1
   11    20	 1
   11    21	 1
   12    18	 1
   12    19	 1
   12    13	 1
   12    24	 1
   12    25	 1
   13    22	 1
   13    23	 1
   13    14	 1
   13    28	 1
   13    29	 1
   14    26	 1
   14    27	 1
   14    30	 1
   14    31	 1
   14    32	 1
   14    33	 1
   14    34	 1
   14    35	 1
   14    37	 1
   18    20	 1
   18    21	 1
   19    20	 1
   19    21	 1
   22    24	 1
   22    25	 1
   23    24	 1
   23    25	 1
   26    28	 1
   26    29	 1
   27    28	 1
   27    29	 1
   30    84	 1
   31    84	 1
   32    84	 1
   33    84	 1
   34    84	 1
   35    84	 1
   36    38	 1
   36    98	 1
   36    84	 1
   36    79	 1
   36    83	 1
   36    73	 1
   36    77	 1
   37    71	 1
   37   137	 1
   37    39	 1
   37    79	 1
   37    83	 1
   38    78	 1
   38   136	 1
   38    40	 1
   38    58	 1
   38    99	 1
   39    85	 1
   39    42	 1
   39    60	 1
   39    87	 1
   39    54	 1
   39   117	 1
   39   118	 1
   39   119	 1
   40    57	 1
   40    59	 1
   40    50	 1
   40    88	 1
   40   103	 1
   40    61	 1
   40    62	 1
   40   102	 1
   41    58	 1
   41    99	 1
   41    86	 1
   41    51	 1
   41    67	 1
   41   109	 1
   41    43	 1
   41    54	 1
   41   120	 1
   41   121	 1
   41   122	 1
   41   123	 1
   41   124	 1
   41   125	 1
   42   100	 1
   42   101	 1
   42    57	 1
   42    61	 1
   42    62	 1
   42   102	 1
   42    44	 1
   42    89	 1
   42    52	 1
   42    53	 1
   42    63	 1
   42    65	 1
   42    66	 1
   42    95	 1
   43    50	 1
   43   103	 1
   43    46	 1
   43   104	 1
   43    48	 1
   43   108	 1
   44    47	 1
   44   105	 1
   44   107	 1
   45    89	 1
   45    88	 1
   45    48	 1
   45   108	 1
   45   106	 1
   46    49	 1
   46   107	 1
   47   104	 1
   47   108	 1
   48   105	 1
   49    89	 1
   49    88	 1
   49   104	 1
   49   106	 1
   50    60	 1
   50    87	 1
   50   110	 1
   50   111	 1
   50   112	 1
   50    54	 1
   50    90	 1
   50    64	 1
   50    93	 1
   50   126	 1
   50    94	 1
   50   130	 1
   50   131	 1
   50   132	 1
   50    68	 1
   51    88	 1
   51   103	 1
   51    65	 1
   51    66	 1
   51    95	 1
   51    57	 1
   51    91	 1
   51   113	 1
   51   128	 1
   51   129	 1
   51   127	 1
   52    67	 1
   52   109	 1
   52    54	 1
   52    90	 1
   52    64	 1
   52    93	 1
   52   126	 1
   53    67	 1
   53   109	 1
   53   110	 1
   53   111	 1
   53   112	 1
   53    64	 1
   53    93	 1
   53   126	 1
   53    58	 1
   53    60	 1
   53    55	 1
   54    63	 1
   54    56	 1
   54    92	 1
   54    59	 1
   54    61	 1
   54    62	 1
   55    57	 1
   55   113	 1
   57    99	 1
   57    86	 1
   57    87	 1
   57    90	 1
   57   117	 1
   57   118	 1
   57   119	 1
   57   120	 1
   57   121	 1
   57   122	 1
   57   123	 1
   57   124	 1
   57   125	 1
   58   100	 1
   58   101	 1
   58    91	 1
   58   113	 1
   58    61	 1
   58    62	 1
   59    99	 1
   59    86	 1
   59    60	 1
   60   100	 1
   60   101	 1
   60    88	 1
   60   103	 1
   60   102	 1
   60    91	 1
   60   113	 1
   61    87	 1
   61   123	 1
   61   124	 1
   61   125	 1
   62    87	 1
   62   120	 1
   62   121	 1
   62   122	 1
   63    67	 1
   63   109	 1
   63   110	 1
   63   111	 1
   63   112	 1
   63    90	 1
   63    94	 1
   63   130	 1
   64   127	 1
   64    66	 1
   64    95	 1
   65   109	 1
   65    93	 1
   65   126	 1
   65   131	 1
   65   132	 1
   65    68	 1
   66   109	 1
   66   130	 1
   66    68	 1
   67    88	 1
   67   103	 1
   67   128	 1
   67   129	 1
   67    69	 1
   67    96	 1
   70    72	 1
   70    97	 1
   70    85	 1
   70    86	 1
   70    80	 1
   70   143	 1
   70    82	 1
   70   147	 1
   71    78	 1
   71   136	 1
   71    74	 1
   71   138	 1
   71    76	 1
   71   142	 1
   72   137	 1
   72    75	 1
   72   139	 1
   72   141	 1
   73    97	 1
   73    76	 1
   73   142	 1
   73   140	 1
   74    77	 1
   74   141	 1
   75   138	 1
   75   142	 1
   76   139	 1
   77    97	 1
   77   138	 1
   77   140	 1
   78   137	 1
   78    98	 1
   78    84	 1
   78    81	 1
   78   144	 1
   78   146	 1
   79   136	 1
   79    82	 1
   79   147	 1
   79   145	 1
   80    83	 1
   80   146	 1
   81   143	 1
   81   147	 1
   82   144	 1
   83   136	 1
   83   143	 1
   83   145	 1
   84    85	 1
   84    86	 1
   84   136	 1
   85    98	 1
   86    98	 1
   86   100	 1
   86   101	 1
   87   100	 1
   87   101	 1
   87    88	 1
   87   103	 1
   88   109	 1
   90    91	 1
   90   113	 1
   91   114	 1
   91   115	 1
   91   116	 1
   92   114	 1
   92   115	 1
   92   116	 1
   93   128	 1
   93   129	 1
   94   128	 1
   94   129	 1
   94    95	 1
   95   109	 1
   95   130	 1
   95   131	 1
   95   132	 1
   95   133	 1
   95   134	 1
   95   135	 1
   96   133	 1
   96   134	 1
   96   135	 1
   97   137	 1
   98   136	 1
   99   100	 1
   99   101	 1
  103   109	 1
  104   105	 1
  105   106	 1
  106   107	 1
  107   108	 1
  126   128	 1
  126   129	 1
  126   127	 1
  128   130	 1
  129   130	 1
  136   137	 1
  138   139	 1
  139   140	 1
  140   141	 1
  141   142	 1
  143   144	 1
  144   145	 1
  145   146	 1
  146   147	 1

[ angles ]
;	ai	  aj	ak funct			c0			  c1			c2			  c3
   11     1    15	5 ;      OG301      CG331       HGA3
   11     1    16	5 ;      OG301      CG331       HGA3
   11     1    17	5 ;      OG301      CG331       HGA3
   15     1    16	5 ;       HGA3      CG331       HGA3
   15     1    17	5 ;       HGA3      CG331       HGA3
   16     1    17	5 ;       HGA3      CG331       HGA3
    3     2    18	5 ;      CG321      CG321       HGA2
    3     2    19	5 ;      CG321      CG321       HGA2
    3     2    11	5 ;      CG321      CG321      OG301
   18     2    19	5 ;       HGA2      CG321       HGA2
   18     2    11	5 ;       HGA2      CG321      OG301
   19     2    11	5 ;       HGA2      CG321      OG301
    2     3    12	5 ;      CG321      CG321      OG301
    2     3    20	5 ;      CG321      CG321       HGA2
    2     3    21	5 ;      CG321      CG321       HGA2
   12     3    20	5 ;      OG301      CG321       HGA2
   12     3    21	5 ;      OG301      CG321       HGA2
   20     3    21	5 ;       HGA2      CG321       HGA2
    5     4    22	5 ;      CG321      CG321       HGA2
    5     4    23	5 ;      CG321      CG321       HGA2
    5     4    12	5 ;      CG321      CG321      OG301
   22     4    23	5 ;       HGA2      CG321       HGA2
   22     4    12	5 ;       HGA2      CG321      OG301
   23     4    12	5 ;       HGA2      CG321      OG301
    4     5    13	5 ;      CG321      CG321      OG301
    4     5    24	5 ;      CG321      CG321       HGA2
    4     5    25	5 ;      CG321      CG321       HGA2
   13     5    24	5 ;      OG301      CG321       HGA2
   13     5    25	5 ;      OG301      CG321       HGA2
   24     5    25	5 ;       HGA2      CG321       HGA2
    7     6    26	5 ;      CG321      CG321       HGA2
    7     6    27	5 ;      CG321      CG321       HGA2
    7     6    13	5 ;      CG321      CG321      OG301
   26     6    27	5 ;       HGA2      CG321       HGA2
   26     6    13	5 ;       HGA2      CG321      OG301
   27     6    13	5 ;       HGA2      CG321      OG301
    6     7    14	5 ;      CG321      CG321      OG301
    6     7    28	5 ;      CG321      CG321       HGA2
    6     7    29	5 ;      CG321      CG321       HGA2
   14     7    28	5 ;      OG301      CG321       HGA2
   14     7    29	5 ;      OG301      CG321       HGA2
   28     7    29	5 ;       HGA2      CG321       HGA2
    9     8    10	5 ;      CG331      CG301      CG331
    9     8    84	5 ;      CG331      CG301      OG301
    9     8    14	5 ;      CG331      CG301      OG301
   10     8    84	5 ;      CG331      CG301      OG301
   10     8    14	5 ;      CG331      CG301      OG301
   84     8    14	5 ;      OG301      CG301      OG301
    8     9    30	5 ;      CG301      CG331       HGA3
    8     9    31	5 ;      CG301      CG331       HGA3
    8     9    32	5 ;      CG301      CG331       HGA3
   30     9    31	5 ;       HGA3      CG331       HGA3
   30     9    32	5 ;       HGA3      CG331       HGA3
   31     9    32	5 ;       HGA3      CG331       HGA3
    8    10    33	5 ;      CG301      CG331       HGA3
    8    10    34	5 ;      CG301      CG331       HGA3
    8    10    35	5 ;      CG301      CG331       HGA3
   33    10    34	5 ;       HGA3      CG331       HGA3
   33    10    35	5 ;       HGA3      CG331       HGA3
   34    10    35	5 ;       HGA3      CG331       HGA3
    1    11     2	5 ;      CG331      OG301      CG321
    3    12     4	5 ;      CG321      OG301      CG321
    5    13     6	5 ;      CG321      OG301      CG321
    7    14     8	5 ;      CG321      OG301      CG301
   71    36   137	5 ;      CG2O1      NG2S1       HGP1
   71    36    70	5 ;      CG2O1      NG2S1      CG311
  137    36    70	5 ;       HGP1      NG2S1      CG311
   38    37    70	5 ;      CG2O2      CG311      CG311
   38    37    98	5 ;      CG2O2      CG311       HGA1
   38    37    84	5 ;      CG2O2      CG311      OG301
   70    37    98	5 ;      CG311      CG311       HGA1
   70    37    84	5 ;      CG311      CG311      OG301
   98    37    84	5 ;       HGA1      CG311      OG301
   37    38    85	5 ;      CG311      CG2O2      OG2D1
   37    38    86	5 ;      CG311      CG2O2      OG302
   85    38    86	5 ;      OG2D1      CG2O2      OG302
   40    39    58	5 ;      CG321      CG311      CG2D1
   40    39    99	5 ;      CG321      CG311       HGA1
   40    39    86	5 ;      CG321      CG311      OG302
   58    39    99	5 ;      CG2D1      CG311       HGA1
   58    39    86	5 ;      CG2D1      CG311      OG302
   99    39    86	5 ;       HGA1      CG311      OG302
   39    40    41	5 ;      CG311      CG321      CG301
   39    40   100	5 ;      CG311      CG321       HGA2
   39    40   101	5 ;      CG311      CG321       HGA2
   41    40   100	5 ;      CG301      CG321       HGA2
   41    40   101	5 ;      CG301      CG321       HGA2
  100    40   101	5 ;       HGA2      CG321       HGA2
   40    41    42	5 ;      CG321      CG301      CG311
   40    41    60	5 ;      CG321      CG301      CG301
   40    41    87	5 ;      CG321      CG301      OG311
   42    41    60	5 ;      CG311      CG301      CG301
   42    41    87	5 ;      CG311      CG301      OG311
   60    41    87	5 ;      CG301      CG301      OG311
   41    42    50	5 ;      CG301      CG311      CG311
   41    42    88	5 ;      CG301      CG311      OG302
   41    42   103	5 ;      CG301      CG311       HGA1
   50    42    88	5 ;      CG311      CG311      OG302
   50    42   103	5 ;      CG311      CG311       HGA1
   88    42   103	5 ;      OG302      CG311       HGA1
   44    43    89	5 ;     CG2R61      CG2O2      OG2D1
   44    43    88	5 ;     CG2R61      CG2O2      OG302
   89    43    88	5 ;      OG2D1      CG2O2      OG302
   43    44    45	5 ;      CG2O2     CG2R61     CG2R61
   43    44    49	5 ;      CG2O2     CG2R61     CG2R61
   45    44    49	5 ;     CG2R61     CG2R61     CG2R61
   44    45    46	5 ;     CG2R61     CG2R61     CG2R61
   44    45   104	5 ;     CG2R61     CG2R61      HGR61
   46    45   104	5 ;     CG2R61     CG2R61      HGR61
   45    46    47	5 ;     CG2R61     CG2R61     CG2R61
   45    46   105	5 ;     CG2R61     CG2R61      HGR61
   47    46   105	5 ;     CG2R61     CG2R61      HGR61
   46    47    48	5 ;     CG2R61     CG2R61     CG2R61
   46    47   106	5 ;     CG2R61     CG2R61      HGR61
   48    47   106	5 ;     CG2R61     CG2R61      HGR61
   47    48    49	5 ;     CG2R61     CG2R61     CG2R61
   47    48   107	5 ;     CG2R61     CG2R61      HGR61
   49    48   107	5 ;     CG2R61     CG2R61      HGR61
   44    49    48	5 ;     CG2R61     CG2R61     CG2R61
   44    49   108	5 ;     CG2R61     CG2R61      HGR61
   48    49   108	5 ;     CG2R61     CG2R61      HGR61
   42    50    51	5 ;      CG311      CG311      CG301
   42    50    67	5 ;      CG311      CG311     CG3RC1
   42    50   109	5 ;      CG311      CG311       HGA1
   51    50    67	5 ;      CG301      CG311     CG3RC1
   51    50   109	5 ;      CG301      CG311       HGA1
   67    50   109	5 ;     CG3RC1      CG311       HGA1
   50    51    52	5 ;      CG311      CG301      CG331
   50    51    53	5 ;      CG311      CG301      CG2O5
   50    51    63	5 ;      CG311      CG301      CG311
   52    51    53	5 ;      CG331      CG301      CG2O5
   52    51    63	5 ;      CG331      CG301      CG311
   53    51    63	5 ;      CG2O5      CG301      CG311
   51    52   110	5 ;      CG301      CG331       HGA3
   51    52   111	5 ;      CG301      CG331       HGA3
   51    52   112	5 ;      CG301      CG331       HGA3
  110    52   111	5 ;       HGA3      CG331       HGA3
  110    52   112	5 ;       HGA3      CG331       HGA3
  111    52   112	5 ;       HGA3      CG331       HGA3
   51    53    54	5 ;      CG301      CG2O5      CG311
   51    53    90	5 ;      CG301      CG2O5      OG2D3
   54    53    90	5 ;      CG311      CG2O5      OG2D3
   53    54    57	5 ;      CG2O5      CG311      CG2D1
   53    54    91	5 ;      CG2O5      CG311      OG302
   53    54   113	5 ;      CG2O5      CG311       HGA1
   57    54    91	5 ;      CG2D1      CG311      OG302
   57    54   113	5 ;      CG2D1      CG311       HGA1
   91    54   113	5 ;      OG302      CG311       HGA1
   56    55    92	5 ;      CG331      CG2O2      OG2D1
   56    55    91	5 ;      CG331      CG2O2      OG302
   92    55    91	5 ;      OG2D1      CG2O2      OG302
   55    56   114	5 ;      CG2O2      CG331       HGA3
   55    56   115	5 ;      CG2O2      CG331       HGA3
   55    56   116	5 ;      CG2O2      CG331       HGA3
  114    56   115	5 ;       HGA3      CG331       HGA3
  114    56   116	5 ;       HGA3      CG331       HGA3
  115    56   116	5 ;       HGA3      CG331       HGA3
   54    57    58	5 ;      CG311      CG2D1      CG2D1
   54    57    60	5 ;      CG311      CG2D1      CG301
   58    57    60	5 ;      CG2D1      CG2D1      CG301
   39    58    57	5 ;      CG311      CG2D1      CG2D1
   39    58    59	5 ;      CG311      CG2D1      CG331
   57    58    59	5 ;      CG2D1      CG2D1      CG331
   58    59   117	5 ;      CG2D1      CG331       HGA3
   58    59   118	5 ;      CG2D1      CG331       HGA3
   58    59   119	5 ;      CG2D1      CG331       HGA3
  117    59   118	5 ;       HGA3      CG331       HGA3
  117    59   119	5 ;       HGA3      CG331       HGA3
  118    59   119	5 ;       HGA3      CG331       HGA3
   41    60    57	5 ;      CG301      CG301      CG2D1
   41    60    61	5 ;      CG301      CG301      CG331
   41    60    62	5 ;      CG301      CG301      CG331
   57    60    61	5 ;      CG2D1      CG301      CG331
   57    60    62	5 ;      CG2D1      CG301      CG331
   61    60    62	5 ;      CG331      CG301      CG331
   60    61   120	5 ;      CG301      CG331       HGA3
   60    61   121	5 ;      CG301      CG331       HGA3
   60    61   122	5 ;      CG301      CG331       HGA3
  120    61   121	5 ;       HGA3      CG331       HGA3
  120    61   122	5 ;       HGA3      CG331       HGA3
  121    61   122	5 ;       HGA3      CG331       HGA3
   60    62   123	5 ;      CG301      CG331       HGA3
   60    62   124	5 ;      CG301      CG331       HGA3
   60    62   125	5 ;      CG301      CG331       HGA3
  123    62   124	5 ;       HGA3      CG331       HGA3
  123    62   125	5 ;       HGA3      CG331       HGA3
  124    62   125	5 ;       HGA3      CG331       HGA3
   51    63    64	5 ;      CG301      CG311      CG321
   51    63    93	5 ;      CG301      CG311      OG311
   51    63   126	5 ;      CG301      CG311       HGA1
   64    63    93	5 ;      CG321      CG311      OG311
   64    63   126	5 ;      CG321      CG311       HGA1
   93    63   126	5 ;      OG311      CG311       HGA1
   63    64    65	5 ;      CG311      CG321     CG3RC1
   63    64   128	5 ;      CG311      CG321       HGA2
   63    64   129	5 ;      CG311      CG321       HGA2
   65    64   128	5 ;     CG3RC1      CG321       HGA2
   65    64   129	5 ;     CG3RC1      CG321       HGA2
  128    64   129	5 ;       HGA2      CG321       HGA2
   64    65    67	5 ;      CG321     CG3RC1     CG3RC1
   64    65    94	5 ;      CG321     CG3RC1     OG3C51
   64    65   130	5 ;      CG321     CG3RC1       HGA1
   67    65    94	5 ;     CG3RC1     CG3RC1     OG3C51
   67    65   130	5 ;     CG3RC1     CG3RC1       HGA1
   94    65   130	5 ;     OG3C51     CG3RC1       HGA1
   67    66   131	5 ;     CG3RC1     CG3C41       HGA2
   67    66   132	5 ;     CG3RC1     CG3C41       HGA2
   67    66    94	5 ;     CG3RC1     CG3C41     OG3C51
  131    66   132	5 ;       HGA2     CG3C41       HGA2
  131    66    94	5 ;       HGA2     CG3C41     OG3C51
  132    66    94	5 ;       HGA2     CG3C41     OG3C51
   50    67    65	5 ;      CG311     CG3RC1     CG3RC1
   50    67    66	5 ;      CG311     CG3RC1     CG3C41
   50    67    95	5 ;      CG311     CG3RC1      OG302
   65    67    66	5 ;     CG3RC1     CG3RC1     CG3C41
   65    67    95	5 ;     CG3RC1     CG3RC1      OG302
   66    67    95	5 ;     CG3C41     CG3RC1      OG302
   69    68    96	5 ;      CG331      CG2O2      OG2D1
   69    68    95	5 ;      CG331      CG2O2      OG302
   96    68    95	5 ;      OG2D1      CG2O2      OG302
   68    69   133	5 ;      CG2O2      CG331       HGA3
   68    69   134	5 ;      CG2O2      CG331       HGA3
   68    69   135	5 ;      CG2O2      CG331       HGA3
  133    69   134	5 ;       HGA3      CG331       HGA3
  133    69   135	5 ;       HGA3      CG331       HGA3
  134    69   135	5 ;       HGA3      CG331       HGA3
   37    70    36	5 ;      CG311      CG311      NG2S1
   37    70    78	5 ;      CG311      CG311     CG2R61
   37    70   136	5 ;      CG311      CG311       HGA1
   36    70    78	5 ;      NG2S1      CG311     CG2R61
   36    70   136	5 ;      NG2S1      CG311       HGA1
   78    70   136	5 ;     CG2R61      CG311       HGA1
   36    71    72	5 ;      NG2S1      CG2O1     CG2R61
   36    71    97	5 ;      NG2S1      CG2O1      OG2D1
   72    71    97	5 ;     CG2R61      CG2O1      OG2D1
   71    72    73	5 ;      CG2O1     CG2R61     CG2R61
   71    72    77	5 ;      CG2O1     CG2R61     CG2R61
   73    72    77	5 ;     CG2R61     CG2R61     CG2R61
   72    73    74	5 ;     CG2R61     CG2R61     CG2R61
   72    73   138	5 ;     CG2R61     CG2R61      HGR61
   74    73   138	5 ;     CG2R61     CG2R61      HGR61
   73    74    75	5 ;     CG2R61     CG2R61     CG2R61
   73    74   139	5 ;     CG2R61     CG2R61      HGR61
   75    74   139	5 ;     CG2R61     CG2R61      HGR61
   74    75    76	5 ;     CG2R61     CG2R61     CG2R61
   74    75   140	5 ;     CG2R61     CG2R61      HGR61
   76    75   140	5 ;     CG2R61     CG2R61      HGR61
   75    76    77	5 ;     CG2R61     CG2R61     CG2R61
   75    76   141	5 ;     CG2R61     CG2R61      HGR61
   77    76   141	5 ;     CG2R61     CG2R61      HGR61
   72    77    76	5 ;     CG2R61     CG2R61     CG2R61
   72    77   142	5 ;     CG2R61     CG2R61      HGR61
   76    77   142	5 ;     CG2R61     CG2R61      HGR61
   70    78    79	5 ;      CG311     CG2R61     CG2R61
   70    78    83	5 ;      CG311     CG2R61     CG2R61
   79    78    83	5 ;     CG2R61     CG2R61     CG2R61
   78    79    80	5 ;     CG2R61     CG2R61     CG2R61
   78    79   143	5 ;     CG2R61     CG2R61      HGR61
   80    79   143	5 ;     CG2R61     CG2R61      HGR61
   79    80    81	5 ;     CG2R61     CG2R61     CG2R61
   79    80   144	5 ;     CG2R61     CG2R61      HGR61
   81    80   144	5 ;     CG2R61     CG2R61      HGR61
   80    81    82	5 ;     CG2R61     CG2R61     CG2R61
   80    81   145	5 ;     CG2R61     CG2R61      HGR61
   82    81   145	5 ;     CG2R61     CG2R61      HGR61
   81    82    83	5 ;     CG2R61     CG2R61     CG2R61
   81    82   146	5 ;     CG2R61     CG2R61      HGR61
   83    82   146	5 ;     CG2R61     CG2R61      HGR61
   78    83    82	5 ;     CG2R61     CG2R61     CG2R61
   78    83   147	5 ;     CG2R61     CG2R61      HGR61
   82    83   147	5 ;     CG2R61     CG2R61      HGR61
    8    84    37	5 ;      CG301      OG301      CG311
   38    86    39	5 ;      CG2O2      OG302      CG311
   41    87   102	5 ;      CG301      OG311       HGP1
   42    88    43	5 ;      CG311      OG302      CG2O2
   54    91    55	5 ;      CG311      OG302      CG2O2
   63    93   127	5 ;      CG311      OG311       HGP1
   65    94    66	5 ;     CG3RC1     OG3C51     CG3C41
   67    95    68	5 ;     CG3RC1      OG302      CG2O2

[ dihedrals ]
;	ai	  aj	ak	  al funct			  c0			c1			  c2			c3			  c4			c5
   15     1    11     2	 9 ;       HGA3      CG331      OG301      CG321
   16     1    11     2	 9 ;       HGA3      CG331      OG301      CG321
   17     1    11     2	 9 ;       HGA3      CG331      OG301      CG321
   18     2     3    12	 9 ;       HGA2      CG321      CG321      OG301
   18     2     3    20	 9 ;       HGA2      CG321      CG321       HGA2
   18     2     3    21	 9 ;       HGA2      CG321      CG321       HGA2
   19     2     3    12	 9 ;       HGA2      CG321      CG321      OG301
   19     2     3    20	 9 ;       HGA2      CG321      CG321       HGA2
   19     2     3    21	 9 ;       HGA2      CG321      CG321       HGA2
   11     2     3    12	 9 ;      OG301      CG321      CG321      OG301
   11     2     3    20	 9 ;      OG301      CG321      CG321       HGA2
   11     2     3    21	 9 ;      OG301      CG321      CG321       HGA2
    3     2    11     1	 9 ;      CG321      CG321      OG301      CG331
   18     2    11     1	 9 ;       HGA2      CG321      OG301      CG331
   19     2    11     1	 9 ;       HGA2      CG321      OG301      CG331
    2     3    12     4	 9 ;      CG321      CG321      OG301      CG321
   20     3    12     4	 9 ;       HGA2      CG321      OG301      CG321
   21     3    12     4	 9 ;       HGA2      CG321      OG301      CG321
   22     4     5    13	 9 ;       HGA2      CG321      CG321      OG301
   22     4     5    24	 9 ;       HGA2      CG321      CG321       HGA2
   22     4     5    25	 9 ;       HGA2      CG321      CG321       HGA2
   23     4     5    13	 9 ;       HGA2      CG321      CG321      OG301
   23     4     5    24	 9 ;       HGA2      CG321      CG321       HGA2
   23     4     5    25	 9 ;       HGA2      CG321      CG321       HGA2
   12     4     5    13	 9 ;      OG301      CG321      CG321      OG301
   12     4     5    24	 9 ;      OG301      CG321      CG321       HGA2
   12     4     5    25	 9 ;      OG301      CG321      CG321       HGA2
    5     4    12     3	 9 ;      CG321      CG321      OG301      CG321
   22     4    12     3	 9 ;       HGA2      CG321      OG301      CG321
   23     4    12     3	 9 ;       HGA2      CG321      OG301      CG321
    4     5    13     6	 9 ;      CG321      CG321      OG301      CG321
   24     5    13     6	 9 ;       HGA2      CG321      OG301      CG321
   25     5    13     6	 9 ;       HGA2      CG321      OG301      CG321
   26     6     7    14	 9 ;       HGA2      CG321      CG321      OG301
   26     6     7    28	 9 ;       HGA2      CG321      CG321       HGA2
   26     6     7    29	 9 ;       HGA2      CG321      CG321       HGA2
   27     6     7    14	 9 ;       HGA2      CG321      CG321      OG301
   27     6     7    28	 9 ;       HGA2      CG321      CG321       HGA2
   27     6     7    29	 9 ;       HGA2      CG321      CG321       HGA2
   13     6     7    14	 9 ;      OG301      CG321      CG321      OG301
   13     6     7    28	 9 ;      OG301      CG321      CG321       HGA2
   13     6     7    29	 9 ;      OG301      CG321      CG321       HGA2
    7     6    13     5	 9 ;      CG321      CG321      OG301      CG321
   26     6    13     5	 9 ;       HGA2      CG321      OG301      CG321
   27     6    13     5	 9 ;       HGA2      CG321      OG301      CG321
    6     7    14     8	 9 ;      CG321      CG321      OG301      CG301
   28     7    14     8	 9 ;       HGA2      CG321      OG301      CG301
   29     7    14     8	 9 ;       HGA2      CG321      OG301      CG301
   10     8     9    30	 9 ;      CG331      CG301      CG331       HGA3
   10     8     9    31	 9 ;      CG331      CG301      CG331       HGA3
   10     8     9    32	 9 ;      CG331      CG301      CG331       HGA3
   84     8     9    30	 9 ;      OG301      CG301      CG331       HGA3
   84     8     9    31	 9 ;      OG301      CG301      CG331       HGA3
   84     8     9    32	 9 ;      OG301      CG301      CG331       HGA3
   14     8     9    30	 9 ;      OG301      CG301      CG331       HGA3
   14     8     9    31	 9 ;      OG301      CG301      CG331       HGA3
   14     8     9    32	 9 ;      OG301      CG301      CG331       HGA3
    9     8    10    33	 9 ;      CG331      CG301      CG331       HGA3
    9     8    10    34	 9 ;      CG331      CG301      CG331       HGA3
    9     8    10    35	 9 ;      CG331      CG301      CG331       HGA3
   84     8    10    33	 9 ;      OG301      CG301      CG331       HGA3
   84     8    10    34	 9 ;      OG301      CG301      CG331       HGA3
   84     8    10    35	 9 ;      OG301      CG301      CG331       HGA3
   14     8    10    33	 9 ;      OG301      CG301      CG331       HGA3
   14     8    10    34	 9 ;      OG301      CG301      CG331       HGA3
   14     8    10    35	 9 ;      OG301      CG301      CG331       HGA3
    9     8    84    37	 9 ;      CG331      CG301      OG301      CG311
   10     8    84    37	 9 ;      CG331      CG301      OG301      CG311
   14     8    84    37	 9 ;      OG301      CG301      OG301      CG311
    9     8    14     7	 9 ;      CG331      CG301      OG301      CG321
   10     8    14     7	 9 ;      CG331      CG301      OG301      CG321
   84     8    14     7	 9 ;      OG301      CG301      OG301      CG321
  137    36    71    72	 9 ;       HGP1      NG2S1      CG2O1     CG2R61
  137    36    71    97	 9 ;       HGP1      NG2S1      CG2O1      OG2D1
   70    36    71    72	 9 ;      CG311      NG2S1      CG2O1     CG2R61
   70    36    71    97	 9 ;      CG311      NG2S1      CG2O1      OG2D1
   71    36    70    37	 9 ;      CG2O1      NG2S1      CG311      CG311
   71    36    70    78	 9 ;      CG2O1      NG2S1      CG311     CG2R61
   71    36    70   136	 9 ;      CG2O1      NG2S1      CG311       HGA1
  137    36    70    37	 9 ;       HGP1      NG2S1      CG311      CG311
  137    36    70    78	 9 ;       HGP1      NG2S1      CG311     CG2R61
  137    36    70   136	 9 ;       HGP1      NG2S1      CG311       HGA1
   70    37    38    85	 9 ;      CG311      CG311      CG2O2      OG2D1
   70    37    38    86	 9 ;      CG311      CG311      CG2O2      OG302
   98    37    38    85	 9 ;       HGA1      CG311      CG2O2      OG2D1
   98    37    38    86	 9 ;       HGA1      CG311      CG2O2      OG302
   84    37    38    85	 9 ;      OG301      CG311      CG2O2      OG2D1
   84    37    38    86	 9 ;      OG301      CG311      CG2O2      OG302
   38    37    70    36	 9 ;      CG2O2      CG311      CG311      NG2S1
   38    37    70    78	 9 ;      CG2O2      CG311      CG311     CG2R61
   38    37    70   136	 9 ;      CG2O2      CG311      CG311       HGA1
   98    37    70    36	 9 ;       HGA1      CG311      CG311      NG2S1
   98    37    70    78	 9 ;       HGA1      CG311      CG311     CG2R61
   98    37    70   136	 9 ;       HGA1      CG311      CG311       HGA1
   84    37    70    36	 9 ;      OG301      CG311      CG311      NG2S1
   84    37    70    78	 9 ;      OG301      CG311      CG311     CG2R61
   84    37    70   136	 9 ;      OG301      CG311      CG311       HGA1
   38    37    84     8	 9 ;      CG2O2      CG311      OG301      CG301
   70    37    84     8	 9 ;      CG311      CG311      OG301      CG301
   98    37    84     8	 9 ;       HGA1      CG311      OG301      CG301
   37    38    86    39	 9 ;      CG311      CG2O2      OG302      CG311
   85    38    86    39	 9 ;      OG2D1      CG2O2      OG302      CG311
   58    39    40    41	 9 ;      CG2D1      CG311      CG321      CG301
   58    39    40   100	 9 ;      CG2D1      CG311      CG321       HGA2
   58    39    40   101	 9 ;      CG2D1      CG311      CG321       HGA2
   99    39    40    41	 9 ;       HGA1      CG311      CG321      CG301
   99    39    40   100	 9 ;       HGA1      CG311      CG321       HGA2
   99    39    40   101	 9 ;       HGA1      CG311      CG321       HGA2
   86    39    40    41	 9 ;      OG302      CG311      CG321      CG301
   86    39    40   100	 9 ;      OG302      CG311      CG321       HGA2
   86    39    40   101	 9 ;      OG302      CG311      CG321       HGA2
   40    39    58    57	 9 ;      CG321      CG311      CG2D1      CG2D1
   40    39    58    59	 9 ;      CG321      CG311      CG2D1      CG331
   99    39    58    57	 9 ;       HGA1      CG311      CG2D1      CG2D1
   99    39    58    59	 9 ;       HGA1      CG311      CG2D1      CG331
   86    39    58    57	 9 ;      OG302      CG311      CG2D1      CG2D1
   86    39    58    59	 9 ;      OG302      CG311      CG2D1      CG331
   40    39    86    38	 9 ;      CG321      CG311      OG302      CG2O2
   58    39    86    38	 9 ;      CG2D1      CG311      OG302      CG2O2
   99    39    86    38	 9 ;       HGA1      CG311      OG302      CG2O2
   39    40    41    42	 9 ;      CG311      CG321      CG301      CG311
   39    40    41    60	 9 ;      CG311      CG321      CG301      CG301
   39    40    41    87	 9 ;      CG311      CG321      CG301      OG311
  100    40    41    42	 9 ;       HGA2      CG321      CG301      CG311
  100    40    41    60	 9 ;       HGA2      CG321      CG301      CG301
  100    40    41    87	 9 ;       HGA2      CG321      CG301      OG311
  101    40    41    42	 9 ;       HGA2      CG321      CG301      CG311
  101    40    41    60	 9 ;       HGA2      CG321      CG301      CG301
  101    40    41    87	 9 ;       HGA2      CG321      CG301      OG311
   40    41    42    50	 9 ;      CG321      CG301      CG311      CG311
   40    41    42    88	 9 ;      CG321      CG301      CG311      OG302
   40    41    42   103	 9 ;      CG321      CG301      CG311       HGA1
   60    41    42    50	 9 ;      CG301      CG301      CG311      CG311
   60    41    42    88	 9 ;      CG301      CG301      CG311      OG302
   60    41    42   103	 9 ;      CG301      CG301      CG311       HGA1
   87    41    42    50	 9 ;      OG311      CG301      CG311      CG311
   87    41    42    88	 9 ;      OG311      CG301      CG311      OG302
   87    41    42   103	 9 ;      OG311      CG301      CG311       HGA1
   40    41    60    57	 9 ;      CG321      CG301      CG301      CG2D1
   40    41    60    61	 9 ;      CG321      CG301      CG301      CG331
   40    41    60    62	 9 ;      CG321      CG301      CG301      CG331
   42    41    60    57	 9 ;      CG311      CG301      CG301      CG2D1
   42    41    60    61	 9 ;      CG311      CG301      CG301      CG331
   42    41    60    62	 9 ;      CG311      CG301      CG301      CG331
   87    41    60    57	 9 ;      OG311      CG301      CG301      CG2D1
   87    41    60    61	 9 ;      OG311      CG301      CG301      CG331
   87    41    60    62	 9 ;      OG311      CG301      CG301      CG331
   40    41    87   102	 9 ;      CG321      CG301      OG311       HGP1
   42    41    87   102	 9 ;      CG311      CG301      OG311       HGP1
   60    41    87   102	 9 ;      CG301      CG301      OG311       HGP1
   41    42    50    51	 9 ;      CG301      CG311      CG311      CG301
   41    42    50    67	 9 ;      CG301      CG311      CG311     CG3RC1
   41    42    50   109	 9 ;      CG301      CG311      CG311       HGA1
   88    42    50    51	 9 ;      OG302      CG311      CG311      CG301
   88    42    50    67	 9 ;      OG302      CG311      CG311     CG3RC1
   88    42    50   109	 9 ;      OG302      CG311      CG311       HGA1
  103    42    50    51	 9 ;       HGA1      CG311      CG311      CG301
  103    42    50    67	 9 ;       HGA1      CG311      CG311     CG3RC1
  103    42    50   109	 9 ;       HGA1      CG311      CG311       HGA1
   41    42    88    43	 9 ;      CG301      CG311      OG302      CG2O2
   50    42    88    43	 9 ;      CG311      CG311      OG302      CG2O2
  103    42    88    43	 9 ;       HGA1      CG311      OG302      CG2O2
   89    43    44    45	 9 ;      OG2D1      CG2O2     CG2R61     CG2R61
   89    43    44    49	 9 ;      OG2D1      CG2O2     CG2R61     CG2R61
   88    43    44    45	 9 ;      OG302      CG2O2     CG2R61     CG2R61
   88    43    44    49	 9 ;      OG302      CG2O2     CG2R61     CG2R61
   44    43    88    42	 9 ;     CG2R61      CG2O2      OG302      CG311
   89    43    88    42	 9 ;      OG2D1      CG2O2      OG302      CG311
   43    44    45    46	 9 ;      CG2O2     CG2R61     CG2R61     CG2R61
   43    44    45   104	 9 ;      CG2O2     CG2R61     CG2R61      HGR61
   49    44    45    46	 9 ;     CG2R61     CG2R61     CG2R61     CG2R61
   49    44    45   104	 9 ;     CG2R61     CG2R61     CG2R61      HGR61
   43    44    49    48	 9 ;      CG2O2     CG2R61     CG2R61     CG2R61
   43    44    49   108	 9 ;      CG2O2     CG2R61     CG2R61      HGR61
   45    44    49    48	 9 ;     CG2R61     CG2R61     CG2R61     CG2R61
   45    44    49   108	 9 ;     CG2R61     CG2R61     CG2R61      HGR61
   44    45    46    47	 9 ;     CG2R61     CG2R61     CG2R61     CG2R61
   44    45    46   105	 9 ;     CG2R61     CG2R61     CG2R61      HGR61
  104    45    46    47	 9 ;      HGR61     CG2R61     CG2R61     CG2R61
  104    45    46   105	 9 ;      HGR61     CG2R61     CG2R61      HGR61
   45    46    47    48	 9 ;     CG2R61     CG2R61     CG2R61     CG2R61
   45    46    47   106	 9 ;     CG2R61     CG2R61     CG2R61      HGR61
  105    46    47    48	 9 ;      HGR61     CG2R61     CG2R61     CG2R61
  105    46    47   106	 9 ;      HGR61     CG2R61     CG2R61      HGR61
   46    47    48    49	 9 ;     CG2R61     CG2R61     CG2R61     CG2R61
   46    47    48   107	 9 ;     CG2R61     CG2R61     CG2R61      HGR61
  106    47    48    49	 9 ;      HGR61     CG2R61     CG2R61     CG2R61
  106    47    48   107	 9 ;      HGR61     CG2R61     CG2R61      HGR61
   47    48    49    44	 9 ;     CG2R61     CG2R61     CG2R61     CG2R61
   47    48    49   108	 9 ;     CG2R61     CG2R61     CG2R61      HGR61
  107    48    49    44	 9 ;      HGR61     CG2R61     CG2R61     CG2R61
  107    48    49   108	 9 ;      HGR61     CG2R61     CG2R61      HGR61
   42    50    51    52	 9 ;      CG311      CG311      CG301      CG331
   42    50    51    53	 9 ;      CG311      CG311      CG301      CG2O5
   42    50    51    63	 9 ;      CG311      CG311      CG301      CG311
   67    50    51    52	 9 ;     CG3RC1      CG311      CG301      CG331
   67    50    51    53	 9 ;     CG3RC1      CG311      CG301      CG2O5
   67    50    51    63	 9 ;     CG3RC1      CG311      CG301      CG311
  109    50    51    52	 9 ;       HGA1      CG311      CG301      CG331
  109    50    51    53	 9 ;       HGA1      CG311      CG301      CG2O5
  109    50    51    63	 9 ;       HGA1      CG311      CG301      CG311
   42    50    67    65	 9 ;      CG311      CG311     CG3RC1     CG3RC1
   42    50    67    66	 9 ;      CG311      CG311     CG3RC1     CG3C41
   42    50    67    95	 9 ;      CG311      CG311     CG3RC1      OG302
   51    50    67    65	 9 ;      CG301      CG311     CG3RC1     CG3RC1
   51    50    67    66	 9 ;      CG301      CG311     CG3RC1     CG3C41
   51    50    67    95	 9 ;      CG301      CG311     CG3RC1      OG302
  109    50    67    65	 9 ;       HGA1      CG311     CG3RC1     CG3RC1
  109    50    67    66	 9 ;       HGA1      CG311     CG3RC1     CG3C41
  109    50    67    95	 9 ;       HGA1      CG311     CG3RC1      OG302
   50    51    52   110	 9 ;      CG311      CG301      CG331       HGA3
   50    51    52   111	 9 ;      CG311      CG301      CG331       HGA3
   50    51    52   112	 9 ;      CG311      CG301      CG331       HGA3
   53    51    52   110	 9 ;      CG2O5      CG301      CG331       HGA3
   53    51    52   111	 9 ;      CG2O5      CG301      CG331       HGA3
   53    51    52   112	 9 ;      CG2O5      CG301      CG331       HGA3
   63    51    52   110	 9 ;      CG311      CG301      CG331       HGA3
   63    51    52   111	 9 ;      CG311      CG301      CG331       HGA3
   63    51    52   112	 9 ;      CG311      CG301      CG331       HGA3
   50    51    53    54	 9 ;      CG311      CG301      CG2O5      CG311
   50    51    53    90	 9 ;      CG311      CG301      CG2O5      OG2D3
   52    51    53    54	 9 ;      CG331      CG301      CG2O5      CG311
   52    51    53    90	 9 ;      CG331      CG301      CG2O5      OG2D3
   63    51    53    54	 9 ;      CG311      CG301      CG2O5      CG311
   63    51    53    90	 9 ;      CG311      CG301      CG2O5      OG2D3
   50    51    63    64	 9 ;      CG311      CG301      CG311      CG321
   50    51    63    93	 9 ;      CG311      CG301      CG311      OG311
   50    51    63   126	 9 ;      CG311      CG301      CG311       HGA1
   52    51    63    64	 9 ;      CG331      CG301      CG311      CG321
   52    51    63    93	 9 ;      CG331      CG301      CG311      OG311
   52    51    63   126	 9 ;      CG331      CG301      CG311       HGA1
   53    51    63    64	 9 ;      CG2O5      CG301      CG311      CG321
   53    51    63    93	 9 ;      CG2O5      CG301      CG311      OG311
   53    51    63   126	 9 ;      CG2O5      CG301      CG311       HGA1
   51    53    54    57	 9 ;      CG301      CG2O5      CG311      CG2D1
   51    53    54    91	 9 ;      CG301      CG2O5      CG311      OG302
   51    53    54   113	 9 ;      CG301      CG2O5      CG311       HGA1
   90    53    54    57	 9 ;      OG2D3      CG2O5      CG311      CG2D1
   90    53    54    91	 9 ;      OG2D3      CG2O5      CG311      OG302
   90    53    54   113	 9 ;      OG2D3      CG2O5      CG311       HGA1
   53    54    57    58	 9 ;      CG2O5      CG311      CG2D1      CG2D1
   53    54    57    60	 9 ;      CG2O5      CG311      CG2D1      CG301
   91    54    57    58	 9 ;      OG302      CG311      CG2D1      CG2D1
   91    54    57    60	 9 ;      OG302      CG311      CG2D1      CG301
  113    54    57    58	 9 ;       HGA1      CG311      CG2D1      CG2D1
  113    54    57    60	 9 ;       HGA1      CG311      CG2D1      CG301
   53    54    91    55	 9 ;      CG2O5      CG311      OG302      CG2O2
   57    54    91    55	 9 ;      CG2D1      CG311      OG302      CG2O2
  113    54    91    55	 9 ;       HGA1      CG311      OG302      CG2O2
   92    55    56   114	 9 ;      OG2D1      CG2O2      CG331       HGA3
   92    55    56   115	 9 ;      OG2D1      CG2O2      CG331       HGA3
   92    55    56   116	 9 ;      OG2D1      CG2O2      CG331       HGA3
   91    55    56   114	 9 ;      OG302      CG2O2      CG331       HGA3
   91    55    56   115	 9 ;      OG302      CG2O2      CG331       HGA3
   91    55    56   116	 9 ;      OG302      CG2O2      CG331       HGA3
   56    55    91    54	 9 ;      CG331      CG2O2      OG302      CG311
   92    55    91    54	 9 ;      OG2D1      CG2O2      OG302      CG311
   54    57    58    39	 9 ;      CG311      CG2D1      CG2D1      CG311
   54    57    58    59	 9 ;      CG311      CG2D1      CG2D1      CG331
   60    57    58    39	 9 ;      CG301      CG2D1      CG2D1      CG311
   60    57    58    59	 9 ;      CG301      CG2D1      CG2D1      CG331
   54    57    60    41	 9 ;      CG311      CG2D1      CG301      CG301
   54    57    60    61	 9 ;      CG311      CG2D1      CG301      CG331
   54    57    60    62	 9 ;      CG311      CG2D1      CG301      CG331
   58    57    60    41	 9 ;      CG2D1      CG2D1      CG301      CG301
   58    57    60    61	 9 ;      CG2D1      CG2D1      CG301      CG331
   58    57    60    62	 9 ;      CG2D1      CG2D1      CG301      CG331
   39    58    59   117	 9 ;      CG311      CG2D1      CG331       HGA3
   39    58    59   118	 9 ;      CG311      CG2D1      CG331       HGA3
   39    58    59   119	 9 ;      CG311      CG2D1      CG331       HGA3
   57    58    59   117	 9 ;      CG2D1      CG2D1      CG331       HGA3
   57    58    59   118	 9 ;      CG2D1      CG2D1      CG331       HGA3
   57    58    59   119	 9 ;      CG2D1      CG2D1      CG331       HGA3
   41    60    61   120	 9 ;      CG301      CG301      CG331       HGA3
   41    60    61   121	 9 ;      CG301      CG301      CG331       HGA3
   41    60    61   122	 9 ;      CG301      CG301      CG331       HGA3
   57    60    61   120	 9 ;      CG2D1      CG301      CG331       HGA3
   57    60    61   121	 9 ;      CG2D1      CG301      CG331       HGA3
   57    60    61   122	 9 ;      CG2D1      CG301      CG331       HGA3
   62    60    61   120	 9 ;      CG331      CG301      CG331       HGA3
   62    60    61   121	 9 ;      CG331      CG301      CG331       HGA3
   62    60    61   122	 9 ;      CG331      CG301      CG331       HGA3
   41    60    62   123	 9 ;      CG301      CG301      CG331       HGA3
   41    60    62   124	 9 ;      CG301      CG301      CG331       HGA3
   41    60    62   125	 9 ;      CG301      CG301      CG331       HGA3
   57    60    62   123	 9 ;      CG2D1      CG301      CG331       HGA3
   57    60    62   124	 9 ;      CG2D1      CG301      CG331       HGA3
   57    60    62   125	 9 ;      CG2D1      CG301      CG331       HGA3
   61    60    62   123	 9 ;      CG331      CG301      CG331       HGA3
   61    60    62   124	 9 ;      CG331      CG301      CG331       HGA3
   61    60    62   125	 9 ;      CG331      CG301      CG331       HGA3
   51    63    64    65	 9 ;      CG301      CG311      CG321     CG3RC1
   51    63    64   128	 9 ;      CG301      CG311      CG321       HGA2
   51    63    64   129	 9 ;      CG301      CG311      CG321       HGA2
   93    63    64    65	 9 ;      OG311      CG311      CG321     CG3RC1
   93    63    64   128	 9 ;      OG311      CG311      CG321       HGA2
   93    63    64   129	 9 ;      OG311      CG311      CG321       HGA2
  126    63    64    65	 9 ;       HGA1      CG311      CG321     CG3RC1
  126    63    64   128	 9 ;       HGA1      CG311      CG321       HGA2
  126    63    64   129	 9 ;       HGA1      CG311      CG321       HGA2
   51    63    93   127	 9 ;      CG301      CG311      OG311       HGP1
   64    63    93   127	 9 ;      CG321      CG311      OG311       HGP1
  126    63    93   127	 9 ;       HGA1      CG311      OG311       HGP1
   63    64    65    67	 9 ;      CG311      CG321     CG3RC1     CG3RC1
   63    64    65    94	 9 ;      CG311      CG321     CG3RC1     OG3C51
   63    64    65   130	 9 ;      CG311      CG321     CG3RC1       HGA1
  128    64    65    67	 9 ;       HGA2      CG321     CG3RC1     CG3RC1
  128    64    65    94	 9 ;       HGA2      CG321     CG3RC1     OG3C51
  128    64    65   130	 9 ;       HGA2      CG321     CG3RC1       HGA1
  129    64    65    67	 9 ;       HGA2      CG321     CG3RC1     CG3RC1
  129    64    65    94	 9 ;       HGA2      CG321     CG3RC1     OG3C51
  129    64    65   130	 9 ;       HGA2      CG321     CG3RC1       HGA1
   64    65    67    50	 9 ;      CG321     CG3RC1     CG3RC1      CG311
   64    65    67    66	 9 ;      CG321     CG3RC1     CG3RC1     CG3C41
   64    65    67    95	 9 ;      CG321     CG3RC1     CG3RC1      OG302
   94    65    67    50	 9 ;     OG3C51     CG3RC1     CG3RC1      CG311
   94    65    67    66	 9 ;     OG3C51     CG3RC1     CG3RC1     CG3C41
   94    65    67    95	 9 ;     OG3C51     CG3RC1     CG3RC1      OG302
  130    65    67    50	 9 ;       HGA1     CG3RC1     CG3RC1      CG311
  130    65    67    66	 9 ;       HGA1     CG3RC1     CG3RC1     CG3C41
  130    65    67    95	 9 ;       HGA1     CG3RC1     CG3RC1      OG302
   64    65    94    66	 9 ;      CG321     CG3RC1     OG3C51     CG3C41
   67    65    94    66	 9 ;     CG3RC1     CG3RC1     OG3C51     CG3C41
  130    65    94    66	 9 ;       HGA1     CG3RC1     OG3C51     CG3C41
  131    66    67    50	 9 ;       HGA2     CG3C41     CG3RC1      CG311
  131    66    67    65	 9 ;       HGA2     CG3C41     CG3RC1     CG3RC1
  131    66    67    95	 9 ;       HGA2     CG3C41     CG3RC1      OG302
  132    66    67    50	 9 ;       HGA2     CG3C41     CG3RC1      CG311
  132    66    67    65	 9 ;       HGA2     CG3C41     CG3RC1     CG3RC1
  132    66    67    95	 9 ;       HGA2     CG3C41     CG3RC1      OG302
   94    66    67    50	 9 ;     OG3C51     CG3C41     CG3RC1      CG311
   94    66    67    65	 9 ;     OG3C51     CG3C41     CG3RC1     CG3RC1
   94    66    67    95	 9 ;     OG3C51     CG3C41     CG3RC1      OG302
   67    66    94    65	 9 ;     CG3RC1     CG3C41     OG3C51     CG3RC1
  131    66    94    65	 9 ;       HGA2     CG3C41     OG3C51     CG3RC1
  132    66    94    65	 9 ;       HGA2     CG3C41     OG3C51     CG3RC1
   50    67    95    68	 9 ;      CG311     CG3RC1      OG302      CG2O2
   65    67    95    68	 9 ;     CG3RC1     CG3RC1      OG302      CG2O2
   66    67    95    68	 9 ;     CG3C41     CG3RC1      OG302      CG2O2
   96    68    69   133	 9 ;      OG2D1      CG2O2      CG331       HGA3
   96    68    69   134	 9 ;      OG2D1      CG2O2      CG331       HGA3
   96    68    69   135	 9 ;      OG2D1      CG2O2      CG331       HGA3
   95    68    69   133	 9 ;      OG302      CG2O2      CG331       HGA3
   95    68    69   134	 9 ;      OG302      CG2O2      CG331       HGA3
   95    68    69   135	 9 ;      OG302      CG2O2      CG331       HGA3
   69    68    95    67	 9 ;      CG331      CG2O2      OG302     CG3RC1
   96    68    95    67	 9 ;      OG2D1      CG2O2      OG302     CG3RC1
   37    70    78    79	 9 ;      CG311      CG311     CG2R61     CG2R61
   37    70    78    83	 9 ;      CG311      CG311     CG2R61     CG2R61
   36    70    78    79	 9 ;      NG2S1      CG311     CG2R61     CG2R61
   36    70    78    83	 9 ;      NG2S1      CG311     CG2R61     CG2R61
  136    70    78    79	 9 ;       HGA1      CG311     CG2R61     CG2R61
  136    70    78    83	 9 ;       HGA1      CG311     CG2R61     CG2R61
   36    71    72    73	 9 ;      NG2S1      CG2O1     CG2R61     CG2R61
   36    71    72    77	 9 ;      NG2S1      CG2O1     CG2R61     CG2R61
   97    71    72    73	 9 ;      OG2D1      CG2O1     CG2R61     CG2R61
   97    71    72    77	 9 ;      OG2D1      CG2O1     CG2R61     CG2R61
   71    72    73    74	 9 ;      CG2O1     CG2R61     CG2R61     CG2R61
   71    72    73   138	 9 ;      CG2O1     CG2R61     CG2R61      HGR61
   77    72    73    74	 9 ;     CG2R61     CG2R61     CG2R61     CG2R61
   77    72    73   138	 9 ;     CG2R61     CG2R61     CG2R61      HGR61
   71    72    77    76	 9 ;      CG2O1     CG2R61     CG2R61     CG2R61
   71    72    77   142	 9 ;      CG2O1     CG2R61     CG2R61      HGR61
   73    72    77    76	 9 ;     CG2R61     CG2R61     CG2R61     CG2R61
   73    72    77   142	 9 ;     CG2R61     CG2R61     CG2R61      HGR61
   72    73    74    75	 9 ;     CG2R61     CG2R61     CG2R61     CG2R61
   72    73    74   139	 9 ;     CG2R61     CG2R61     CG2R61      HGR61
  138    73    74    75	 9 ;      HGR61     CG2R61     CG2R61     CG2R61
  138    73    74   139	 9 ;      HGR61     CG2R61     CG2R61      HGR61
   73    74    75    76	 9 ;     CG2R61     CG2R61     CG2R61     CG2R61
   73    74    75   140	 9 ;     CG2R61     CG2R61     CG2R61      HGR61
  139    74    75    76	 9 ;      HGR61     CG2R61     CG2R61     CG2R61
  139    74    75   140	 9 ;      HGR61     CG2R61     CG2R61      HGR61
   74    75    76    77	 9 ;     CG2R61     CG2R61     CG2R61     CG2R61
   74    75    76   141	 9 ;     CG2R61     CG2R61     CG2R61      HGR61
  140    75    76    77	 9 ;      HGR61     CG2R61     CG2R61     CG2R61
  140    75    76   141	 9 ;      HGR61     CG2R61     CG2R61      HGR61
   75    76    77    72	 9 ;     CG2R61     CG2R61     CG2R61     CG2R61
   75    76    77   142	 9 ;     CG2R61     CG2R61     CG2R61      HGR61
  141    76    77    72	 9 ;      HGR61     CG2R61     CG2R61     CG2R61
  141    76    77   142	 9 ;      HGR61     CG2R61     CG2R61      HGR61
   70    78    79    80	 9 ;      CG311     CG2R61     CG2R61     CG2R61
   70    78    79   143	 9 ;      CG311     CG2R61     CG2R61      HGR61
   83    78    79    80	 9 ;     CG2R61     CG2R61     CG2R61     CG2R61
   83    78    79   143	 9 ;     CG2R61     CG2R61     CG2R61      HGR61
   70    78    83    82	 9 ;      CG311     CG2R61     CG2R61     CG2R61
   70    78    83   147	 9 ;      CG311     CG2R61     CG2R61      HGR61
   79    78    83    82	 9 ;     CG2R61     CG2R61     CG2R61     CG2R61
   79    78    83   147	 9 ;     CG2R61     CG2R61     CG2R61      HGR61
   78    79    80    81	 9 ;     CG2R61     CG2R61     CG2R61     CG2R61
   78    79    80   144	 9 ;     CG2R61     CG2R61     CG2R61      HGR61
  143    79    80    81	 9 ;      HGR61     CG2R61     CG2R61     CG2R61
  143    79    80   144	 9 ;      HGR61     CG2R61     CG2R61      HGR61
   79    80    81    82	 9 ;     CG2R61     CG2R61     CG2R61     CG2R61
   79    80    81   145	 9 ;     CG2R61     CG2R61     CG2R61      HGR61
  144    80    81    82	 9 ;      HGR61     CG2R61     CG2R61     CG2R61
  144    80    81   145	 9 ;      HGR61     CG2R61     CG2R61      HGR61
   80    81    82    83	 9 ;     CG2R61     CG2R61     CG2R61     CG2R61
   80    81    82   146	 9 ;     CG2R61     CG2R61     CG2R61      HGR61
  145    81    82    83	 9 ;      HGR61     CG2R61     CG2R61     CG2R61
  145    81    82   146	 9 ;      HGR61     CG2R61     CG2R61      HGR61
   81    82    83    78	 9 ;     CG2R61     CG2R61     CG2R61     CG2R61
   81    82    83   147	 9 ;     CG2R61     CG2R61     CG2R61      HGR61
  146    82    83    78	 9 ;      HGR61     CG2R61     CG2R61     CG2R61
  146    82    83   147	 9 ;      HGR61     CG2R61     CG2R61      HGR61

[ dihedrals ]
;	ai	  aj	ak	  al funct			  c0			c1			  c2			c3
   38    37    85    86	 2
   43    44    89    88	 2
   53    51    54    90	 2
   55    56    92    91	 2
   68    69    96    95	 2
   71    72    36    97	 2

