; Created by cgenff_charmm2gmx.py

[ moleculetype ]
; Name			   nrexcl
FUL				 3

[ atoms ]
;	 nr		  type	resnr residue  atom   cgnr	   charge		mass  typeB    chargeB		massB
; residue	 1 FUL rtp FUL q	qsum
     1      CG331      1    FUD     C1      1     -0.273     12.011   ;
     2      CG321      1    FUD     C2      2     -0.177     12.011   ;
     3      CG321      1    FUD     C3      3     -0.181     12.011   ;
     4      CG321      1    FUD     C4      4     -0.179     12.011   ;
     5      CG321      1    FUD     C5      5     -0.180     12.011   ;
     6      CG321      1    FUD     C6      6     -0.180     12.011   ;
     7      CG321      1    FUD     C7      7     -0.180     12.011   ;
     8      CG321      1    FUD     C8      8     -0.180     12.011   ;
     9      CG321      1    FUD     C9      9     -0.180     12.011   ;
    10      CG321      1    FUD    C10     10     -0.180     12.011   ;
    11      CG321      1    FUD    C11     11     -0.180     12.011   ;
    12      CG321      1    FUD    C12     12     -0.180     12.011   ;
    13      CG321      1    FUD    C13     13     -0.180     12.011   ;
    14      CG321      1    FUD    C14     14     -0.180     12.011   ;
    15      CG321      1    FUD    C15     15     -0.180     12.011   ;
    16      CG321      1    FUD    C16     16     -0.180     12.011   ;
    17      CG321      1    FUD    C17     17     -0.180     12.011   ;
    18      CG321      1    FUD    C18     18      0.036     12.011   ;
    19      CG301      1    FUD    C19     19      0.383     12.011   ;
    20      CG331      1    FUD    C20     20     -0.274     12.011   ;
    21      CG331      1    FUD    C21     21     -0.274     12.011   ;
    22      OG301      1    FUD     O1     22     -0.403     15.999   ;
    23       HGA3      1    FUD     H1     23      0.090      1.008   ;
    24       HGA3      1    FUD     H2     24      0.090      1.008   ;
    25       HGA3      1    FUD     H3     25      0.090      1.008   ;
    26       HGA2      1    FUD     H4     26      0.090      1.008   ;
    27       HGA2      1    FUD     H5     27      0.090      1.008   ;
    28       HGA2      1    FUD     H6     28      0.090      1.008   ;
    29       HGA2      1    FUD     H7     29      0.090      1.008   ;
    30       HGA2      1    FUD     H8     30      0.090      1.008   ;
    31       HGA2      1    FUD     H9     31      0.090      1.008   ;
    32       HGA2      1    FUD    H10     32      0.090      1.008   ;
    33       HGA2      1    FUD    H11     33      0.090      1.008   ;
    34       HGA2      1    FUD    H12     34      0.090      1.008   ;
    35       HGA2      1    FUD    H13     35      0.090      1.008   ;
    36       HGA2      1    FUD    H14     36      0.090      1.008   ;
    37       HGA2      1    FUD    H15     37      0.090      1.008   ;
    38       HGA2      1    FUD    H16     38      0.090      1.008   ;
    39       HGA2      1    FUD    H17     39      0.090      1.008   ;
    40       HGA2      1    FUD    H18     40      0.090      1.008   ;
    41       HGA2      1    FUD    H19     41      0.090      1.008   ;
    42       HGA2      1    FUD    H20     42      0.090      1.008   ;
    43       HGA2      1    FUD    H21     43      0.090      1.008   ;
    44       HGA2      1    FUD    H22     44      0.090      1.008   ;
    45       HGA2      1    FUD    H23     45      0.090      1.008   ;
    46       HGA2      1    FUD    H24     46      0.090      1.008   ;
    47       HGA2      1    FUD    H25     47      0.090      1.008   ;
    48       HGA2      1    FUD    H26     48      0.090      1.008   ;
    49       HGA2      1    FUD    H27     49      0.090      1.008   ;
    50       HGA2      1    FUD    H28     50      0.090      1.008   ;
    51       HGA2      1    FUD    H29     51      0.090      1.008   ;
    52       HGA2      1    FUD    H30     52      0.090      1.008   ;
    53       HGA2      1    FUD    H31     53      0.090      1.008   ;
    54       HGA2      1    FUD    H32     54      0.090      1.008   ;
    55       HGA2      1    FUD    H33     55      0.090      1.008   ;
    56       HGA2      1    FUD    H34     56      0.090      1.008   ;
    57       HGA2      1    FUD    H35     57      0.090      1.008   ;
    58       HGA2      1    FUD    H36     58      0.090      1.008   ;
    59       HGA2      1    FUD    H37     59      0.090      1.008   ;
    60       HGA3      1    FUD    H38     60      0.090      1.008   ;
    61       HGA3      1    FUD    H39     61      0.090      1.008   ;
    62       HGA3      1    FUD    H40     62      0.090      1.008   ;
    63       HGA3      1    FUD    H41     63      0.090      1.008   ;
    64       HGA3      1    FUD    H42     64      0.090      1.008   ;
    65       HGA3      1    FUD    H43     65      0.090      1.008   ;
    66     CG2R61      1    FUL    C22     66      0.246     12.011   ;
    67     CG2R61      1    FUL    C23     67     -0.116     12.011   ;
    68     CG2R61      1    FUL    C24     68     -0.106     12.011   ;
    69     CG2R61      1    FUL    C25     69      0.007     12.011   ;
    70     CG2R61      1    FUL    C26     70     -0.003     12.011   ;
    71     CG2R61      1    FUL    C27     71     -0.119     12.011   ;
    72      CG321      1    FUL    C28     72     -0.190     12.011   ;
    73      CG311      1    FUL    C29     73     -0.089     12.011   ;
    74      CG321      1    FUL    C30     74     -0.197     12.011   ;
    75      CG321      1    FUL    C31     75     -0.192     12.011   ;
    76      CG321      1    FUL    C32     76     -0.157     12.011   ;
    77      CG321      1    FUL    C33     77     -0.180     12.011   ;
    78      CG321      1    FUL    C34     78     -0.180     12.011   ;
    79      CG321      1    FUL    C35     79     -0.180     12.011   ;
    80      CG321      1    FUL    C36     80     -0.180     12.011   ;
    81      CG321      1    FUL    C37     81     -0.189     12.011   ;
    82      CG321      1    FUL    C38     82     -0.059     12.011   ;
    83      CG321      1    FUL    C39     83     -0.059     12.011   ;
    84      CG321      1    FUL    C40     84     -0.181     12.011   ;
    85      CG321      1    FUL    C41     85     -0.066     12.011   ;
    86      CG312      1    FUL    C42     86      0.340     12.011   ;
    87      CG302      1    FUL    C43     87      0.332     12.011   ;
    88      CG311      1    FUL    C44     88     -0.094     12.011   ;
    89      CG311      1    FUL    C45     89     -0.085     12.011   ;
    90      CG321      1    FUL    C46     90     -0.180     12.011   ;
    91      CG321      1    FUL    C47     91     -0.189     12.011   ;
    92     CG3RC1      1    FUL    C48     92      0.001     12.011   ;
    93      CG331      1    FUL    C49     93     -0.271     12.011   ;
    94     CG3C51      1    FUL    C50     94      0.153     12.011   ;
    95     CG3C52      1    FUL    C51     95     -0.179     12.011   ;
    96     CG3C52      1    FUL    C52     96     -0.180     12.011   ;
    97     CG3RC1      1    FUL    C53     97     -0.096     12.011   ;
    98      OG301      1    FUL     O2     98     -0.426     15.999   ;
    99      OG2P1      1    FUL     O3     99     -0.549     15.999   ;
   100      OG311      1    FUL     O4    100     -0.651     15.999   ;
   101       FGA2      1    FUL     F1    101     -0.187     18.998   ;
   102       FGA2      1    FUL     F2    102     -0.187     18.998   ;
   103       FGA3      1    FUL     F3    103     -0.140     18.998   ;
   104       FGA3      1    FUL     F4    104     -0.140     18.998   ;
   105       FGA3      1    FUL     F5    105     -0.140     18.998   ;
   106      SG3O3      1    FUL      S    106      0.325     32.060   ;
   107      HGR61      1    FUL    H44    107      0.115      1.008   ;
   108      HGR61      1    FUL    H45    108      0.115      1.008   ;
   109      HGR61      1    FUL    H46    109      0.115      1.008   ;
   110       HGA2      1    FUL    H47    110      0.090      1.008   ;
   111       HGA2      1    FUL    H48    111      0.090      1.008   ;
   112       HGA1      1    FUL    H49    112      0.090      1.008   ;
   113       HGA2      1    FUL    H50    113      0.090      1.008   ;
   114       HGA2      1    FUL    H51    114      0.090      1.008   ;
   115       HGA2      1    FUL    H52    115      0.090      1.008   ;
   116       HGA2      1    FUL    H53    116      0.090      1.008   ;
   117       HGA2      1    FUL    H54    117      0.090      1.008   ;
   118       HGA2      1    FUL    H55    118      0.090      1.008   ;
   119       HGA2      1    FUL    H56    119      0.090      1.008   ;
   120       HGA2      1    FUL    H57    120      0.090      1.008   ;
   121       HGA2      1    FUL    H58    121      0.090      1.008   ;
   122       HGA2      1    FUL    H59    122      0.090      1.008   ;
   123       HGA2      1    FUL    H60    123      0.090      1.008   ;
   124       HGA2      1    FUL    H61    124      0.090      1.008   ;
   125       HGA2      1    FUL    H62    125      0.090      1.008   ;
   126       HGA2      1    FUL    H63    126      0.090      1.008   ;
   127       HGA2      1    FUL    H64    127      0.090      1.008   ;
   128       HGA2      1    FUL    H65    128      0.090      1.008   ;
   129       HGA2      1    FUL    H66    129      0.090      1.008   ;
   130       HGA2      1    FUL    H67    130      0.090      1.008   ;
   131       HGA2      1    FUL    H68    131      0.090      1.008   ;
   132       HGA2      1    FUL    H69    132      0.090      1.008   ;
   133       HGA2      1    FUL    H70    133      0.090      1.008   ;
   134       HGA2      1    FUL    H71    134      0.090      1.008   ;
   135       HGA2      1    FUL    H72    135      0.090      1.008   ;
   136       HGA2      1    FUL    H73    136      0.090      1.008   ;
   137       HGA1      1    FUL    H74    137      0.090      1.008   ;
   138       HGA1      1    FUL    H75    138      0.090      1.008   ;
   139       HGA2      1    FUL    H76    139      0.090      1.008   ;
   140       HGA2      1    FUL    H77    140      0.090      1.008   ;
   141       HGA2      1    FUL    H78    141      0.090      1.008   ;
   142       HGA2      1    FUL    H79    142      0.090      1.008   ;
   143       HGA3      1    FUL    H80    143      0.090      1.008   ;
   144       HGA3      1    FUL    H81    144      0.090      1.008   ;
   145       HGA3      1    FUL    H82    145      0.090      1.008   ;
   146       HGA1      1    FUL    H83    146      0.090      1.008   ;
   147       HGP1      1    FUL    H84    147      0.420      1.008   ;
   148       HGA2      1    FUL    H85    148      0.090      1.008   ;
   149       HGA2      1    FUL    H86    149      0.090      1.008   ;
   150       HGA2      1    FUL    H87    150      0.090      1.008   ;
   151       HGA2      1    FUL    H88    151      0.090      1.008   ;
   152       HGA1      1    FUL    H89    152      0.090      1.008   ;

[ bonds ]
;	ai	  aj funct			  c0			c1			  c2			c3
    1     2	 1 ;       CG331      CG321
    1    23	 1 ;       CG331       HGA3
    1    24	 1 ;       CG331       HGA3
    1    25	 1 ;       CG331       HGA3
    2     3	 1 ;       CG321      CG321
    2    26	 1 ;       CG321       HGA2
    2    27	 1 ;       CG321       HGA2
    3     4	 1 ;       CG321      CG321
    3    28	 1 ;       CG321       HGA2
    3    29	 1 ;       CG321       HGA2
    4     5	 1 ;       CG321      CG321
    4    30	 1 ;       CG321       HGA2
    4    31	 1 ;       CG321       HGA2
    5     6	 1 ;       CG321      CG321
    5    32	 1 ;       CG321       HGA2
    5    33	 1 ;       CG321       HGA2
    6     7	 1 ;       CG321      CG321
    6    34	 1 ;       CG321       HGA2
    6    35	 1 ;       CG321       HGA2
    7     8	 1 ;       CG321      CG321
    7    36	 1 ;       CG321       HGA2
    7    37	 1 ;       CG321       HGA2
    8     9	 1 ;       CG321      CG321
    8    38	 1 ;       CG321       HGA2
    8    39	 1 ;       CG321       HGA2
    9    10	 1 ;       CG321      CG321
    9    40	 1 ;       CG321       HGA2
    9    41	 1 ;       CG321       HGA2
   10    11	 1 ;       CG321      CG321
   10    42	 1 ;       CG321       HGA2
   10    43	 1 ;       CG321       HGA2
   11    12	 1 ;       CG321      CG321
   11    44	 1 ;       CG321       HGA2
   11    45	 1 ;       CG321       HGA2
   12    13	 1 ;       CG321      CG321
   12    46	 1 ;       CG321       HGA2
   12    47	 1 ;       CG321       HGA2
   13    14	 1 ;       CG321      CG321
   13    48	 1 ;       CG321       HGA2
   13    49	 1 ;       CG321       HGA2
   14    15	 1 ;       CG321      CG321
   14    50	 1 ;       CG321       HGA2
   14    51	 1 ;       CG321       HGA2
   15    16	 1 ;       CG321      CG321
   15    52	 1 ;       CG321       HGA2
   15    53	 1 ;       CG321       HGA2
   16    17	 1 ;       CG321      CG321
   16    54	 1 ;       CG321       HGA2
   16    55	 1 ;       CG321       HGA2
   17    18	 1 ;       CG321      CG321
   17    56	 1 ;       CG321       HGA2
   17    57	 1 ;       CG321       HGA2
   18    22	 1 ;       CG321      OG301
   18    58	 1 ;       CG321       HGA2
   18    59	 1 ;       CG321       HGA2
   19    20	 1 ;       CG301      CG331
   19    21	 1 ;       CG301      CG331
   19    98	 1 ;       CG301      OG301
   19    22	 1 ;       CG301      OG301
   20    60	 1 ;       CG331       HGA3
   20    61	 1 ;       CG331       HGA3
   20    62	 1 ;       CG331       HGA3
   21    63	 1 ;       CG331       HGA3
   21    64	 1 ;       CG331       HGA3
   21    65	 1 ;       CG331       HGA3
   66    67	 1 ;      CG2R61     CG2R61
   66    71	 1 ;      CG2R61     CG2R61
   66    98	 1 ;      CG2R61      OG301
   67    68	 1 ;      CG2R61     CG2R61
   67   107	 1 ;      CG2R61      HGR61
   68    69	 1 ;      CG2R61     CG2R61
   68   108	 1 ;      CG2R61      HGR61
   69    70	 1 ;      CG2R61     CG2R61
   69    89	 1 ;      CG2R61      CG311
   70    71	 1 ;      CG2R61     CG2R61
   70    72	 1 ;      CG2R61      CG321
   71   109	 1 ;      CG2R61      HGR61
   72    73	 1 ;       CG321      CG311
   72   110	 1 ;       CG321       HGA2
   72   111	 1 ;       CG321       HGA2
   73    74	 1 ;       CG311      CG321
   73    88	 1 ;       CG311      CG311
   73   112	 1 ;       CG311       HGA1
   74    75	 1 ;       CG321      CG321
   74   113	 1 ;       CG321       HGA2
   74   114	 1 ;       CG321       HGA2
   75    76	 1 ;       CG321      CG321
   75   115	 1 ;       CG321       HGA2
   75   116	 1 ;       CG321       HGA2
   76    77	 1 ;       CG321      CG321
   76   117	 1 ;       CG321       HGA2
   76   118	 1 ;       CG321       HGA2
   77    78	 1 ;       CG321      CG321
   77   119	 1 ;       CG321       HGA2
   77   120	 1 ;       CG321       HGA2
   78    79	 1 ;       CG321      CG321
   78   121	 1 ;       CG321       HGA2
   78   122	 1 ;       CG321       HGA2
   79    80	 1 ;       CG321      CG321
   79   123	 1 ;       CG321       HGA2
   79   124	 1 ;       CG321       HGA2
   80    81	 1 ;       CG321      CG321
   80   125	 1 ;       CG321       HGA2
   80   126	 1 ;       CG321       HGA2
   81    82	 1 ;       CG321      CG321
   81   127	 1 ;       CG321       HGA2
   81   128	 1 ;       CG321       HGA2
   82   106	 1 ;       CG321      SG3O3
   82   129	 1 ;       CG321       HGA2
   82   130	 1 ;       CG321       HGA2
   83    84	 1 ;       CG321      CG321
   83   131	 1 ;       CG321       HGA2
   83   132	 1 ;       CG321       HGA2
   83   106	 1 ;       CG321      SG3O3
   84    85	 1 ;       CG321      CG321
   84   133	 1 ;       CG321       HGA2
   84   134	 1 ;       CG321       HGA2
   85    86	 1 ;       CG321      CG312
   85   135	 1 ;       CG321       HGA2
   85   136	 1 ;       CG321       HGA2
   86    87	 1 ;       CG312      CG302
   86   101	 1 ;       CG312       FGA2
   86   102	 1 ;       CG312       FGA2
   87   103	 1 ;       CG302       FGA3
   87   104	 1 ;       CG302       FGA3
   87   105	 1 ;       CG302       FGA3
   88    89	 1 ;       CG311      CG311
   88    97	 1 ;       CG311     CG3RC1
   88   137	 1 ;       CG311       HGA1
   89    90	 1 ;       CG311      CG321
   89   138	 1 ;       CG311       HGA1
   90    91	 1 ;       CG321      CG321
   90   139	 1 ;       CG321       HGA2
   90   140	 1 ;       CG321       HGA2
   91    92	 1 ;       CG321     CG3RC1
   91   141	 1 ;       CG321       HGA2
   91   142	 1 ;       CG321       HGA2
   92    93	 1 ;      CG3RC1      CG331
   92    94	 1 ;      CG3RC1     CG3C51
   92    97	 1 ;      CG3RC1     CG3RC1
   93   143	 1 ;       CG331       HGA3
   93   144	 1 ;       CG331       HGA3
   93   145	 1 ;       CG331       HGA3
   94    95	 1 ;      CG3C51     CG3C52
   94   100	 1 ;      CG3C51      OG311
   94   146	 1 ;      CG3C51       HGA1
   95    96	 1 ;      CG3C52     CG3C52
   95   148	 1 ;      CG3C52       HGA2
   95   149	 1 ;      CG3C52       HGA2
   96    97	 1 ;      CG3C52     CG3RC1
   96   150	 1 ;      CG3C52       HGA2
   96   151	 1 ;      CG3C52       HGA2
   97   152	 1 ;      CG3RC1       HGA1
   99   106	 1 ;       OG2P1      SG3O3
  100   147	 1 ;       OG311       HGP1

[ pairs ]
;	ai	  aj funct			  c0			c1			  c2			c3
    1     4	 1
    1    28	 1
    1    29	 1
    2     5	 1
    2    30	 1
    2    31	 1
    3    23	 1
    3    24	 1
    3    25	 1
    3     6	 1
    3    32	 1
    3    33	 1
    4    26	 1
    4    27	 1
    4     7	 1
    4    34	 1
    4    35	 1
    5    28	 1
    5    29	 1
    5     8	 1
    5    36	 1
    5    37	 1
    6    30	 1
    6    31	 1
    6     9	 1
    6    38	 1
    6    39	 1
    7    32	 1
    7    33	 1
    7    10	 1
    7    40	 1
    7    41	 1
    8    34	 1
    8    35	 1
    8    11	 1
    8    42	 1
    8    43	 1
    9    36	 1
    9    37	 1
    9    12	 1
    9    44	 1
    9    45	 1
   10    38	 1
   10    39	 1
   10    13	 1
   10    46	 1
   10    47	 1
   11    40	 1
   11    41	 1
   11    14	 1
   11    48	 1
   11    49	 1
   12    42	 1
   12    43	 1
   12    15	 1
   12    50	 1
   12    51	 1
   13    44	 1
   13    45	 1
   13    16	 1
   13    52	 1
   13    53	 1
   14    46	 1
   14    47	 1
   14    17	 1
   14    54	 1
   14    55	 1
   15    48	 1
   15    49	 1
   15    18	 1
   15    56	 1
   15    57	 1
   16    50	 1
   16    51	 1
   16    22	 1
   16    58	 1
   16    59	 1
   17    52	 1
   17    53	 1
   17    19	 1
   18    54	 1
   18    55	 1
   18    20	 1
   18    21	 1
   18    98	 1
   19    58	 1
   19    59	 1
   19    67	 1
   19    71	 1
   20    63	 1
   20    64	 1
   20    65	 1
   20    66	 1
   21    60	 1
   21    61	 1
   21    62	 1
   21    66	 1
   22    56	 1
   22    57	 1
   22    60	 1
   22    61	 1
   22    62	 1
   22    63	 1
   22    64	 1
   22    65	 1
   22    66	 1
   23    26	 1
   23    27	 1
   24    26	 1
   24    27	 1
   25    26	 1
   25    27	 1
   26    28	 1
   26    29	 1
   27    28	 1
   27    29	 1
   28    30	 1
   28    31	 1
   29    30	 1
   29    31	 1
   30    32	 1
   30    33	 1
   31    32	 1
   31    33	 1
   32    34	 1
   32    35	 1
   33    34	 1
   33    35	 1
   34    36	 1
   34    37	 1
   35    36	 1
   35    37	 1
   36    38	 1
   36    39	 1
   37    38	 1
   37    39	 1
   38    40	 1
   38    41	 1
   39    40	 1
   39    41	 1
   40    42	 1
   40    43	 1
   41    42	 1
   41    43	 1
   42    44	 1
   42    45	 1
   43    44	 1
   43    45	 1
   44    46	 1
   44    47	 1
   45    46	 1
   45    47	 1
   46    48	 1
   46    49	 1
   47    48	 1
   47    49	 1
   48    50	 1
   48    51	 1
   49    50	 1
   49    51	 1
   50    52	 1
   50    53	 1
   51    52	 1
   51    53	 1
   52    54	 1
   52    55	 1
   53    54	 1
   53    55	 1
   54    56	 1
   54    57	 1
   55    56	 1
   55    57	 1
   56    58	 1
   56    59	 1
   57    58	 1
   57    59	 1
   60    98	 1
   61    98	 1
   62    98	 1
   63    98	 1
   64    98	 1
   65    98	 1
   66    69	 1
   66   108	 1
   66    72	 1
   67    70	 1
   67   109	 1
   67    89	 1
   68    71	 1
   68    98	 1
   68    72	 1
   68    88	 1
   68    90	 1
   68   138	 1
   69   107	 1
   69   109	 1
   69    73	 1
   69   110	 1
   69   111	 1
   69    97	 1
   69   137	 1
   69    91	 1
   69   139	 1
   69   140	 1
   70    98	 1
   70   108	 1
   70    88	 1
   70    90	 1
   70   138	 1
   70    74	 1
   70   112	 1
   71   107	 1
   71    89	 1
   71    73	 1
   71   110	 1
   71   111	 1
   72    89	 1
   72   109	 1
   72    75	 1
   72   113	 1
   72   114	 1
   72    97	 1
   72   137	 1
   73    76	 1
   73   115	 1
   73   116	 1
   73    90	 1
   73   138	 1
   73    92	 1
   73    96	 1
   73   152	 1
   74   110	 1
   74   111	 1
   74    89	 1
   74    97	 1
   74   137	 1
   74    77	 1
   74   117	 1
   74   118	 1
   75    88	 1
   75   112	 1
   75    78	 1
   75   119	 1
   75   120	 1
   76   113	 1
   76   114	 1
   76    79	 1
   76   121	 1
   76   122	 1
   77   115	 1
   77   116	 1
   77    80	 1
   77   123	 1
   77   124	 1
   78   117	 1
   78   118	 1
   78    81	 1
   78   125	 1
   78   126	 1
   79   119	 1
   79   120	 1
   79    82	 1
   79   127	 1
   79   128	 1
   80   121	 1
   80   122	 1
   80   106	 1
   80   129	 1
   80   130	 1
   81   123	 1
   81   124	 1
   81    83	 1
   81    99	 1
   82   125	 1
   82   126	 1
   82    84	 1
   82   131	 1
   82   132	 1
   83   129	 1
   83   130	 1
   83    86	 1
   83   135	 1
   83   136	 1
   84    99	 1
   84    87	 1
   84   101	 1
   84   102	 1
   85   131	 1
   85   132	 1
   85   106	 1
   85   103	 1
   85   104	 1
   85   105	 1
   86   133	 1
   86   134	 1
   87   135	 1
   87   136	 1
   88   110	 1
   88   111	 1
   88   113	 1
   88   114	 1
   88    91	 1
   88   139	 1
   88   140	 1
   88    93	 1
   88    94	 1
   88    95	 1
   88   150	 1
   88   151	 1
   89   108	 1
   89   112	 1
   89    92	 1
   89    96	 1
   89   152	 1
   89   141	 1
   89   142	 1
   90    97	 1
   90   137	 1
   90    93	 1
   90    94	 1
   91   138	 1
   91   143	 1
   91   144	 1
   91   145	 1
   91    95	 1
   91   100	 1
   91   146	 1
   91    96	 1
   91   152	 1
   92   137	 1
   92   139	 1
   92   140	 1
   92   148	 1
   92   149	 1
   92   147	 1
   92   150	 1
   92   151	 1
   93   141	 1
   93   142	 1
   93    95	 1
   93   100	 1
   93   146	 1
   93    96	 1
   93   152	 1
   94   141	 1
   94   142	 1
   94   143	 1
   94   144	 1
   94   145	 1
   94   152	 1
   94   150	 1
   94   151	 1
   95   147	 1
   95   152	 1
   96   137	 1
   96   100	 1
   96   146	 1
   97   112	 1
   97   138	 1
   97   141	 1
   97   142	 1
   97   143	 1
   97   144	 1
   97   145	 1
   97   100	 1
   97   146	 1
   97   148	 1
   97   149	 1
   98   107	 1
   98   109	 1
   99   129	 1
   99   130	 1
   99   131	 1
   99   132	 1
  100   148	 1
  100   149	 1
  101   135	 1
  101   136	 1
  101   103	 1
  101   104	 1
  101   105	 1
  102   135	 1
  102   136	 1
  102   103	 1
  102   104	 1
  102   105	 1
  106   127	 1
  106   128	 1
  106   133	 1
  106   134	 1
  107   108	 1
  110   112	 1
  111   112	 1
  112   113	 1
  112   114	 1
  112   137	 1
  113   115	 1
  113   116	 1
  114   115	 1
  114   116	 1
  115   117	 1
  115   118	 1
  116   117	 1
  116   118	 1
  117   119	 1
  117   120	 1
  118   119	 1
  118   120	 1
  119   121	 1
  119   122	 1
  120   121	 1
  120   122	 1
  121   123	 1
  121   124	 1
  122   123	 1
  122   124	 1
  123   125	 1
  123   126	 1
  124   125	 1
  124   126	 1
  125   127	 1
  125   128	 1
  126   127	 1
  126   128	 1
  127   129	 1
  127   130	 1
  128   129	 1
  128   130	 1
  131   133	 1
  131   134	 1
  132   133	 1
  132   134	 1
  133   135	 1
  133   136	 1
  134   135	 1
  134   136	 1
  137   138	 1
  137   152	 1
  138   139	 1
  138   140	 1
  139   141	 1
  139   142	 1
  140   141	 1
  140   142	 1
  146   148	 1
  146   149	 1
  146   147	 1
  148   150	 1
  148   151	 1
  149   150	 1
  149   151	 1
  150   152	 1
  151   152	 1

[ angles ]
;	ai	  aj	ak funct			c0			  c1			c2			  c3
    2     1    23	5 ;      CG321      CG331       HGA3
    2     1    24	5 ;      CG321      CG331       HGA3
    2     1    25	5 ;      CG321      CG331       HGA3
   23     1    24	5 ;       HGA3      CG331       HGA3
   23     1    25	5 ;       HGA3      CG331       HGA3
   24     1    25	5 ;       HGA3      CG331       HGA3
    1     2     3	5 ;      CG331      CG321      CG321
    1     2    26	5 ;      CG331      CG321       HGA2
    1     2    27	5 ;      CG331      CG321       HGA2
    3     2    26	5 ;      CG321      CG321       HGA2
    3     2    27	5 ;      CG321      CG321       HGA2
   26     2    27	5 ;       HGA2      CG321       HGA2
    2     3     4	5 ;      CG321      CG321      CG321
    2     3    28	5 ;      CG321      CG321       HGA2
    2     3    29	5 ;      CG321      CG321       HGA2
    4     3    28	5 ;      CG321      CG321       HGA2
    4     3    29	5 ;      CG321      CG321       HGA2
   28     3    29	5 ;       HGA2      CG321       HGA2
    3     4     5	5 ;      CG321      CG321      CG321
    3     4    30	5 ;      CG321      CG321       HGA2
    3     4    31	5 ;      CG321      CG321       HGA2
    5     4    30	5 ;      CG321      CG321       HGA2
    5     4    31	5 ;      CG321      CG321       HGA2
   30     4    31	5 ;       HGA2      CG321       HGA2
    4     5     6	5 ;      CG321      CG321      CG321
    4     5    32	5 ;      CG321      CG321       HGA2
    4     5    33	5 ;      CG321      CG321       HGA2
    6     5    32	5 ;      CG321      CG321       HGA2
    6     5    33	5 ;      CG321      CG321       HGA2
   32     5    33	5 ;       HGA2      CG321       HGA2
    5     6     7	5 ;      CG321      CG321      CG321
    5     6    34	5 ;      CG321      CG321       HGA2
    5     6    35	5 ;      CG321      CG321       HGA2
    7     6    34	5 ;      CG321      CG321       HGA2
    7     6    35	5 ;      CG321      CG321       HGA2
   34     6    35	5 ;       HGA2      CG321       HGA2
    6     7     8	5 ;      CG321      CG321      CG321
    6     7    36	5 ;      CG321      CG321       HGA2
    6     7    37	5 ;      CG321      CG321       HGA2
    8     7    36	5 ;      CG321      CG321       HGA2
    8     7    37	5 ;      CG321      CG321       HGA2
   36     7    37	5 ;       HGA2      CG321       HGA2
    7     8     9	5 ;      CG321      CG321      CG321
    7     8    38	5 ;      CG321      CG321       HGA2
    7     8    39	5 ;      CG321      CG321       HGA2
    9     8    38	5 ;      CG321      CG321       HGA2
    9     8    39	5 ;      CG321      CG321       HGA2
   38     8    39	5 ;       HGA2      CG321       HGA2
    8     9    10	5 ;      CG321      CG321      CG321
    8     9    40	5 ;      CG321      CG321       HGA2
    8     9    41	5 ;      CG321      CG321       HGA2
   10     9    40	5 ;      CG321      CG321       HGA2
   10     9    41	5 ;      CG321      CG321       HGA2
   40     9    41	5 ;       HGA2      CG321       HGA2
    9    10    11	5 ;      CG321      CG321      CG321
    9    10    42	5 ;      CG321      CG321       HGA2
    9    10    43	5 ;      CG321      CG321       HGA2
   11    10    42	5 ;      CG321      CG321       HGA2
   11    10    43	5 ;      CG321      CG321       HGA2
   42    10    43	5 ;       HGA2      CG321       HGA2
   10    11    12	5 ;      CG321      CG321      CG321
   10    11    44	5 ;      CG321      CG321       HGA2
   10    11    45	5 ;      CG321      CG321       HGA2
   12    11    44	5 ;      CG321      CG321       HGA2
   12    11    45	5 ;      CG321      CG321       HGA2
   44    11    45	5 ;       HGA2      CG321       HGA2
   11    12    13	5 ;      CG321      CG321      CG321
   11    12    46	5 ;      CG321      CG321       HGA2
   11    12    47	5 ;      CG321      CG321       HGA2
   13    12    46	5 ;      CG321      CG321       HGA2
   13    12    47	5 ;      CG321      CG321       HGA2
   46    12    47	5 ;       HGA2      CG321       HGA2
   12    13    14	5 ;      CG321      CG321      CG321
   12    13    48	5 ;      CG321      CG321       HGA2
   12    13    49	5 ;      CG321      CG321       HGA2
   14    13    48	5 ;      CG321      CG321       HGA2
   14    13    49	5 ;      CG321      CG321       HGA2
   48    13    49	5 ;       HGA2      CG321       HGA2
   13    14    15	5 ;      CG321      CG321      CG321
   13    14    50	5 ;      CG321      CG321       HGA2
   13    14    51	5 ;      CG321      CG321       HGA2
   15    14    50	5 ;      CG321      CG321       HGA2
   15    14    51	5 ;      CG321      CG321       HGA2
   50    14    51	5 ;       HGA2      CG321       HGA2
   14    15    16	5 ;      CG321      CG321      CG321
   14    15    52	5 ;      CG321      CG321       HGA2
   14    15    53	5 ;      CG321      CG321       HGA2
   16    15    52	5 ;      CG321      CG321       HGA2
   16    15    53	5 ;      CG321      CG321       HGA2
   52    15    53	5 ;       HGA2      CG321       HGA2
   15    16    17	5 ;      CG321      CG321      CG321
   15    16    54	5 ;      CG321      CG321       HGA2
   15    16    55	5 ;      CG321      CG321       HGA2
   17    16    54	5 ;      CG321      CG321       HGA2
   17    16    55	5 ;      CG321      CG321       HGA2
   54    16    55	5 ;       HGA2      CG321       HGA2
   16    17    18	5 ;      CG321      CG321      CG321
   16    17    56	5 ;      CG321      CG321       HGA2
   16    17    57	5 ;      CG321      CG321       HGA2
   18    17    56	5 ;      CG321      CG321       HGA2
   18    17    57	5 ;      CG321      CG321       HGA2
   56    17    57	5 ;       HGA2      CG321       HGA2
   17    18    22	5 ;      CG321      CG321      OG301
   17    18    58	5 ;      CG321      CG321       HGA2
   17    18    59	5 ;      CG321      CG321       HGA2
   22    18    58	5 ;      OG301      CG321       HGA2
   22    18    59	5 ;      OG301      CG321       HGA2
   58    18    59	5 ;       HGA2      CG321       HGA2
   20    19    21	5 ;      CG331      CG301      CG331
   20    19    98	5 ;      CG331      CG301      OG301
   20    19    22	5 ;      CG331      CG301      OG301
   21    19    98	5 ;      CG331      CG301      OG301
   21    19    22	5 ;      CG331      CG301      OG301
   98    19    22	5 ;      OG301      CG301      OG301
   19    20    60	5 ;      CG301      CG331       HGA3
   19    20    61	5 ;      CG301      CG331       HGA3
   19    20    62	5 ;      CG301      CG331       HGA3
   60    20    61	5 ;       HGA3      CG331       HGA3
   60    20    62	5 ;       HGA3      CG331       HGA3
   61    20    62	5 ;       HGA3      CG331       HGA3
   19    21    63	5 ;      CG301      CG331       HGA3
   19    21    64	5 ;      CG301      CG331       HGA3
   19    21    65	5 ;      CG301      CG331       HGA3
   63    21    64	5 ;       HGA3      CG331       HGA3
   63    21    65	5 ;       HGA3      CG331       HGA3
   64    21    65	5 ;       HGA3      CG331       HGA3
   18    22    19	5 ;      CG321      OG301      CG301
   67    66    71	5 ;     CG2R61     CG2R61     CG2R61
   67    66    98	5 ;     CG2R61     CG2R61      OG301
   71    66    98	5 ;     CG2R61     CG2R61      OG301
   66    67    68	5 ;     CG2R61     CG2R61     CG2R61
   66    67   107	5 ;     CG2R61     CG2R61      HGR61
   68    67   107	5 ;     CG2R61     CG2R61      HGR61
   67    68    69	5 ;     CG2R61     CG2R61     CG2R61
   67    68   108	5 ;     CG2R61     CG2R61      HGR61
   69    68   108	5 ;     CG2R61     CG2R61      HGR61
   68    69    70	5 ;     CG2R61     CG2R61     CG2R61
   68    69    89	5 ;     CG2R61     CG2R61      CG311
   70    69    89	5 ;     CG2R61     CG2R61      CG311
   69    70    71	5 ;     CG2R61     CG2R61     CG2R61
   69    70    72	5 ;     CG2R61     CG2R61      CG321
   71    70    72	5 ;     CG2R61     CG2R61      CG321
   66    71    70	5 ;     CG2R61     CG2R61     CG2R61
   66    71   109	5 ;     CG2R61     CG2R61      HGR61
   70    71   109	5 ;     CG2R61     CG2R61      HGR61
   70    72    73	5 ;     CG2R61      CG321      CG311
   70    72   110	5 ;     CG2R61      CG321       HGA2
   70    72   111	5 ;     CG2R61      CG321       HGA2
   73    72   110	5 ;      CG311      CG321       HGA2
   73    72   111	5 ;      CG311      CG321       HGA2
  110    72   111	5 ;       HGA2      CG321       HGA2
   72    73    74	5 ;      CG321      CG311      CG321
   72    73    88	5 ;      CG321      CG311      CG311
   72    73   112	5 ;      CG321      CG311       HGA1
   74    73    88	5 ;      CG321      CG311      CG311
   74    73   112	5 ;      CG321      CG311       HGA1
   88    73   112	5 ;      CG311      CG311       HGA1
   73    74    75	5 ;      CG311      CG321      CG321
   73    74   113	5 ;      CG311      CG321       HGA2
   73    74   114	5 ;      CG311      CG321       HGA2
   75    74   113	5 ;      CG321      CG321       HGA2
   75    74   114	5 ;      CG321      CG321       HGA2
  113    74   114	5 ;       HGA2      CG321       HGA2
   74    75    76	5 ;      CG321      CG321      CG321
   74    75   115	5 ;      CG321      CG321       HGA2
   74    75   116	5 ;      CG321      CG321       HGA2
   76    75   115	5 ;      CG321      CG321       HGA2
   76    75   116	5 ;      CG321      CG321       HGA2
  115    75   116	5 ;       HGA2      CG321       HGA2
   75    76    77	5 ;      CG321      CG321      CG321
   75    76   117	5 ;      CG321      CG321       HGA2
   75    76   118	5 ;      CG321      CG321       HGA2
   77    76   117	5 ;      CG321      CG321       HGA2
   77    76   118	5 ;      CG321      CG321       HGA2
  117    76   118	5 ;       HGA2      CG321       HGA2
   76    77    78	5 ;      CG321      CG321      CG321
   76    77   119	5 ;      CG321      CG321       HGA2
   76    77   120	5 ;      CG321      CG321       HGA2
   78    77   119	5 ;      CG321      CG321       HGA2
   78    77   120	5 ;      CG321      CG321       HGA2
  119    77   120	5 ;       HGA2      CG321       HGA2
   77    78    79	5 ;      CG321      CG321      CG321
   77    78   121	5 ;      CG321      CG321       HGA2
   77    78   122	5 ;      CG321      CG321       HGA2
   79    78   121	5 ;      CG321      CG321       HGA2
   79    78   122	5 ;      CG321      CG321       HGA2
  121    78   122	5 ;       HGA2      CG321       HGA2
   78    79    80	5 ;      CG321      CG321      CG321
   78    79   123	5 ;      CG321      CG321       HGA2
   78    79   124	5 ;      CG321      CG321       HGA2
   80    79   123	5 ;      CG321      CG321       HGA2
   80    79   124	5 ;      CG321      CG321       HGA2
  123    79   124	5 ;       HGA2      CG321       HGA2
   79    80    81	5 ;      CG321      CG321      CG321
   79    80   125	5 ;      CG321      CG321       HGA2
   79    80   126	5 ;      CG321      CG321       HGA2
   81    80   125	5 ;      CG321      CG321       HGA2
   81    80   126	5 ;      CG321      CG321       HGA2
  125    80   126	5 ;       HGA2      CG321       HGA2
   80    81    82	5 ;      CG321      CG321      CG321
   80    81   127	5 ;      CG321      CG321       HGA2
   80    81   128	5 ;      CG321      CG321       HGA2
   82    81   127	5 ;      CG321      CG321       HGA2
   82    81   128	5 ;      CG321      CG321       HGA2
  127    81   128	5 ;       HGA2      CG321       HGA2
   81    82   106	5 ;      CG321      CG321      SG3O3
   81    82   129	5 ;      CG321      CG321       HGA2
   81    82   130	5 ;      CG321      CG321       HGA2
  106    82   129	5 ;      SG3O3      CG321       HGA2
  106    82   130	5 ;      SG3O3      CG321       HGA2
  129    82   130	5 ;       HGA2      CG321       HGA2
   84    83   131	5 ;      CG321      CG321       HGA2
   84    83   132	5 ;      CG321      CG321       HGA2
   84    83   106	5 ;      CG321      CG321      SG3O3
  131    83   132	5 ;       HGA2      CG321       HGA2
  131    83   106	5 ;       HGA2      CG321      SG3O3
  132    83   106	5 ;       HGA2      CG321      SG3O3
   83    84    85	5 ;      CG321      CG321      CG321
   83    84   133	5 ;      CG321      CG321       HGA2
   83    84   134	5 ;      CG321      CG321       HGA2
   85    84   133	5 ;      CG321      CG321       HGA2
   85    84   134	5 ;      CG321      CG321       HGA2
  133    84   134	5 ;       HGA2      CG321       HGA2
   84    85    86	5 ;      CG321      CG321      CG312
   84    85   135	5 ;      CG321      CG321       HGA2
   84    85   136	5 ;      CG321      CG321       HGA2
   86    85   135	5 ;      CG312      CG321       HGA2
   86    85   136	5 ;      CG312      CG321       HGA2
  135    85   136	5 ;       HGA2      CG321       HGA2
   85    86    87	5 ;      CG321      CG312      CG302
   85    86   101	5 ;      CG321      CG312       FGA2
   85    86   102	5 ;      CG321      CG312       FGA2
   87    86   101	5 ;      CG302      CG312       FGA2
   87    86   102	5 ;      CG302      CG312       FGA2
  101    86   102	5 ;       FGA2      CG312       FGA2
   86    87   103	5 ;      CG312      CG302       FGA3
   86    87   104	5 ;      CG312      CG302       FGA3
   86    87   105	5 ;      CG312      CG302       FGA3
  103    87   104	5 ;       FGA3      CG302       FGA3
  103    87   105	5 ;       FGA3      CG302       FGA3
  104    87   105	5 ;       FGA3      CG302       FGA3
   73    88    89	5 ;      CG311      CG311      CG311
   73    88    97	5 ;      CG311      CG311     CG3RC1
   73    88   137	5 ;      CG311      CG311       HGA1
   89    88    97	5 ;      CG311      CG311     CG3RC1
   89    88   137	5 ;      CG311      CG311       HGA1
   97    88   137	5 ;     CG3RC1      CG311       HGA1
   69    89    88	5 ;     CG2R61      CG311      CG311
   69    89    90	5 ;     CG2R61      CG311      CG321
   69    89   138	5 ;     CG2R61      CG311       HGA1
   88    89    90	5 ;      CG311      CG311      CG321
   88    89   138	5 ;      CG311      CG311       HGA1
   90    89   138	5 ;      CG321      CG311       HGA1
   89    90    91	5 ;      CG311      CG321      CG321
   89    90   139	5 ;      CG311      CG321       HGA2
   89    90   140	5 ;      CG311      CG321       HGA2
   91    90   139	5 ;      CG321      CG321       HGA2
   91    90   140	5 ;      CG321      CG321       HGA2
  139    90   140	5 ;       HGA2      CG321       HGA2
   90    91    92	5 ;      CG321      CG321     CG3RC1
   90    91   141	5 ;      CG321      CG321       HGA2
   90    91   142	5 ;      CG321      CG321       HGA2
   92    91   141	5 ;     CG3RC1      CG321       HGA2
   92    91   142	5 ;     CG3RC1      CG321       HGA2
  141    91   142	5 ;       HGA2      CG321       HGA2
   91    92    93	5 ;      CG321     CG3RC1      CG331
   91    92    94	5 ;      CG321     CG3RC1     CG3C51
   91    92    97	5 ;      CG321     CG3RC1     CG3RC1
   93    92    94	5 ;      CG331     CG3RC1     CG3C51
   93    92    97	5 ;      CG331     CG3RC1     CG3RC1
   94    92    97	5 ;     CG3C51     CG3RC1     CG3RC1
   92    93   143	5 ;     CG3RC1      CG331       HGA3
   92    93   144	5 ;     CG3RC1      CG331       HGA3
   92    93   145	5 ;     CG3RC1      CG331       HGA3
  143    93   144	5 ;       HGA3      CG331       HGA3
  143    93   145	5 ;       HGA3      CG331       HGA3
  144    93   145	5 ;       HGA3      CG331       HGA3
   92    94    95	5 ;     CG3RC1     CG3C51     CG3C52
   92    94   100	5 ;     CG3RC1     CG3C51      OG311
   92    94   146	5 ;     CG3RC1     CG3C51       HGA1
   95    94   100	5 ;     CG3C52     CG3C51      OG311
   95    94   146	5 ;     CG3C52     CG3C51       HGA1
  100    94   146	5 ;      OG311     CG3C51       HGA1
   94    95    96	5 ;     CG3C51     CG3C52     CG3C52
   94    95   148	5 ;     CG3C51     CG3C52       HGA2
   94    95   149	5 ;     CG3C51     CG3C52       HGA2
   96    95   148	5 ;     CG3C52     CG3C52       HGA2
   96    95   149	5 ;     CG3C52     CG3C52       HGA2
  148    95   149	5 ;       HGA2     CG3C52       HGA2
   95    96    97	5 ;     CG3C52     CG3C52     CG3RC1
   95    96   150	5 ;     CG3C52     CG3C52       HGA2
   95    96   151	5 ;     CG3C52     CG3C52       HGA2
   97    96   150	5 ;     CG3RC1     CG3C52       HGA2
   97    96   151	5 ;     CG3RC1     CG3C52       HGA2
  150    96   151	5 ;       HGA2     CG3C52       HGA2
   88    97    92	5 ;      CG311     CG3RC1     CG3RC1
   88    97    96	5 ;      CG311     CG3RC1     CG3C52
   88    97   152	5 ;      CG311     CG3RC1       HGA1
   92    97    96	5 ;     CG3RC1     CG3RC1     CG3C52
   92    97   152	5 ;     CG3RC1     CG3RC1       HGA1
   96    97   152	5 ;     CG3C52     CG3RC1       HGA1
   19    98    66	5 ;      CG301      OG301     CG2R61
   94   100   147	5 ;     CG3C51      OG311       HGP1
   82   106    83	5 ;      CG321      SG3O3      CG321
   82   106    99	5 ;      CG321      SG3O3      OG2P1
   83   106    99	5 ;      CG321      SG3O3      OG2P1

[ dihedrals ]
;	ai	  aj	ak	  al funct			  c0			c1			  c2			c3			  c4			c5
   23     1     2     3	 9 ;       HGA3      CG331      CG321      CG321
   23     1     2    26	 9 ;       HGA3      CG331      CG321       HGA2
   23     1     2    27	 9 ;       HGA3      CG331      CG321       HGA2
   24     1     2     3	 9 ;       HGA3      CG331      CG321      CG321
   24     1     2    26	 9 ;       HGA3      CG331      CG321       HGA2
   24     1     2    27	 9 ;       HGA3      CG331      CG321       HGA2
   25     1     2     3	 9 ;       HGA3      CG331      CG321      CG321
   25     1     2    26	 9 ;       HGA3      CG331      CG321       HGA2
   25     1     2    27	 9 ;       HGA3      CG331      CG321       HGA2
    1     2     3     4	 9 ;      CG331      CG321      CG321      CG321
    1     2     3    28	 9 ;      CG331      CG321      CG321       HGA2
    1     2     3    29	 9 ;      CG331      CG321      CG321       HGA2
   26     2     3     4	 9 ;       HGA2      CG321      CG321      CG321
   26     2     3    28	 9 ;       HGA2      CG321      CG321       HGA2
   26     2     3    29	 9 ;       HGA2      CG321      CG321       HGA2
   27     2     3     4	 9 ;       HGA2      CG321      CG321      CG321
   27     2     3    28	 9 ;       HGA2      CG321      CG321       HGA2
   27     2     3    29	 9 ;       HGA2      CG321      CG321       HGA2
    2     3     4     5	 9 ;      CG321      CG321      CG321      CG321
    2     3     4    30	 9 ;      CG321      CG321      CG321       HGA2
    2     3     4    31	 9 ;      CG321      CG321      CG321       HGA2
   28     3     4     5	 9 ;       HGA2      CG321      CG321      CG321
   28     3     4    30	 9 ;       HGA2      CG321      CG321       HGA2
   28     3     4    31	 9 ;       HGA2      CG321      CG321       HGA2
   29     3     4     5	 9 ;       HGA2      CG321      CG321      CG321
   29     3     4    30	 9 ;       HGA2      CG321      CG321       HGA2
   29     3     4    31	 9 ;       HGA2      CG321      CG321       HGA2
    3     4     5     6	 9 ;      CG321      CG321      CG321      CG321
    3     4     5    32	 9 ;      CG321      CG321      CG321       HGA2
    3     4     5    33	 9 ;      CG321      CG321      CG321       HGA2
   30     4     5     6	 9 ;       HGA2      CG321      CG321      CG321
   30     4     5    32	 9 ;       HGA2      CG321      CG321       HGA2
   30     4     5    33	 9 ;       HGA2      CG321      CG321       HGA2
   31     4     5     6	 9 ;       HGA2      CG321      CG321      CG321
   31     4     5    32	 9 ;       HGA2      CG321      CG321       HGA2
   31     4     5    33	 9 ;       HGA2      CG321      CG321       HGA2
    4     5     6     7	 9 ;      CG321      CG321      CG321      CG321
    4     5     6    34	 9 ;      CG321      CG321      CG321       HGA2
    4     5     6    35	 9 ;      CG321      CG321      CG321       HGA2
   32     5     6     7	 9 ;       HGA2      CG321      CG321      CG321
   32     5     6    34	 9 ;       HGA2      CG321      CG321       HGA2
   32     5     6    35	 9 ;       HGA2      CG321      CG321       HGA2
   33     5     6     7	 9 ;       HGA2      CG321      CG321      CG321
   33     5     6    34	 9 ;       HGA2      CG321      CG321       HGA2
   33     5     6    35	 9 ;       HGA2      CG321      CG321       HGA2
    5     6     7     8	 9 ;      CG321      CG321      CG321      CG321
    5     6     7    36	 9 ;      CG321      CG321      CG321       HGA2
    5     6     7    37	 9 ;      CG321      CG321      CG321       HGA2
   34     6     7     8	 9 ;       HGA2      CG321      CG321      CG321
   34     6     7    36	 9 ;       HGA2      CG321      CG321       HGA2
   34     6     7    37	 9 ;       HGA2      CG321      CG321       HGA2
   35     6     7     8	 9 ;       HGA2      CG321      CG321      CG321
   35     6     7    36	 9 ;       HGA2      CG321      CG321       HGA2
   35     6     7    37	 9 ;       HGA2      CG321      CG321       HGA2
    6     7     8     9	 9 ;      CG321      CG321      CG321      CG321
    6     7     8    38	 9 ;      CG321      CG321      CG321       HGA2
    6     7     8    39	 9 ;      CG321      CG321      CG321       HGA2
   36     7     8     9	 9 ;       HGA2      CG321      CG321      CG321
   36     7     8    38	 9 ;       HGA2      CG321      CG321       HGA2
   36     7     8    39	 9 ;       HGA2      CG321      CG321       HGA2
   37     7     8     9	 9 ;       HGA2      CG321      CG321      CG321
   37     7     8    38	 9 ;       HGA2      CG321      CG321       HGA2
   37     7     8    39	 9 ;       HGA2      CG321      CG321       HGA2
    7     8     9    10	 9 ;      CG321      CG321      CG321      CG321
    7     8     9    40	 9 ;      CG321      CG321      CG321       HGA2
    7     8     9    41	 9 ;      CG321      CG321      CG321       HGA2
   38     8     9    10	 9 ;       HGA2      CG321      CG321      CG321
   38     8     9    40	 9 ;       HGA2      CG321      CG321       HGA2
   38     8     9    41	 9 ;       HGA2      CG321      CG321       HGA2
   39     8     9    10	 9 ;       HGA2      CG321      CG321      CG321
   39     8     9    40	 9 ;       HGA2      CG321      CG321       HGA2
   39     8     9    41	 9 ;       HGA2      CG321      CG321       HGA2
    8     9    10    11	 9 ;      CG321      CG321      CG321      CG321
    8     9    10    42	 9 ;      CG321      CG321      CG321       HGA2
    8     9    10    43	 9 ;      CG321      CG321      CG321       HGA2
   40     9    10    11	 9 ;       HGA2      CG321      CG321      CG321
   40     9    10    42	 9 ;       HGA2      CG321      CG321       HGA2
   40     9    10    43	 9 ;       HGA2      CG321      CG321       HGA2
   41     9    10    11	 9 ;       HGA2      CG321      CG321      CG321
   41     9    10    42	 9 ;       HGA2      CG321      CG321       HGA2
   41     9    10    43	 9 ;       HGA2      CG321      CG321       HGA2
    9    10    11    12	 9 ;      CG321      CG321      CG321      CG321
    9    10    11    44	 9 ;      CG321      CG321      CG321       HGA2
    9    10    11    45	 9 ;      CG321      CG321      CG321       HGA2
   42    10    11    12	 9 ;       HGA2      CG321      CG321      CG321
   42    10    11    44	 9 ;       HGA2      CG321      CG321       HGA2
   42    10    11    45	 9 ;       HGA2      CG321      CG321       HGA2
   43    10    11    12	 9 ;       HGA2      CG321      CG321      CG321
   43    10    11    44	 9 ;       HGA2      CG321      CG321       HGA2
   43    10    11    45	 9 ;       HGA2      CG321      CG321       HGA2
   10    11    12    13	 9 ;      CG321      CG321      CG321      CG321
   10    11    12    46	 9 ;      CG321      CG321      CG321       HGA2
   10    11    12    47	 9 ;      CG321      CG321      CG321       HGA2
   44    11    12    13	 9 ;       HGA2      CG321      CG321      CG321
   44    11    12    46	 9 ;       HGA2      CG321      CG321       HGA2
   44    11    12    47	 9 ;       HGA2      CG321      CG321       HGA2
   45    11    12    13	 9 ;       HGA2      CG321      CG321      CG321
   45    11    12    46	 9 ;       HGA2      CG321      CG321       HGA2
   45    11    12    47	 9 ;       HGA2      CG321      CG321       HGA2
   11    12    13    14	 9 ;      CG321      CG321      CG321      CG321
   11    12    13    48	 9 ;      CG321      CG321      CG321       HGA2
   11    12    13    49	 9 ;      CG321      CG321      CG321       HGA2
   46    12    13    14	 9 ;       HGA2      CG321      CG321      CG321
   46    12    13    48	 9 ;       HGA2      CG321      CG321       HGA2
   46    12    13    49	 9 ;       HGA2      CG321      CG321       HGA2
   47    12    13    14	 9 ;       HGA2      CG321      CG321      CG321
   47    12    13    48	 9 ;       HGA2      CG321      CG321       HGA2
   47    12    13    49	 9 ;       HGA2      CG321      CG321       HGA2
   12    13    14    15	 9 ;      CG321      CG321      CG321      CG321
   12    13    14    50	 9 ;      CG321      CG321      CG321       HGA2
   12    13    14    51	 9 ;      CG321      CG321      CG321       HGA2
   48    13    14    15	 9 ;       HGA2      CG321      CG321      CG321
   48    13    14    50	 9 ;       HGA2      CG321      CG321       HGA2
   48    13    14    51	 9 ;       HGA2      CG321      CG321       HGA2
   49    13    14    15	 9 ;       HGA2      CG321      CG321      CG321
   49    13    14    50	 9 ;       HGA2      CG321      CG321       HGA2
   49    13    14    51	 9 ;       HGA2      CG321      CG321       HGA2
   13    14    15    16	 9 ;      CG321      CG321      CG321      CG321
   13    14    15    52	 9 ;      CG321      CG321      CG321       HGA2
   13    14    15    53	 9 ;      CG321      CG321      CG321       HGA2
   50    14    15    16	 9 ;       HGA2      CG321      CG321      CG321
   50    14    15    52	 9 ;       HGA2      CG321      CG321       HGA2
   50    14    15    53	 9 ;       HGA2      CG321      CG321       HGA2
   51    14    15    16	 9 ;       HGA2      CG321      CG321      CG321
   51    14    15    52	 9 ;       HGA2      CG321      CG321       HGA2
   51    14    15    53	 9 ;       HGA2      CG321      CG321       HGA2
   14    15    16    17	 9 ;      CG321      CG321      CG321      CG321
   14    15    16    54	 9 ;      CG321      CG321      CG321       HGA2
   14    15    16    55	 9 ;      CG321      CG321      CG321       HGA2
   52    15    16    17	 9 ;       HGA2      CG321      CG321      CG321
   52    15    16    54	 9 ;       HGA2      CG321      CG321       HGA2
   52    15    16    55	 9 ;       HGA2      CG321      CG321       HGA2
   53    15    16    17	 9 ;       HGA2      CG321      CG321      CG321
   53    15    16    54	 9 ;       HGA2      CG321      CG321       HGA2
   53    15    16    55	 9 ;       HGA2      CG321      CG321       HGA2
   15    16    17    18	 9 ;      CG321      CG321      CG321      CG321
   15    16    17    56	 9 ;      CG321      CG321      CG321       HGA2
   15    16    17    57	 9 ;      CG321      CG321      CG321       HGA2
   54    16    17    18	 9 ;       HGA2      CG321      CG321      CG321
   54    16    17    56	 9 ;       HGA2      CG321      CG321       HGA2
   54    16    17    57	 9 ;       HGA2      CG321      CG321       HGA2
   55    16    17    18	 9 ;       HGA2      CG321      CG321      CG321
   55    16    17    56	 9 ;       HGA2      CG321      CG321       HGA2
   55    16    17    57	 9 ;       HGA2      CG321      CG321       HGA2
   16    17    18    22	 9 ;      CG321      CG321      CG321      OG301
   16    17    18    58	 9 ;      CG321      CG321      CG321       HGA2
   16    17    18    59	 9 ;      CG321      CG321      CG321       HGA2
   56    17    18    22	 9 ;       HGA2      CG321      CG321      OG301
   56    17    18    58	 9 ;       HGA2      CG321      CG321       HGA2
   56    17    18    59	 9 ;       HGA2      CG321      CG321       HGA2
   57    17    18    22	 9 ;       HGA2      CG321      CG321      OG301
   57    17    18    58	 9 ;       HGA2      CG321      CG321       HGA2
   57    17    18    59	 9 ;       HGA2      CG321      CG321       HGA2
   17    18    22    19	 9 ;      CG321      CG321      OG301      CG301
   58    18    22    19	 9 ;       HGA2      CG321      OG301      CG301
   59    18    22    19	 9 ;       HGA2      CG321      OG301      CG301
   21    19    20    60	 9 ;      CG331      CG301      CG331       HGA3
   21    19    20    61	 9 ;      CG331      CG301      CG331       HGA3
   21    19    20    62	 9 ;      CG331      CG301      CG331       HGA3
   98    19    20    60	 9 ;      OG301      CG301      CG331       HGA3
   98    19    20    61	 9 ;      OG301      CG301      CG331       HGA3
   98    19    20    62	 9 ;      OG301      CG301      CG331       HGA3
   22    19    20    60	 9 ;      OG301      CG301      CG331       HGA3
   22    19    20    61	 9 ;      OG301      CG301      CG331       HGA3
   22    19    20    62	 9 ;      OG301      CG301      CG331       HGA3
   20    19    21    63	 9 ;      CG331      CG301      CG331       HGA3
   20    19    21    64	 9 ;      CG331      CG301      CG331       HGA3
   20    19    21    65	 9 ;      CG331      CG301      CG331       HGA3
   98    19    21    63	 9 ;      OG301      CG301      CG331       HGA3
   98    19    21    64	 9 ;      OG301      CG301      CG331       HGA3
   98    19    21    65	 9 ;      OG301      CG301      CG331       HGA3
   22    19    21    63	 9 ;      OG301      CG301      CG331       HGA3
   22    19    21    64	 9 ;      OG301      CG301      CG331       HGA3
   22    19    21    65	 9 ;      OG301      CG301      CG331       HGA3
   20    19    98    66	 9 ;      CG331      CG301      OG301     CG2R61
   21    19    98    66	 9 ;      CG331      CG301      OG301     CG2R61
   22    19    98    66	 9 ;      OG301      CG301      OG301     CG2R61
   20    19    22    18	 9 ;      CG331      CG301      OG301      CG321
   21    19    22    18	 9 ;      CG331      CG301      OG301      CG321
   98    19    22    18	 9 ;      OG301      CG301      OG301      CG321
   71    66    67    68	 9 ;     CG2R61     CG2R61     CG2R61     CG2R61
   71    66    67   107	 9 ;     CG2R61     CG2R61     CG2R61      HGR61
   98    66    67    68	 9 ;      OG301     CG2R61     CG2R61     CG2R61
   98    66    67   107	 9 ;      OG301     CG2R61     CG2R61      HGR61
   67    66    71    70	 9 ;     CG2R61     CG2R61     CG2R61     CG2R61
   67    66    71   109	 9 ;     CG2R61     CG2R61     CG2R61      HGR61
   98    66    71    70	 9 ;      OG301     CG2R61     CG2R61     CG2R61
   98    66    71   109	 9 ;      OG301     CG2R61     CG2R61      HGR61
   67    66    98    19	 9 ;     CG2R61     CG2R61      OG301      CG301
   71    66    98    19	 9 ;     CG2R61     CG2R61      OG301      CG301
   66    67    68    69	 9 ;     CG2R61     CG2R61     CG2R61     CG2R61
   66    67    68   108	 9 ;     CG2R61     CG2R61     CG2R61      HGR61
  107    67    68    69	 9 ;      HGR61     CG2R61     CG2R61     CG2R61
  107    67    68   108	 9 ;      HGR61     CG2R61     CG2R61      HGR61
   67    68    69    70	 9 ;     CG2R61     CG2R61     CG2R61     CG2R61
   67    68    69    89	 9 ;     CG2R61     CG2R61     CG2R61      CG311
  108    68    69    70	 9 ;      HGR61     CG2R61     CG2R61     CG2R61
  108    68    69    89	 9 ;      HGR61     CG2R61     CG2R61      CG311
   68    69    70    71	 9 ;     CG2R61     CG2R61     CG2R61     CG2R61
   68    69    70    72	 9 ;     CG2R61     CG2R61     CG2R61      CG321
   89    69    70    71	 9 ;      CG311     CG2R61     CG2R61     CG2R61
   89    69    70    72	 9 ;      CG311     CG2R61     CG2R61      CG321
   68    69    89    88	 9 ;     CG2R61     CG2R61      CG311      CG311
   68    69    89    90	 9 ;     CG2R61     CG2R61      CG311      CG321
   68    69    89   138	 9 ;     CG2R61     CG2R61      CG311       HGA1
   70    69    89    88	 9 ;     CG2R61     CG2R61      CG311      CG311
   70    69    89    90	 9 ;     CG2R61     CG2R61      CG311      CG321
   70    69    89   138	 9 ;     CG2R61     CG2R61      CG311       HGA1
   69    70    71    66	 9 ;     CG2R61     CG2R61     CG2R61     CG2R61
   69    70    71   109	 9 ;     CG2R61     CG2R61     CG2R61      HGR61
   72    70    71    66	 9 ;      CG321     CG2R61     CG2R61     CG2R61
   72    70    71   109	 9 ;      CG321     CG2R61     CG2R61      HGR61
   69    70    72    73	 9 ;     CG2R61     CG2R61      CG321      CG311
   69    70    72   110	 9 ;     CG2R61     CG2R61      CG321       HGA2
   69    70    72   111	 9 ;     CG2R61     CG2R61      CG321       HGA2
   71    70    72    73	 9 ;     CG2R61     CG2R61      CG321      CG311
   71    70    72   110	 9 ;     CG2R61     CG2R61      CG321       HGA2
   71    70    72   111	 9 ;     CG2R61     CG2R61      CG321       HGA2
   70    72    73    74	 9 ;     CG2R61      CG321      CG311      CG321
   70    72    73    88	 9 ;     CG2R61      CG321      CG311      CG311
   70    72    73   112	 9 ;     CG2R61      CG321      CG311       HGA1
  110    72    73    74	 9 ;       HGA2      CG321      CG311      CG321
  110    72    73    88	 9 ;       HGA2      CG321      CG311      CG311
  110    72    73   112	 9 ;       HGA2      CG321      CG311       HGA1
  111    72    73    74	 9 ;       HGA2      CG321      CG311      CG321
  111    72    73    88	 9 ;       HGA2      CG321      CG311      CG311
  111    72    73   112	 9 ;       HGA2      CG321      CG311       HGA1
   72    73    74    75	 9 ;      CG321      CG311      CG321      CG321
   72    73    74   113	 9 ;      CG321      CG311      CG321       HGA2
   72    73    74   114	 9 ;      CG321      CG311      CG321       HGA2
   88    73    74    75	 9 ;      CG311      CG311      CG321      CG321
   88    73    74   113	 9 ;      CG311      CG311      CG321       HGA2
   88    73    74   114	 9 ;      CG311      CG311      CG321       HGA2
  112    73    74    75	 9 ;       HGA1      CG311      CG321      CG321
  112    73    74   113	 9 ;       HGA1      CG311      CG321       HGA2
  112    73    74   114	 9 ;       HGA1      CG311      CG321       HGA2
   72    73    88    89	 9 ;      CG321      CG311      CG311      CG311
   72    73    88    97	 9 ;      CG321      CG311      CG311     CG3RC1
   72    73    88   137	 9 ;      CG321      CG311      CG311       HGA1
   74    73    88    89	 9 ;      CG321      CG311      CG311      CG311
   74    73    88    97	 9 ;      CG321      CG311      CG311     CG3RC1
   74    73    88   137	 9 ;      CG321      CG311      CG311       HGA1
  112    73    88    89	 9 ;       HGA1      CG311      CG311      CG311
  112    73    88    97	 9 ;       HGA1      CG311      CG311     CG3RC1
  112    73    88   137	 9 ;       HGA1      CG311      CG311       HGA1
   73    74    75    76	 9 ;      CG311      CG321      CG321      CG321
   73    74    75   115	 9 ;      CG311      CG321      CG321       HGA2
   73    74    75   116	 9 ;      CG311      CG321      CG321       HGA2
  113    74    75    76	 9 ;       HGA2      CG321      CG321      CG321
  113    74    75   115	 9 ;       HGA2      CG321      CG321       HGA2
  113    74    75   116	 9 ;       HGA2      CG321      CG321       HGA2
  114    74    75    76	 9 ;       HGA2      CG321      CG321      CG321
  114    74    75   115	 9 ;       HGA2      CG321      CG321       HGA2
  114    74    75   116	 9 ;       HGA2      CG321      CG321       HGA2
   74    75    76    77	 9 ;      CG321      CG321      CG321      CG321
   74    75    76   117	 9 ;      CG321      CG321      CG321       HGA2
   74    75    76   118	 9 ;      CG321      CG321      CG321       HGA2
  115    75    76    77	 9 ;       HGA2      CG321      CG321      CG321
  115    75    76   117	 9 ;       HGA2      CG321      CG321       HGA2
  115    75    76   118	 9 ;       HGA2      CG321      CG321       HGA2
  116    75    76    77	 9 ;       HGA2      CG321      CG321      CG321
  116    75    76   117	 9 ;       HGA2      CG321      CG321       HGA2
  116    75    76   118	 9 ;       HGA2      CG321      CG321       HGA2
   75    76    77    78	 9 ;      CG321      CG321      CG321      CG321
   75    76    77   119	 9 ;      CG321      CG321      CG321       HGA2
   75    76    77   120	 9 ;      CG321      CG321      CG321       HGA2
  117    76    77    78	 9 ;       HGA2      CG321      CG321      CG321
  117    76    77   119	 9 ;       HGA2      CG321      CG321       HGA2
  117    76    77   120	 9 ;       HGA2      CG321      CG321       HGA2
  118    76    77    78	 9 ;       HGA2      CG321      CG321      CG321
  118    76    77   119	 9 ;       HGA2      CG321      CG321       HGA2
  118    76    77   120	 9 ;       HGA2      CG321      CG321       HGA2
   76    77    78    79	 9 ;      CG321      CG321      CG321      CG321
   76    77    78   121	 9 ;      CG321      CG321      CG321       HGA2
   76    77    78   122	 9 ;      CG321      CG321      CG321       HGA2
  119    77    78    79	 9 ;       HGA2      CG321      CG321      CG321
  119    77    78   121	 9 ;       HGA2      CG321      CG321       HGA2
  119    77    78   122	 9 ;       HGA2      CG321      CG321       HGA2
  120    77    78    79	 9 ;       HGA2      CG321      CG321      CG321
  120    77    78   121	 9 ;       HGA2      CG321      CG321       HGA2
  120    77    78   122	 9 ;       HGA2      CG321      CG321       HGA2
   77    78    79    80	 9 ;      CG321      CG321      CG321      CG321
   77    78    79   123	 9 ;      CG321      CG321      CG321       HGA2
   77    78    79   124	 9 ;      CG321      CG321      CG321       HGA2
  121    78    79    80	 9 ;       HGA2      CG321      CG321      CG321
  121    78    79   123	 9 ;       HGA2      CG321      CG321       HGA2
  121    78    79   124	 9 ;       HGA2      CG321      CG321       HGA2
  122    78    79    80	 9 ;       HGA2      CG321      CG321      CG321
  122    78    79   123	 9 ;       HGA2      CG321      CG321       HGA2
  122    78    79   124	 9 ;       HGA2      CG321      CG321       HGA2
   78    79    80    81	 9 ;      CG321      CG321      CG321      CG321
   78    79    80   125	 9 ;      CG321      CG321      CG321       HGA2
   78    79    80   126	 9 ;      CG321      CG321      CG321       HGA2
  123    79    80    81	 9 ;       HGA2      CG321      CG321      CG321
  123    79    80   125	 9 ;       HGA2      CG321      CG321       HGA2
  123    79    80   126	 9 ;       HGA2      CG321      CG321       HGA2
  124    79    80    81	 9 ;       HGA2      CG321      CG321      CG321
  124    79    80   125	 9 ;       HGA2      CG321      CG321       HGA2
  124    79    80   126	 9 ;       HGA2      CG321      CG321       HGA2
   79    80    81    82	 9 ;      CG321      CG321      CG321      CG321
   79    80    81   127	 9 ;      CG321      CG321      CG321       HGA2
   79    80    81   128	 9 ;      CG321      CG321      CG321       HGA2
  125    80    81    82	 9 ;       HGA2      CG321      CG321      CG321
  125    80    81   127	 9 ;       HGA2      CG321      CG321       HGA2
  125    80    81   128	 9 ;       HGA2      CG321      CG321       HGA2
  126    80    81    82	 9 ;       HGA2      CG321      CG321      CG321
  126    80    81   127	 9 ;       HGA2      CG321      CG321       HGA2
  126    80    81   128	 9 ;       HGA2      CG321      CG321       HGA2
   80    81    82   106	 9 ;      CG321      CG321      CG321      SG3O3
   80    81    82   129	 9 ;      CG321      CG321      CG321       HGA2
   80    81    82   130	 9 ;      CG321      CG321      CG321       HGA2
  127    81    82   106	 9 ;       HGA2      CG321      CG321      SG3O3
  127    81    82   129	 9 ;       HGA2      CG321      CG321       HGA2
  127    81    82   130	 9 ;       HGA2      CG321      CG321       HGA2
  128    81    82   106	 9 ;       HGA2      CG321      CG321      SG3O3
  128    81    82   129	 9 ;       HGA2      CG321      CG321       HGA2
  128    81    82   130	 9 ;       HGA2      CG321      CG321       HGA2
   81    82   106    83	 9 ;      CG321      CG321      SG3O3      CG321
   81    82   106    99	 9 ;      CG321      CG321      SG3O3      OG2P1
  129    82   106    83	 9 ;       HGA2      CG321      SG3O3      CG321
  129    82   106    99	 9 ;       HGA2      CG321      SG3O3      OG2P1
  130    82   106    83	 9 ;       HGA2      CG321      SG3O3      CG321
  130    82   106    99	 9 ;       HGA2      CG321      SG3O3      OG2P1
  131    83    84    85	 9 ;       HGA2      CG321      CG321      CG321
  131    83    84   133	 9 ;       HGA2      CG321      CG321       HGA2
  131    83    84   134	 9 ;       HGA2      CG321      CG321       HGA2
  132    83    84    85	 9 ;       HGA2      CG321      CG321      CG321
  132    83    84   133	 9 ;       HGA2      CG321      CG321       HGA2
  132    83    84   134	 9 ;       HGA2      CG321      CG321       HGA2
  106    83    84    85	 9 ;      SG3O3      CG321      CG321      CG321
  106    83    84   133	 9 ;      SG3O3      CG321      CG321       HGA2
  106    83    84   134	 9 ;      SG3O3      CG321      CG321       HGA2
   84    83   106    82	 9 ;      CG321      CG321      SG3O3      CG321
   84    83   106    99	 9 ;      CG321      CG321      SG3O3      OG2P1
  131    83   106    82	 9 ;       HGA2      CG321      SG3O3      CG321
  131    83   106    99	 9 ;       HGA2      CG321      SG3O3      OG2P1
  132    83   106    82	 9 ;       HGA2      CG321      SG3O3      CG321
  132    83   106    99	 9 ;       HGA2      CG321      SG3O3      OG2P1
   83    84    85    86	 9 ;      CG321      CG321      CG321      CG312
   83    84    85   135	 9 ;      CG321      CG321      CG321       HGA2
   83    84    85   136	 9 ;      CG321      CG321      CG321       HGA2
  133    84    85    86	 9 ;       HGA2      CG321      CG321      CG312
  133    84    85   135	 9 ;       HGA2      CG321      CG321       HGA2
  133    84    85   136	 9 ;       HGA2      CG321      CG321       HGA2
  134    84    85    86	 9 ;       HGA2      CG321      CG321      CG312
  134    84    85   135	 9 ;       HGA2      CG321      CG321       HGA2
  134    84    85   136	 9 ;       HGA2      CG321      CG321       HGA2
   84    85    86    87	 9 ;      CG321      CG321      CG312      CG302
   84    85    86   101	 9 ;      CG321      CG321      CG312       FGA2
   84    85    86   102	 9 ;      CG321      CG321      CG312       FGA2
  135    85    86    87	 9 ;       HGA2      CG321      CG312      CG302
  135    85    86   101	 9 ;       HGA2      CG321      CG312       FGA2
  135    85    86   102	 9 ;       HGA2      CG321      CG312       FGA2
  136    85    86    87	 9 ;       HGA2      CG321      CG312      CG302
  136    85    86   101	 9 ;       HGA2      CG321      CG312       FGA2
  136    85    86   102	 9 ;       HGA2      CG321      CG312       FGA2
   85    86    87   103	 9 ;      CG321      CG312      CG302       FGA3
   85    86    87   104	 9 ;      CG321      CG312      CG302       FGA3
   85    86    87   105	 9 ;      CG321      CG312      CG302       FGA3
  101    86    87   103	 9 ;       FGA2      CG312      CG302       FGA3
  101    86    87   104	 9 ;       FGA2      CG312      CG302       FGA3
  101    86    87   105	 9 ;       FGA2      CG312      CG302       FGA3
  102    86    87   103	 9 ;       FGA2      CG312      CG302       FGA3
  102    86    87   104	 9 ;       FGA2      CG312      CG302       FGA3
  102    86    87   105	 9 ;       FGA2      CG312      CG302       FGA3
   73    88    89    69	 9 ;      CG311      CG311      CG311     CG2R61
   73    88    89    90	 9 ;      CG311      CG311      CG311      CG321
   73    88    89   138	 9 ;      CG311      CG311      CG311       HGA1
   97    88    89    69	 9 ;     CG3RC1      CG311      CG311     CG2R61
   97    88    89    90	 9 ;     CG3RC1      CG311      CG311      CG321
   97    88    89   138	 9 ;     CG3RC1      CG311      CG311       HGA1
  137    88    89    69	 9 ;       HGA1      CG311      CG311     CG2R61
  137    88    89    90	 9 ;       HGA1      CG311      CG311      CG321
  137    88    89   138	 9 ;       HGA1      CG311      CG311       HGA1
   73    88    97    92	 9 ;      CG311      CG311     CG3RC1     CG3RC1
   73    88    97    96	 9 ;      CG311      CG311     CG3RC1     CG3C52
   73    88    97   152	 9 ;      CG311      CG311     CG3RC1       HGA1
   89    88    97    92	 9 ;      CG311      CG311     CG3RC1     CG3RC1
   89    88    97    96	 9 ;      CG311      CG311     CG3RC1     CG3C52
   89    88    97   152	 9 ;      CG311      CG311     CG3RC1       HGA1
  137    88    97    92	 9 ;       HGA1      CG311     CG3RC1     CG3RC1
  137    88    97    96	 9 ;       HGA1      CG311     CG3RC1     CG3C52
  137    88    97   152	 9 ;       HGA1      CG311     CG3RC1       HGA1
   69    89    90    91	 9 ;     CG2R61      CG311      CG321      CG321
   69    89    90   139	 9 ;     CG2R61      CG311      CG321       HGA2
   69    89    90   140	 9 ;     CG2R61      CG311      CG321       HGA2
   88    89    90    91	 9 ;      CG311      CG311      CG321      CG321
   88    89    90   139	 9 ;      CG311      CG311      CG321       HGA2
   88    89    90   140	 9 ;      CG311      CG311      CG321       HGA2
  138    89    90    91	 9 ;       HGA1      CG311      CG321      CG321
  138    89    90   139	 9 ;       HGA1      CG311      CG321       HGA2
  138    89    90   140	 9 ;       HGA1      CG311      CG321       HGA2
   89    90    91    92	 9 ;      CG311      CG321      CG321     CG3RC1
   89    90    91   141	 9 ;      CG311      CG321      CG321       HGA2
   89    90    91   142	 9 ;      CG311      CG321      CG321       HGA2
  139    90    91    92	 9 ;       HGA2      CG321      CG321     CG3RC1
  139    90    91   141	 9 ;       HGA2      CG321      CG321       HGA2
  139    90    91   142	 9 ;       HGA2      CG321      CG321       HGA2
  140    90    91    92	 9 ;       HGA2      CG321      CG321     CG3RC1
  140    90    91   141	 9 ;       HGA2      CG321      CG321       HGA2
  140    90    91   142	 9 ;       HGA2      CG321      CG321       HGA2
   90    91    92    93	 9 ;      CG321      CG321     CG3RC1      CG331
   90    91    92    94	 9 ;      CG321      CG321     CG3RC1     CG3C51
   90    91    92    97	 9 ;      CG321      CG321     CG3RC1     CG3RC1
  141    91    92    93	 9 ;       HGA2      CG321     CG3RC1      CG331
  141    91    92    94	 9 ;       HGA2      CG321     CG3RC1     CG3C51
  141    91    92    97	 9 ;       HGA2      CG321     CG3RC1     CG3RC1
  142    91    92    93	 9 ;       HGA2      CG321     CG3RC1      CG331
  142    91    92    94	 9 ;       HGA2      CG321     CG3RC1     CG3C51
  142    91    92    97	 9 ;       HGA2      CG321     CG3RC1     CG3RC1
   91    92    93   143	 9 ;      CG321     CG3RC1      CG331       HGA3
   91    92    93   144	 9 ;      CG321     CG3RC1      CG331       HGA3
   91    92    93   145	 9 ;      CG321     CG3RC1      CG331       HGA3
   94    92    93   143	 9 ;     CG3C51     CG3RC1      CG331       HGA3
   94    92    93   144	 9 ;     CG3C51     CG3RC1      CG331       HGA3
   94    92    93   145	 9 ;     CG3C51     CG3RC1      CG331       HGA3
   97    92    93   143	 9 ;     CG3RC1     CG3RC1      CG331       HGA3
   97    92    93   144	 9 ;     CG3RC1     CG3RC1      CG331       HGA3
   97    92    93   145	 9 ;     CG3RC1     CG3RC1      CG331       HGA3
   91    92    94    95	 9 ;      CG321     CG3RC1     CG3C51     CG3C52
   91    92    94   100	 9 ;      CG321     CG3RC1     CG3C51      OG311
   91    92    94   146	 9 ;      CG321     CG3RC1     CG3C51       HGA1
   93    92    94    95	 9 ;      CG331     CG3RC1     CG3C51     CG3C52
   93    92    94   100	 9 ;      CG331     CG3RC1     CG3C51      OG311
   93    92    94   146	 9 ;      CG331     CG3RC1     CG3C51       HGA1
   97    92    94    95	 9 ;     CG3RC1     CG3RC1     CG3C51     CG3C52
   97    92    94   100	 9 ;     CG3RC1     CG3RC1     CG3C51      OG311
   97    92    94   146	 9 ;     CG3RC1     CG3RC1     CG3C51       HGA1
   91    92    97    88	 9 ;      CG321     CG3RC1     CG3RC1      CG311
   91    92    97    96	 9 ;      CG321     CG3RC1     CG3RC1     CG3C52
   91    92    97   152	 9 ;      CG321     CG3RC1     CG3RC1       HGA1
   93    92    97    88	 9 ;      CG331     CG3RC1     CG3RC1      CG311
   93    92    97    96	 9 ;      CG331     CG3RC1     CG3RC1     CG3C52
   93    92    97   152	 9 ;      CG331     CG3RC1     CG3RC1       HGA1
   94    92    97    88	 9 ;     CG3C51     CG3RC1     CG3RC1      CG311
   94    92    97    96	 9 ;     CG3C51     CG3RC1     CG3RC1     CG3C52
   94    92    97   152	 9 ;     CG3C51     CG3RC1     CG3RC1       HGA1
   92    94    95    96	 9 ;     CG3RC1     CG3C51     CG3C52     CG3C52
   92    94    95   148	 9 ;     CG3RC1     CG3C51     CG3C52       HGA2
   92    94    95   149	 9 ;     CG3RC1     CG3C51     CG3C52       HGA2
  100    94    95    96	 9 ;      OG311     CG3C51     CG3C52     CG3C52
  100    94    95   148	 9 ;      OG311     CG3C51     CG3C52       HGA2
  100    94    95   149	 9 ;      OG311     CG3C51     CG3C52       HGA2
  146    94    95    96	 9 ;       HGA1     CG3C51     CG3C52     CG3C52
  146    94    95   148	 9 ;       HGA1     CG3C51     CG3C52       HGA2
  146    94    95   149	 9 ;       HGA1     CG3C51     CG3C52       HGA2
   92    94   100   147	 9 ;     CG3RC1     CG3C51      OG311       HGP1
   95    94   100   147	 9 ;     CG3C52     CG3C51      OG311       HGP1
  146    94   100   147	 9 ;       HGA1     CG3C51      OG311       HGP1
   94    95    96    97	 9 ;     CG3C51     CG3C52     CG3C52     CG3RC1
   94    95    96   150	 9 ;     CG3C51     CG3C52     CG3C52       HGA2
   94    95    96   151	 9 ;     CG3C51     CG3C52     CG3C52       HGA2
  148    95    96    97	 9 ;       HGA2     CG3C52     CG3C52     CG3RC1
  148    95    96   150	 9 ;       HGA2     CG3C52     CG3C52       HGA2
  148    95    96   151	 9 ;       HGA2     CG3C52     CG3C52       HGA2
  149    95    96    97	 9 ;       HGA2     CG3C52     CG3C52     CG3RC1
  149    95    96   150	 9 ;       HGA2     CG3C52     CG3C52       HGA2
  149    95    96   151	 9 ;       HGA2     CG3C52     CG3C52       HGA2
   95    96    97    88	 9 ;     CG3C52     CG3C52     CG3RC1      CG311
   95    96    97    92	 9 ;     CG3C52     CG3C52     CG3RC1     CG3RC1
   95    96    97   152	 9 ;     CG3C52     CG3C52     CG3RC1       HGA1
  150    96    97    88	 9 ;       HGA2     CG3C52     CG3RC1      CG311
  150    96    97    92	 9 ;       HGA2     CG3C52     CG3RC1     CG3RC1
  150    96    97   152	 9 ;       HGA2     CG3C52     CG3RC1       HGA1
  151    96    97    88	 9 ;       HGA2     CG3C52     CG3RC1      CG311
  151    96    97    92	 9 ;       HGA2     CG3C52     CG3RC1     CG3RC1
  151    96    97   152	 9 ;       HGA2     CG3C52     CG3RC1       HGA1

