; Created by cgenff_charmm2gmx.py

[ moleculetype ]
; Name			   nrexcl
PTX				 3

[ atoms ]
;	 nr		  type	resnr residue  atom   cgnr	   charge		mass  typeB    chargeB		massB
; residue	 1 PTX rtp PTX q	qsum
     1      CG331      1    PTL     C1      1     -0.273     12.011   ;
     2      CG321      1    PTL     C2      2     -0.177     12.011   ;
     3      CG321      1    PTL     C3      3     -0.181     12.011   ;
     4      CG321      1    PTL     C4      4     -0.179     12.011   ;
     5      CG321      1    PTL     C5      5     -0.180     12.011   ;
     6      CG321      1    PTL     C6      6     -0.180     12.011   ;
     7      CG321      1    PTL     C7      7     -0.180     12.011   ;
     8      CG321      1    PTL     C8      8     -0.180     12.011   ;
     9      CG321      1    PTL     C9      9     -0.180     12.011   ;
    10      CG321      1    PTL    C10     10     -0.180     12.011   ;
    11      CG321      1    PTL    C11     11     -0.180     12.011   ;
    12      CG321      1    PTL    C12     12     -0.180     12.011   ;
    13      CG321      1    PTL    C13     13     -0.180     12.011   ;
    14      CG321      1    PTL    C14     14     -0.180     12.011   ;
    15      CG321      1    PTL    C15     15     -0.180     12.011   ;
    16      CG321      1    PTL    C16     16     -0.180     12.011   ;
    17      CG321      1    PTL    C17     17     -0.180     12.011   ;
    18      CG321      1    PTL    C18     18      0.036     12.011   ;
    19      CG301      1    PTL    C19     19      0.391     12.011   ;
    20      CG331      1    PTL    C20     20     -0.269     12.011   ;
    21      CG331      1    PTL    C21     21     -0.269     12.011   ;
    22      OG301      1    PTL     O1     22     -0.402     15.999   ;
    23       HGA3      1    PTL     H1     23      0.090      1.008   ;
    24       HGA3      1    PTL     H2     24      0.090      1.008   ;
    25       HGA3      1    PTL     H3     25      0.090      1.008   ;
    26       HGA2      1    PTL     H4     26      0.090      1.008   ;
    27       HGA2      1    PTL     H5     27      0.090      1.008   ;
    28       HGA2      1    PTL     H6     28      0.090      1.008   ;
    29       HGA2      1    PTL     H7     29      0.090      1.008   ;
    30       HGA2      1    PTL     H8     30      0.090      1.008   ;
    31       HGA2      1    PTL     H9     31      0.090      1.008   ;
    32       HGA2      1    PTL    H10     32      0.090      1.008   ;
    33       HGA2      1    PTL    H11     33      0.090      1.008   ;
    34       HGA2      1    PTL    H12     34      0.090      1.008   ;
    35       HGA2      1    PTL    H13     35      0.090      1.008   ;
    36       HGA2      1    PTL    H14     36      0.090      1.008   ;
    37       HGA2      1    PTL    H15     37      0.090      1.008   ;
    38       HGA2      1    PTL    H16     38      0.090      1.008   ;
    39       HGA2      1    PTL    H17     39      0.090      1.008   ;
    40       HGA2      1    PTL    H18     40      0.090      1.008   ;
    41       HGA2      1    PTL    H19     41      0.090      1.008   ;
    42       HGA2      1    PTL    H20     42      0.090      1.008   ;
    43       HGA2      1    PTL    H21     43      0.090      1.008   ;
    44       HGA2      1    PTL    H22     44      0.090      1.008   ;
    45       HGA2      1    PTL    H23     45      0.090      1.008   ;
    46       HGA2      1    PTL    H24     46      0.090      1.008   ;
    47       HGA2      1    PTL    H25     47      0.090      1.008   ;
    48       HGA2      1    PTL    H26     48      0.090      1.008   ;
    49       HGA2      1    PTL    H27     49      0.090      1.008   ;
    50       HGA2      1    PTL    H28     50      0.090      1.008   ;
    51       HGA2      1    PTL    H29     51      0.090      1.008   ;
    52       HGA2      1    PTL    H30     52      0.090      1.008   ;
    53       HGA2      1    PTL    H31     53      0.090      1.008   ;
    54       HGA2      1    PTL    H32     54      0.090      1.008   ;
    55       HGA2      1    PTL    H33     55      0.090      1.008   ;
    56       HGA2      1    PTL    H34     56      0.090      1.008   ;
    57       HGA2      1    PTL    H35     57      0.090      1.008   ;
    58       HGA2      1    PTL    H36     58      0.090      1.008   ;
    59       HGA2      1    PTL    H37     59      0.090      1.008   ;
    60       HGA3      1    PTL    H38     60      0.090      1.008   ;
    61       HGA3      1    PTL    H39     61      0.090      1.008   ;
    62       HGA3      1    PTL    H40     62      0.090      1.008   ;
    63       HGA3      1    PTL    H41     63      0.090      1.008   ;
    64       HGA3      1    PTL    H42     64      0.090      1.008   ;
    65       HGA3      1    PTL    H43     65      0.090      1.008   ;
    66      NG2S1      1    PTX      N     66     -0.404     14.007   ;
    67      CG311      1    PTX    C22     67      0.183     12.011   ;
    68      CG2O2      1    PTX    C23     68      0.850     12.011   ;
    69      CG311      1    PTX    C24     69      0.272     12.011   ;
    70      CG321      1    PTX    C25     70     -0.212     12.011   ;
    71      CG301      1    PTX    C26     71      0.186     12.011   ;
    72      CG311      1    PTX    C27     72      0.133     12.011   ;
    73      CG2O2      1    PTX    C28     73      0.459     12.011   ;
    74     CG2R61      1    PTX    C29     74      0.086     12.011   ;
    75     CG2R61      1    PTX    C30     75     -0.110     12.011   ;
    76     CG2R61      1    PTX    C31     76     -0.114     12.011   ;
    77     CG2R61      1    PTX    C32     77     -0.115     12.011   ;
    78     CG2R61      1    PTX    C33     78     -0.114     12.011   ;
    79     CG2R61      1    PTX    C34     79     -0.110     12.011   ;
    80      CG311      1    PTX    C35     80     -0.074     12.011   ;
    81      CG301      1    PTX    C36     81      0.081     12.011   ;
    82      CG331      1    PTX    C37     82     -0.263     12.011   ;
    83      CG2O5      1    PTX    C38     83      0.297     12.011   ;
    84      CG311      1    PTX    C39     84      0.432     12.011   ;
    85      CG2O2      1    PTX    C40     85      0.834     12.011   ;
    86      CG331      1    PTX    C41     86     -0.311     12.011   ;
    87      CG2D1      1    PTX    C42     87     -0.113     12.011   ;
    88      CG2D1      1    PTX    C43     88     -0.153     12.011   ;
    89      CG331      1    PTX    C44     89     -0.265     12.011   ;
    90      CG301      1    PTX    C45     90      0.016     12.011   ;
    91      CG331      1    PTX    C46     91     -0.269     12.011   ;
    92      CG331      1    PTX    C47     92     -0.269     12.011   ;
    93      CG311      1    PTX    C48     93      0.166     12.011   ;
    94      CG321      1    PTX    C49     94     -0.201     12.011   ;
    95     CG3RC1      1    PTX    C50     95      0.015     12.011   ;
    96     CG3C41      1    PTX    C51     96     -0.106     12.011   ;
    97     CG3RC1      1    PTX    C52     97      0.366     12.011   ;
    98      CG2O2      1    PTX    C53     98      0.885     12.011   ;
    99      CG331      1    PTX    C54     99     -0.313     12.011   ;
   100      CG311      1    PTX    C55    100      0.127     12.011   ;
   101      CG2O1      1    PTX    C56    101      0.341     12.011   ;
   102     CG2R61      1    PTX    C57    102     -0.137     12.011   ;
   103     CG2R61      1    PTX    C58    103     -0.024     12.011   ;
   104     CG2R61      1    PTX    C59    104     -0.109     12.011   ;
   105     CG2R61      1    PTX    C60    105     -0.115     12.011   ;
   106     CG2R61      1    PTX    C61    106     -0.109     12.011   ;
   107     CG2R61      1    PTX    C62    107     -0.024     12.011   ;
   108     CG2R61      1    PTX    C63    108     -0.040     12.011   ;
   109     CG2R61      1    PTX    C64    109     -0.106     12.011   ;
   110     CG2R61      1    PTX    C65    110     -0.115     12.011   ;
   111     CG2R61      1    PTX    C66    111     -0.115     12.011   ;
   112     CG2R61      1    PTX    C67    112     -0.115     12.011   ;
   113     CG2R61      1    PTX    C68    113     -0.106     12.011   ;
   114      OG301      1    PTX     O2    114     -0.506     15.999   ;
   115      OG2D1      1    PTX     O3    115     -0.623     15.999   ;
   116      OG302      1    PTX     O4    116     -0.432     15.999   ;
   117      OG311      1    PTX     O5    117     -0.460     15.999   ;
   118      OG302      1    PTX     O6    118     -0.310     15.999   ;
   119      OG2D1      1    PTX     O7    119     -0.496     15.999   ;
   120      OG2D3      1    PTX     O8    120     -0.515     15.999   ;
   121      OG302      1    PTX     O9    121     -0.427     15.999   ;
   122      OG2D1      1    PTX    O10    122     -0.625     15.999   ;
   123      OG311      1    PTX    O11    123     -0.642     15.999   ;
   124     OG3C51      1    PTX    O12    124     -0.343     15.999   ;
   125      OG302      1    PTX    O13    125     -0.422     15.999   ;
   126      OG2D1      1    PTX    O14    126     -0.617     15.999   ;
   127      OG2D1      1    PTX    O15    127     -0.458     15.999   ;
   128       HGA1      1    PTX    H44    128      0.090      1.008   ;
   129       HGA1      1    PTX    H45    129      0.090      1.008   ;
   130       HGA2      1    PTX    H46    130      0.090      1.008   ;
   131       HGA2      1    PTX    H47    131      0.090      1.008   ;
   132       HGP1      1    PTX    H48    132      0.292      1.008   ;
   133       HGA1      1    PTX    H49    133      0.090      1.008   ;
   134      HGR61      1    PTX    H50    134      0.115      1.008   ;
   135      HGR61      1    PTX    H51    135      0.115      1.008   ;
   136      HGR61      1    PTX    H52    136      0.115      1.008   ;
   137      HGR61      1    PTX    H53    137      0.115      1.008   ;
   138      HGR61      1    PTX    H54    138      0.115      1.008   ;
   139       HGA1      1    PTX    H55    139      0.090      1.008   ;
   140       HGA3      1    PTX    H56    140      0.090      1.008   ;
   141       HGA3      1    PTX    H57    141      0.090      1.008   ;
   142       HGA3      1    PTX    H58    142      0.090      1.008   ;
   143       HGA1      1    PTX    H59    143      0.090      1.008   ;
   144       HGA3      1    PTX    H60    144      0.090      1.008   ;
   145       HGA3      1    PTX    H61    145      0.090      1.008   ;
   146       HGA3      1    PTX    H62    146      0.090      1.008   ;
   147       HGA3      1    PTX    H63    147      0.090      1.008   ;
   148       HGA3      1    PTX    H64    148      0.090      1.008   ;
   149       HGA3      1    PTX    H65    149      0.090      1.008   ;
   150       HGA3      1    PTX    H66    150      0.090      1.008   ;
   151       HGA3      1    PTX    H67    151      0.090      1.008   ;
   152       HGA3      1    PTX    H68    152      0.090      1.008   ;
   153       HGA3      1    PTX    H69    153      0.090      1.008   ;
   154       HGA3      1    PTX    H70    154      0.090      1.008   ;
   155       HGA3      1    PTX    H71    155      0.090      1.008   ;
   156       HGA1      1    PTX    H72    156      0.090      1.008   ;
   157       HGP1      1    PTX    H73    157      0.400      1.008   ;
   158       HGA2      1    PTX    H74    158      0.090      1.008   ;
   159       HGA2      1    PTX    H75    159      0.090      1.008   ;
   160       HGA1      1    PTX    H76    160      0.090      1.008   ;
   161       HGA2      1    PTX    H77    161      0.090      1.008   ;
   162       HGA2      1    PTX    H78    162      0.090      1.008   ;
   163       HGA3      1    PTX    H79    163      0.090      1.008   ;
   164       HGA3      1    PTX    H80    164      0.090      1.008   ;
   165       HGA3      1    PTX    H81    165      0.090      1.008   ;
   166       HGA1      1    PTX    H82    166      0.090      1.008   ;
   167       HGP1      1    PTX    H83    167      0.274      1.008   ;
   168      HGR61      1    PTX    H84    168      0.115      1.008   ;
   169      HGR61      1    PTX    H85    169      0.115      1.008   ;
   170      HGR61      1    PTX    H86    170      0.115      1.008   ;
   171      HGR61      1    PTX    H87    171      0.115      1.008   ;
   172      HGR61      1    PTX    H88    172      0.115      1.008   ;
   173      HGR61      1    PTX    H89    173      0.115      1.008   ;
   174      HGR61      1    PTX    H90    174      0.115      1.008   ;
   175      HGR61      1    PTX    H91    175      0.115      1.008   ;
   176      HGR61      1    PTX    H92    176      0.115      1.008   ;
   177      HGR61      1    PTX    H93    177      0.115      1.008   ;

[ bonds ]
;	ai	  aj funct			  c0			c1			  c2			c3
    1     2	 1 ;       CG331      CG321
    1    23	 1 ;       CG331       HGA3
    1    24	 1 ;       CG331       HGA3
    1    25	 1 ;       CG331       HGA3
    2     3	 1 ;       CG321      CG321
    2    26	 1 ;       CG321       HGA2
    2    27	 1 ;       CG321       HGA2
    3     4	 1 ;       CG321      CG321
    3    28	 1 ;       CG321       HGA2
    3    29	 1 ;       CG321       HGA2
    4     5	 1 ;       CG321      CG321
    4    30	 1 ;       CG321       HGA2
    4    31	 1 ;       CG321       HGA2
    5     6	 1 ;       CG321      CG321
    5    32	 1 ;       CG321       HGA2
    5    33	 1 ;       CG321       HGA2
    6     7	 1 ;       CG321      CG321
    6    34	 1 ;       CG321       HGA2
    6    35	 1 ;       CG321       HGA2
    7     8	 1 ;       CG321      CG321
    7    36	 1 ;       CG321       HGA2
    7    37	 1 ;       CG321       HGA2
    8     9	 1 ;       CG321      CG321
    8    38	 1 ;       CG321       HGA2
    8    39	 1 ;       CG321       HGA2
    9    10	 1 ;       CG321      CG321
    9    40	 1 ;       CG321       HGA2
    9    41	 1 ;       CG321       HGA2
   10    11	 1 ;       CG321      CG321
   10    42	 1 ;       CG321       HGA2
   10    43	 1 ;       CG321       HGA2
   11    12	 1 ;       CG321      CG321
   11    44	 1 ;       CG321       HGA2
   11    45	 1 ;       CG321       HGA2
   12    13	 1 ;       CG321      CG321
   12    46	 1 ;       CG321       HGA2
   12    47	 1 ;       CG321       HGA2
   13    14	 1 ;       CG321      CG321
   13    48	 1 ;       CG321       HGA2
   13    49	 1 ;       CG321       HGA2
   14    15	 1 ;       CG321      CG321
   14    50	 1 ;       CG321       HGA2
   14    51	 1 ;       CG321       HGA2
   15    16	 1 ;       CG321      CG321
   15    52	 1 ;       CG321       HGA2
   15    53	 1 ;       CG321       HGA2
   16    17	 1 ;       CG321      CG321
   16    54	 1 ;       CG321       HGA2
   16    55	 1 ;       CG321       HGA2
   17    18	 1 ;       CG321      CG321
   17    56	 1 ;       CG321       HGA2
   17    57	 1 ;       CG321       HGA2
   18    22	 1 ;       CG321      OG301
   18    58	 1 ;       CG321       HGA2
   18    59	 1 ;       CG321       HGA2
   19    20	 1 ;       CG301      CG331
   19    21	 1 ;       CG301      CG331
   19   114	 1 ;       CG301      OG301
   19    22	 1 ;       CG301      OG301
   20    60	 1 ;       CG331       HGA3
   20    61	 1 ;       CG331       HGA3
   20    62	 1 ;       CG331       HGA3
   21    63	 1 ;       CG331       HGA3
   21    64	 1 ;       CG331       HGA3
   21    65	 1 ;       CG331       HGA3
   66   101	 1 ;       NG2S1      CG2O1
   66   167	 1 ;       NG2S1       HGP1
   66   100	 1 ;       NG2S1      CG311
   67    68	 1 ;       CG311      CG2O2
   67   100	 1 ;       CG311      CG311
   67   128	 1 ;       CG311       HGA1
   67   114	 1 ;       CG311      OG301
   68   115	 1 ;       CG2O2      OG2D1
   68   116	 1 ;       CG2O2      OG302
   69    70	 1 ;       CG311      CG321
   69    88	 1 ;       CG311      CG2D1
   69   129	 1 ;       CG311       HGA1
   69   116	 1 ;       CG311      OG302
   70    71	 1 ;       CG321      CG301
   70   130	 1 ;       CG321       HGA2
   70   131	 1 ;       CG321       HGA2
   71    72	 1 ;       CG301      CG311
   71    90	 1 ;       CG301      CG301
   71   117	 1 ;       CG301      OG311
   72    80	 1 ;       CG311      CG311
   72   118	 1 ;       CG311      OG302
   72   133	 1 ;       CG311       HGA1
   73    74	 1 ;       CG2O2     CG2R61
   73   119	 1 ;       CG2O2      OG2D1
   73   118	 1 ;       CG2O2      OG302
   74    75	 1 ;      CG2R61     CG2R61
   74    79	 1 ;      CG2R61     CG2R61
   75    76	 1 ;      CG2R61     CG2R61
   75   134	 1 ;      CG2R61      HGR61
   76    77	 1 ;      CG2R61     CG2R61
   76   135	 1 ;      CG2R61      HGR61
   77    78	 1 ;      CG2R61     CG2R61
   77   136	 1 ;      CG2R61      HGR61
   78    79	 1 ;      CG2R61     CG2R61
   78   137	 1 ;      CG2R61      HGR61
   79   138	 1 ;      CG2R61      HGR61
   80    81	 1 ;       CG311      CG301
   80    97	 1 ;       CG311     CG3RC1
   80   139	 1 ;       CG311       HGA1
   81    82	 1 ;       CG301      CG331
   81    83	 1 ;       CG301      CG2O5
   81    93	 1 ;       CG301      CG311
   82   140	 1 ;       CG331       HGA3
   82   141	 1 ;       CG331       HGA3
   82   142	 1 ;       CG331       HGA3
   83    84	 1 ;       CG2O5      CG311
   83   120	 1 ;       CG2O5      OG2D3
   84    87	 1 ;       CG311      CG2D1
   84   121	 1 ;       CG311      OG302
   84   143	 1 ;       CG311       HGA1
   85    86	 1 ;       CG2O2      CG331
   85   122	 1 ;       CG2O2      OG2D1
   85   121	 1 ;       CG2O2      OG302
   86   144	 1 ;       CG331       HGA3
   86   145	 1 ;       CG331       HGA3
   86   146	 1 ;       CG331       HGA3
   87    88	 1 ;       CG2D1      CG2D1
   87    90	 1 ;       CG2D1      CG301
   88    89	 1 ;       CG2D1      CG331
   89   147	 1 ;       CG331       HGA3
   89   148	 1 ;       CG331       HGA3
   89   149	 1 ;       CG331       HGA3
   90    91	 1 ;       CG301      CG331
   90    92	 1 ;       CG301      CG331
   91   150	 1 ;       CG331       HGA3
   91   151	 1 ;       CG331       HGA3
   91   152	 1 ;       CG331       HGA3
   92   153	 1 ;       CG331       HGA3
   92   154	 1 ;       CG331       HGA3
   92   155	 1 ;       CG331       HGA3
   93    94	 1 ;       CG311      CG321
   93   123	 1 ;       CG311      OG311
   93   156	 1 ;       CG311       HGA1
   94    95	 1 ;       CG321     CG3RC1
   94   158	 1 ;       CG321       HGA2
   94   159	 1 ;       CG321       HGA2
   95    97	 1 ;      CG3RC1     CG3RC1
   95   124	 1 ;      CG3RC1     OG3C51
   95   160	 1 ;      CG3RC1       HGA1
   96    97	 1 ;      CG3C41     CG3RC1
   96   161	 1 ;      CG3C41       HGA2
   96   162	 1 ;      CG3C41       HGA2
   96   124	 1 ;      CG3C41     OG3C51
   97   125	 1 ;      CG3RC1      OG302
   98    99	 1 ;       CG2O2      CG331
   98   126	 1 ;       CG2O2      OG2D1
   98   125	 1 ;       CG2O2      OG302
   99   163	 1 ;       CG331       HGA3
   99   164	 1 ;       CG331       HGA3
   99   165	 1 ;       CG331       HGA3
  100   108	 1 ;       CG311     CG2R61
  100   166	 1 ;       CG311       HGA1
  101   102	 1 ;       CG2O1     CG2R61
  101   127	 1 ;       CG2O1      OG2D1
  102   103	 1 ;      CG2R61     CG2R61
  102   107	 1 ;      CG2R61     CG2R61
  103   104	 1 ;      CG2R61     CG2R61
  103   168	 1 ;      CG2R61      HGR61
  104   105	 1 ;      CG2R61     CG2R61
  104   169	 1 ;      CG2R61      HGR61
  105   106	 1 ;      CG2R61     CG2R61
  105   170	 1 ;      CG2R61      HGR61
  106   107	 1 ;      CG2R61     CG2R61
  106   171	 1 ;      CG2R61      HGR61
  107   172	 1 ;      CG2R61      HGR61
  108   109	 1 ;      CG2R61     CG2R61
  108   113	 1 ;      CG2R61     CG2R61
  109   110	 1 ;      CG2R61     CG2R61
  109   173	 1 ;      CG2R61      HGR61
  110   111	 1 ;      CG2R61     CG2R61
  110   174	 1 ;      CG2R61      HGR61
  111   112	 1 ;      CG2R61     CG2R61
  111   175	 1 ;      CG2R61      HGR61
  112   113	 1 ;      CG2R61     CG2R61
  112   176	 1 ;      CG2R61      HGR61
  113   177	 1 ;      CG2R61      HGR61
  117   132	 1 ;       OG311       HGP1
  123   157	 1 ;       OG311       HGP1

[ pairs ]
;	ai	  aj funct			  c0			c1			  c2			c3
    1     4	 1
    1    28	 1
    1    29	 1
    2     5	 1
    2    30	 1
    2    31	 1
    3    23	 1
    3    24	 1
    3    25	 1
    3     6	 1
    3    32	 1
    3    33	 1
    4    26	 1
    4    27	 1
    4     7	 1
    4    34	 1
    4    35	 1
    5    28	 1
    5    29	 1
    5     8	 1
    5    36	 1
    5    37	 1
    6    30	 1
    6    31	 1
    6     9	 1
    6    38	 1
    6    39	 1
    7    32	 1
    7    33	 1
    7    10	 1
    7    40	 1
    7    41	 1
    8    34	 1
    8    35	 1
    8    11	 1
    8    42	 1
    8    43	 1
    9    36	 1
    9    37	 1
    9    12	 1
    9    44	 1
    9    45	 1
   10    38	 1
   10    39	 1
   10    13	 1
   10    46	 1
   10    47	 1
   11    40	 1
   11    41	 1
   11    14	 1
   11    48	 1
   11    49	 1
   12    42	 1
   12    43	 1
   12    15	 1
   12    50	 1
   12    51	 1
   13    44	 1
   13    45	 1
   13    16	 1
   13    52	 1
   13    53	 1
   14    46	 1
   14    47	 1
   14    17	 1
   14    54	 1
   14    55	 1
   15    48	 1
   15    49	 1
   15    18	 1
   15    56	 1
   15    57	 1
   16    50	 1
   16    51	 1
   16    22	 1
   16    58	 1
   16    59	 1
   17    52	 1
   17    53	 1
   17    19	 1
   18    54	 1
   18    55	 1
   18    20	 1
   18    21	 1
   18   114	 1
   19    58	 1
   19    59	 1
   19    68	 1
   19   100	 1
   19   128	 1
   20    63	 1
   20    64	 1
   20    65	 1
   20    67	 1
   21    60	 1
   21    61	 1
   21    62	 1
   21    67	 1
   22    56	 1
   22    57	 1
   22    60	 1
   22    61	 1
   22    62	 1
   22    63	 1
   22    64	 1
   22    65	 1
   22    67	 1
   23    26	 1
   23    27	 1
   24    26	 1
   24    27	 1
   25    26	 1
   25    27	 1
   26    28	 1
   26    29	 1
   27    28	 1
   27    29	 1
   28    30	 1
   28    31	 1
   29    30	 1
   29    31	 1
   30    32	 1
   30    33	 1
   31    32	 1
   31    33	 1
   32    34	 1
   32    35	 1
   33    34	 1
   33    35	 1
   34    36	 1
   34    37	 1
   35    36	 1
   35    37	 1
   36    38	 1
   36    39	 1
   37    38	 1
   37    39	 1
   38    40	 1
   38    41	 1
   39    40	 1
   39    41	 1
   40    42	 1
   40    43	 1
   41    42	 1
   41    43	 1
   42    44	 1
   42    45	 1
   43    44	 1
   43    45	 1
   44    46	 1
   44    47	 1
   45    46	 1
   45    47	 1
   46    48	 1
   46    49	 1
   47    48	 1
   47    49	 1
   48    50	 1
   48    51	 1
   49    50	 1
   49    51	 1
   50    52	 1
   50    53	 1
   51    52	 1
   51    53	 1
   52    54	 1
   52    55	 1
   53    54	 1
   53    55	 1
   54    56	 1
   54    57	 1
   55    56	 1
   55    57	 1
   56    58	 1
   56    59	 1
   57    58	 1
   57    59	 1
   60   114	 1
   61   114	 1
   62   114	 1
   63   114	 1
   64   114	 1
   65   114	 1
   66    68	 1
   66   128	 1
   66   114	 1
   66   109	 1
   66   113	 1
   66   103	 1
   66   107	 1
   67   101	 1
   67   167	 1
   67    69	 1
   67   109	 1
   67   113	 1
   68   108	 1
   68   166	 1
   68    70	 1
   68    88	 1
   68   129	 1
   69   115	 1
   69    72	 1
   69    90	 1
   69   117	 1
   69    84	 1
   69   147	 1
   69   148	 1
   69   149	 1
   70    87	 1
   70    89	 1
   70    80	 1
   70   118	 1
   70   133	 1
   70    91	 1
   70    92	 1
   70   132	 1
   71    88	 1
   71   129	 1
   71   116	 1
   71    81	 1
   71    97	 1
   71   139	 1
   71    73	 1
   71    84	 1
   71   150	 1
   71   151	 1
   71   152	 1
   71   153	 1
   71   154	 1
   71   155	 1
   72   130	 1
   72   131	 1
   72    87	 1
   72    91	 1
   72    92	 1
   72   132	 1
   72    74	 1
   72   119	 1
   72    82	 1
   72    83	 1
   72    93	 1
   72    95	 1
   72    96	 1
   72   125	 1
   73    80	 1
   73   133	 1
   73    76	 1
   73   134	 1
   73    78	 1
   73   138	 1
   74    77	 1
   74   135	 1
   74   137	 1
   75   119	 1
   75   118	 1
   75    78	 1
   75   138	 1
   75   136	 1
   76    79	 1
   76   137	 1
   77   134	 1
   77   138	 1
   78   135	 1
   79   119	 1
   79   118	 1
   79   134	 1
   79   136	 1
   80    90	 1
   80   117	 1
   80   140	 1
   80   141	 1
   80   142	 1
   80    84	 1
   80   120	 1
   80    94	 1
   80   123	 1
   80   156	 1
   80   124	 1
   80   160	 1
   80   161	 1
   80   162	 1
   80    98	 1
   81   118	 1
   81   133	 1
   81    95	 1
   81    96	 1
   81   125	 1
   81    87	 1
   81   121	 1
   81   143	 1
   81   158	 1
   81   159	 1
   81   157	 1
   82    97	 1
   82   139	 1
   82    84	 1
   82   120	 1
   82    94	 1
   82   123	 1
   82   156	 1
   83    97	 1
   83   139	 1
   83   140	 1
   83   141	 1
   83   142	 1
   83    94	 1
   83   123	 1
   83   156	 1
   83    88	 1
   83    90	 1
   83    85	 1
   84    93	 1
   84    86	 1
   84   122	 1
   84    89	 1
   84    91	 1
   84    92	 1
   85    87	 1
   85   143	 1
   87   129	 1
   87   116	 1
   87   117	 1
   87   120	 1
   87   147	 1
   87   148	 1
   87   149	 1
   87   150	 1
   87   151	 1
   87   152	 1
   87   153	 1
   87   154	 1
   87   155	 1
   88   130	 1
   88   131	 1
   88   121	 1
   88   143	 1
   88    91	 1
   88    92	 1
   89   129	 1
   89   116	 1
   89    90	 1
   90   130	 1
   90   131	 1
   90   118	 1
   90   133	 1
   90   132	 1
   90   121	 1
   90   143	 1
   91   117	 1
   91   153	 1
   91   154	 1
   91   155	 1
   92   117	 1
   92   150	 1
   92   151	 1
   92   152	 1
   93    97	 1
   93   139	 1
   93   140	 1
   93   141	 1
   93   142	 1
   93   120	 1
   93   124	 1
   93   160	 1
   94   157	 1
   94    96	 1
   94   125	 1
   95   139	 1
   95   123	 1
   95   156	 1
   95   161	 1
   95   162	 1
   95    98	 1
   96   139	 1
   96   160	 1
   96    98	 1
   97   118	 1
   97   133	 1
   97   158	 1
   97   159	 1
   97    99	 1
   97   126	 1
  100   102	 1
  100   127	 1
  100   115	 1
  100   116	 1
  100   110	 1
  100   173	 1
  100   112	 1
  100   177	 1
  101   108	 1
  101   166	 1
  101   104	 1
  101   168	 1
  101   106	 1
  101   172	 1
  102   167	 1
  102   105	 1
  102   169	 1
  102   171	 1
  103   127	 1
  103   106	 1
  103   172	 1
  103   170	 1
  104   107	 1
  104   171	 1
  105   168	 1
  105   172	 1
  106   169	 1
  107   127	 1
  107   168	 1
  107   170	 1
  108   167	 1
  108   128	 1
  108   114	 1
  108   111	 1
  108   174	 1
  108   176	 1
  109   166	 1
  109   112	 1
  109   177	 1
  109   175	 1
  110   113	 1
  110   176	 1
  111   173	 1
  111   177	 1
  112   174	 1
  113   166	 1
  113   173	 1
  113   175	 1
  114   115	 1
  114   116	 1
  114   166	 1
  115   128	 1
  116   128	 1
  116   130	 1
  116   131	 1
  117   130	 1
  117   131	 1
  117   118	 1
  117   133	 1
  118   139	 1
  120   121	 1
  120   143	 1
  121   144	 1
  121   145	 1
  121   146	 1
  122   144	 1
  122   145	 1
  122   146	 1
  123   158	 1
  123   159	 1
  124   158	 1
  124   159	 1
  124   125	 1
  125   139	 1
  125   160	 1
  125   161	 1
  125   162	 1
  125   163	 1
  125   164	 1
  125   165	 1
  126   163	 1
  126   164	 1
  126   165	 1
  127   167	 1
  128   166	 1
  129   130	 1
  129   131	 1
  133   139	 1
  134   135	 1
  135   136	 1
  136   137	 1
  137   138	 1
  156   158	 1
  156   159	 1
  156   157	 1
  158   160	 1
  159   160	 1
  166   167	 1
  168   169	 1
  169   170	 1
  170   171	 1
  171   172	 1
  173   174	 1
  174   175	 1
  175   176	 1
  176   177	 1

[ angles ]
;	ai	  aj	ak funct			c0			  c1			c2			  c3
    2     1    23	5 ;      CG321      CG331       HGA3
    2     1    24	5 ;      CG321      CG331       HGA3
    2     1    25	5 ;      CG321      CG331       HGA3
   23     1    24	5 ;       HGA3      CG331       HGA3
   23     1    25	5 ;       HGA3      CG331       HGA3
   24     1    25	5 ;       HGA3      CG331       HGA3
    1     2     3	5 ;      CG331      CG321      CG321
    1     2    26	5 ;      CG331      CG321       HGA2
    1     2    27	5 ;      CG331      CG321       HGA2
    3     2    26	5 ;      CG321      CG321       HGA2
    3     2    27	5 ;      CG321      CG321       HGA2
   26     2    27	5 ;       HGA2      CG321       HGA2
    2     3     4	5 ;      CG321      CG321      CG321
    2     3    28	5 ;      CG321      CG321       HGA2
    2     3    29	5 ;      CG321      CG321       HGA2
    4     3    28	5 ;      CG321      CG321       HGA2
    4     3    29	5 ;      CG321      CG321       HGA2
   28     3    29	5 ;       HGA2      CG321       HGA2
    3     4     5	5 ;      CG321      CG321      CG321
    3     4    30	5 ;      CG321      CG321       HGA2
    3     4    31	5 ;      CG321      CG321       HGA2
    5     4    30	5 ;      CG321      CG321       HGA2
    5     4    31	5 ;      CG321      CG321       HGA2
   30     4    31	5 ;       HGA2      CG321       HGA2
    4     5     6	5 ;      CG321      CG321      CG321
    4     5    32	5 ;      CG321      CG321       HGA2
    4     5    33	5 ;      CG321      CG321       HGA2
    6     5    32	5 ;      CG321      CG321       HGA2
    6     5    33	5 ;      CG321      CG321       HGA2
   32     5    33	5 ;       HGA2      CG321       HGA2
    5     6     7	5 ;      CG321      CG321      CG321
    5     6    34	5 ;      CG321      CG321       HGA2
    5     6    35	5 ;      CG321      CG321       HGA2
    7     6    34	5 ;      CG321      CG321       HGA2
    7     6    35	5 ;      CG321      CG321       HGA2
   34     6    35	5 ;       HGA2      CG321       HGA2
    6     7     8	5 ;      CG321      CG321      CG321
    6     7    36	5 ;      CG321      CG321       HGA2
    6     7    37	5 ;      CG321      CG321       HGA2
    8     7    36	5 ;      CG321      CG321       HGA2
    8     7    37	5 ;      CG321      CG321       HGA2
   36     7    37	5 ;       HGA2      CG321       HGA2
    7     8     9	5 ;      CG321      CG321      CG321
    7     8    38	5 ;      CG321      CG321       HGA2
    7     8    39	5 ;      CG321      CG321       HGA2
    9     8    38	5 ;      CG321      CG321       HGA2
    9     8    39	5 ;      CG321      CG321       HGA2
   38     8    39	5 ;       HGA2      CG321       HGA2
    8     9    10	5 ;      CG321      CG321      CG321
    8     9    40	5 ;      CG321      CG321       HGA2
    8     9    41	5 ;      CG321      CG321       HGA2
   10     9    40	5 ;      CG321      CG321       HGA2
   10     9    41	5 ;      CG321      CG321       HGA2
   40     9    41	5 ;       HGA2      CG321       HGA2
    9    10    11	5 ;      CG321      CG321      CG321
    9    10    42	5 ;      CG321      CG321       HGA2
    9    10    43	5 ;      CG321      CG321       HGA2
   11    10    42	5 ;      CG321      CG321       HGA2
   11    10    43	5 ;      CG321      CG321       HGA2
   42    10    43	5 ;       HGA2      CG321       HGA2
   10    11    12	5 ;      CG321      CG321      CG321
   10    11    44	5 ;      CG321      CG321       HGA2
   10    11    45	5 ;      CG321      CG321       HGA2
   12    11    44	5 ;      CG321      CG321       HGA2
   12    11    45	5 ;      CG321      CG321       HGA2
   44    11    45	5 ;       HGA2      CG321       HGA2
   11    12    13	5 ;      CG321      CG321      CG321
   11    12    46	5 ;      CG321      CG321       HGA2
   11    12    47	5 ;      CG321      CG321       HGA2
   13    12    46	5 ;      CG321      CG321       HGA2
   13    12    47	5 ;      CG321      CG321       HGA2
   46    12    47	5 ;       HGA2      CG321       HGA2
   12    13    14	5 ;      CG321      CG321      CG321
   12    13    48	5 ;      CG321      CG321       HGA2
   12    13    49	5 ;      CG321      CG321       HGA2
   14    13    48	5 ;      CG321      CG321       HGA2
   14    13    49	5 ;      CG321      CG321       HGA2
   48    13    49	5 ;       HGA2      CG321       HGA2
   13    14    15	5 ;      CG321      CG321      CG321
   13    14    50	5 ;      CG321      CG321       HGA2
   13    14    51	5 ;      CG321      CG321       HGA2
   15    14    50	5 ;      CG321      CG321       HGA2
   15    14    51	5 ;      CG321      CG321       HGA2
   50    14    51	5 ;       HGA2      CG321       HGA2
   14    15    16	5 ;      CG321      CG321      CG321
   14    15    52	5 ;      CG321      CG321       HGA2
   14    15    53	5 ;      CG321      CG321       HGA2
   16    15    52	5 ;      CG321      CG321       HGA2
   16    15    53	5 ;      CG321      CG321       HGA2
   52    15    53	5 ;       HGA2      CG321       HGA2
   15    16    17	5 ;      CG321      CG321      CG321
   15    16    54	5 ;      CG321      CG321       HGA2
   15    16    55	5 ;      CG321      CG321       HGA2
   17    16    54	5 ;      CG321      CG321       HGA2
   17    16    55	5 ;      CG321      CG321       HGA2
   54    16    55	5 ;       HGA2      CG321       HGA2
   16    17    18	5 ;      CG321      CG321      CG321
   16    17    56	5 ;      CG321      CG321       HGA2
   16    17    57	5 ;      CG321      CG321       HGA2
   18    17    56	5 ;      CG321      CG321       HGA2
   18    17    57	5 ;      CG321      CG321       HGA2
   56    17    57	5 ;       HGA2      CG321       HGA2
   17    18    22	5 ;      CG321      CG321      OG301
   17    18    58	5 ;      CG321      CG321       HGA2
   17    18    59	5 ;      CG321      CG321       HGA2
   22    18    58	5 ;      OG301      CG321       HGA2
   22    18    59	5 ;      OG301      CG321       HGA2
   58    18    59	5 ;       HGA2      CG321       HGA2
   20    19    21	5 ;      CG331      CG301      CG331
   20    19   114	5 ;      CG331      CG301      OG301
   20    19    22	5 ;      CG331      CG301      OG301
   21    19   114	5 ;      CG331      CG301      OG301
   21    19    22	5 ;      CG331      CG301      OG301
  114    19    22	5 ;      OG301      CG301      OG301
   19    20    60	5 ;      CG301      CG331       HGA3
   19    20    61	5 ;      CG301      CG331       HGA3
   19    20    62	5 ;      CG301      CG331       HGA3
   60    20    61	5 ;       HGA3      CG331       HGA3
   60    20    62	5 ;       HGA3      CG331       HGA3
   61    20    62	5 ;       HGA3      CG331       HGA3
   19    21    63	5 ;      CG301      CG331       HGA3
   19    21    64	5 ;      CG301      CG331       HGA3
   19    21    65	5 ;      CG301      CG331       HGA3
   63    21    64	5 ;       HGA3      CG331       HGA3
   63    21    65	5 ;       HGA3      CG331       HGA3
   64    21    65	5 ;       HGA3      CG331       HGA3
   18    22    19	5 ;      CG321      OG301      CG301
  101    66   167	5 ;      CG2O1      NG2S1       HGP1
  101    66   100	5 ;      CG2O1      NG2S1      CG311
  167    66   100	5 ;       HGP1      NG2S1      CG311
   68    67   100	5 ;      CG2O2      CG311      CG311
   68    67   128	5 ;      CG2O2      CG311       HGA1
   68    67   114	5 ;      CG2O2      CG311      OG301
  100    67   128	5 ;      CG311      CG311       HGA1
  100    67   114	5 ;      CG311      CG311      OG301
  128    67   114	5 ;       HGA1      CG311      OG301
   67    68   115	5 ;      CG311      CG2O2      OG2D1
   67    68   116	5 ;      CG311      CG2O2      OG302
  115    68   116	5 ;      OG2D1      CG2O2      OG302
   70    69    88	5 ;      CG321      CG311      CG2D1
   70    69   129	5 ;      CG321      CG311       HGA1
   70    69   116	5 ;      CG321      CG311      OG302
   88    69   129	5 ;      CG2D1      CG311       HGA1
   88    69   116	5 ;      CG2D1      CG311      OG302
  129    69   116	5 ;       HGA1      CG311      OG302
   69    70    71	5 ;      CG311      CG321      CG301
   69    70   130	5 ;      CG311      CG321       HGA2
   69    70   131	5 ;      CG311      CG321       HGA2
   71    70   130	5 ;      CG301      CG321       HGA2
   71    70   131	5 ;      CG301      CG321       HGA2
  130    70   131	5 ;       HGA2      CG321       HGA2
   70    71    72	5 ;      CG321      CG301      CG311
   70    71    90	5 ;      CG321      CG301      CG301
   70    71   117	5 ;      CG321      CG301      OG311
   72    71    90	5 ;      CG311      CG301      CG301
   72    71   117	5 ;      CG311      CG301      OG311
   90    71   117	5 ;      CG301      CG301      OG311
   71    72    80	5 ;      CG301      CG311      CG311
   71    72   118	5 ;      CG301      CG311      OG302
   71    72   133	5 ;      CG301      CG311       HGA1
   80    72   118	5 ;      CG311      CG311      OG302
   80    72   133	5 ;      CG311      CG311       HGA1
  118    72   133	5 ;      OG302      CG311       HGA1
   74    73   119	5 ;     CG2R61      CG2O2      OG2D1
   74    73   118	5 ;     CG2R61      CG2O2      OG302
  119    73   118	5 ;      OG2D1      CG2O2      OG302
   73    74    75	5 ;      CG2O2     CG2R61     CG2R61
   73    74    79	5 ;      CG2O2     CG2R61     CG2R61
   75    74    79	5 ;     CG2R61     CG2R61     CG2R61
   74    75    76	5 ;     CG2R61     CG2R61     CG2R61
   74    75   134	5 ;     CG2R61     CG2R61      HGR61
   76    75   134	5 ;     CG2R61     CG2R61      HGR61
   75    76    77	5 ;     CG2R61     CG2R61     CG2R61
   75    76   135	5 ;     CG2R61     CG2R61      HGR61
   77    76   135	5 ;     CG2R61     CG2R61      HGR61
   76    77    78	5 ;     CG2R61     CG2R61     CG2R61
   76    77   136	5 ;     CG2R61     CG2R61      HGR61
   78    77   136	5 ;     CG2R61     CG2R61      HGR61
   77    78    79	5 ;     CG2R61     CG2R61     CG2R61
   77    78   137	5 ;     CG2R61     CG2R61      HGR61
   79    78   137	5 ;     CG2R61     CG2R61      HGR61
   74    79    78	5 ;     CG2R61     CG2R61     CG2R61
   74    79   138	5 ;     CG2R61     CG2R61      HGR61
   78    79   138	5 ;     CG2R61     CG2R61      HGR61
   72    80    81	5 ;      CG311      CG311      CG301
   72    80    97	5 ;      CG311      CG311     CG3RC1
   72    80   139	5 ;      CG311      CG311       HGA1
   81    80    97	5 ;      CG301      CG311     CG3RC1
   81    80   139	5 ;      CG301      CG311       HGA1
   97    80   139	5 ;     CG3RC1      CG311       HGA1
   80    81    82	5 ;      CG311      CG301      CG331
   80    81    83	5 ;      CG311      CG301      CG2O5
   80    81    93	5 ;      CG311      CG301      CG311
   82    81    83	5 ;      CG331      CG301      CG2O5
   82    81    93	5 ;      CG331      CG301      CG311
   83    81    93	5 ;      CG2O5      CG301      CG311
   81    82   140	5 ;      CG301      CG331       HGA3
   81    82   141	5 ;      CG301      CG331       HGA3
   81    82   142	5 ;      CG301      CG331       HGA3
  140    82   141	5 ;       HGA3      CG331       HGA3
  140    82   142	5 ;       HGA3      CG331       HGA3
  141    82   142	5 ;       HGA3      CG331       HGA3
   81    83    84	5 ;      CG301      CG2O5      CG311
   81    83   120	5 ;      CG301      CG2O5      OG2D3
   84    83   120	5 ;      CG311      CG2O5      OG2D3
   83    84    87	5 ;      CG2O5      CG311      CG2D1
   83    84   121	5 ;      CG2O5      CG311      OG302
   83    84   143	5 ;      CG2O5      CG311       HGA1
   87    84   121	5 ;      CG2D1      CG311      OG302
   87    84   143	5 ;      CG2D1      CG311       HGA1
  121    84   143	5 ;      OG302      CG311       HGA1
   86    85   122	5 ;      CG331      CG2O2      OG2D1
   86    85   121	5 ;      CG331      CG2O2      OG302
  122    85   121	5 ;      OG2D1      CG2O2      OG302
   85    86   144	5 ;      CG2O2      CG331       HGA3
   85    86   145	5 ;      CG2O2      CG331       HGA3
   85    86   146	5 ;      CG2O2      CG331       HGA3
  144    86   145	5 ;       HGA3      CG331       HGA3
  144    86   146	5 ;       HGA3      CG331       HGA3
  145    86   146	5 ;       HGA3      CG331       HGA3
   84    87    88	5 ;      CG311      CG2D1      CG2D1
   84    87    90	5 ;      CG311      CG2D1      CG301
   88    87    90	5 ;      CG2D1      CG2D1      CG301
   69    88    87	5 ;      CG311      CG2D1      CG2D1
   69    88    89	5 ;      CG311      CG2D1      CG331
   87    88    89	5 ;      CG2D1      CG2D1      CG331
   88    89   147	5 ;      CG2D1      CG331       HGA3
   88    89   148	5 ;      CG2D1      CG331       HGA3
   88    89   149	5 ;      CG2D1      CG331       HGA3
  147    89   148	5 ;       HGA3      CG331       HGA3
  147    89   149	5 ;       HGA3      CG331       HGA3
  148    89   149	5 ;       HGA3      CG331       HGA3
   71    90    87	5 ;      CG301      CG301      CG2D1
   71    90    91	5 ;      CG301      CG301      CG331
   71    90    92	5 ;      CG301      CG301      CG331
   87    90    91	5 ;      CG2D1      CG301      CG331
   87    90    92	5 ;      CG2D1      CG301      CG331
   91    90    92	5 ;      CG331      CG301      CG331
   90    91   150	5 ;      CG301      CG331       HGA3
   90    91   151	5 ;      CG301      CG331       HGA3
   90    91   152	5 ;      CG301      CG331       HGA3
  150    91   151	5 ;       HGA3      CG331       HGA3
  150    91   152	5 ;       HGA3      CG331       HGA3
  151    91   152	5 ;       HGA3      CG331       HGA3
   90    92   153	5 ;      CG301      CG331       HGA3
   90    92   154	5 ;      CG301      CG331       HGA3
   90    92   155	5 ;      CG301      CG331       HGA3
  153    92   154	5 ;       HGA3      CG331       HGA3
  153    92   155	5 ;       HGA3      CG331       HGA3
  154    92   155	5 ;       HGA3      CG331       HGA3
   81    93    94	5 ;      CG301      CG311      CG321
   81    93   123	5 ;      CG301      CG311      OG311
   81    93   156	5 ;      CG301      CG311       HGA1
   94    93   123	5 ;      CG321      CG311      OG311
   94    93   156	5 ;      CG321      CG311       HGA1
  123    93   156	5 ;      OG311      CG311       HGA1
   93    94    95	5 ;      CG311      CG321     CG3RC1
   93    94   158	5 ;      CG311      CG321       HGA2
   93    94   159	5 ;      CG311      CG321       HGA2
   95    94   158	5 ;     CG3RC1      CG321       HGA2
   95    94   159	5 ;     CG3RC1      CG321       HGA2
  158    94   159	5 ;       HGA2      CG321       HGA2
   94    95    97	5 ;      CG321     CG3RC1     CG3RC1
   94    95   124	5 ;      CG321     CG3RC1     OG3C51
   94    95   160	5 ;      CG321     CG3RC1       HGA1
   97    95   124	5 ;     CG3RC1     CG3RC1     OG3C51
   97    95   160	5 ;     CG3RC1     CG3RC1       HGA1
  124    95   160	5 ;     OG3C51     CG3RC1       HGA1
   97    96   161	5 ;     CG3RC1     CG3C41       HGA2
   97    96   162	5 ;     CG3RC1     CG3C41       HGA2
   97    96   124	5 ;     CG3RC1     CG3C41     OG3C51
  161    96   162	5 ;       HGA2     CG3C41       HGA2
  161    96   124	5 ;       HGA2     CG3C41     OG3C51
  162    96   124	5 ;       HGA2     CG3C41     OG3C51
   80    97    95	5 ;      CG311     CG3RC1     CG3RC1
   80    97    96	5 ;      CG311     CG3RC1     CG3C41
   80    97   125	5 ;      CG311     CG3RC1      OG302
   95    97    96	5 ;     CG3RC1     CG3RC1     CG3C41
   95    97   125	5 ;     CG3RC1     CG3RC1      OG302
   96    97   125	5 ;     CG3C41     CG3RC1      OG302
   99    98   126	5 ;      CG331      CG2O2      OG2D1
   99    98   125	5 ;      CG331      CG2O2      OG302
  126    98   125	5 ;      OG2D1      CG2O2      OG302
   98    99   163	5 ;      CG2O2      CG331       HGA3
   98    99   164	5 ;      CG2O2      CG331       HGA3
   98    99   165	5 ;      CG2O2      CG331       HGA3
  163    99   164	5 ;       HGA3      CG331       HGA3
  163    99   165	5 ;       HGA3      CG331       HGA3
  164    99   165	5 ;       HGA3      CG331       HGA3
   67   100    66	5 ;      CG311      CG311      NG2S1
   67   100   108	5 ;      CG311      CG311     CG2R61
   67   100   166	5 ;      CG311      CG311       HGA1
   66   100   108	5 ;      NG2S1      CG311     CG2R61
   66   100   166	5 ;      NG2S1      CG311       HGA1
  108   100   166	5 ;     CG2R61      CG311       HGA1
   66   101   102	5 ;      NG2S1      CG2O1     CG2R61
   66   101   127	5 ;      NG2S1      CG2O1      OG2D1
  102   101   127	5 ;     CG2R61      CG2O1      OG2D1
  101   102   103	5 ;      CG2O1     CG2R61     CG2R61
  101   102   107	5 ;      CG2O1     CG2R61     CG2R61
  103   102   107	5 ;     CG2R61     CG2R61     CG2R61
  102   103   104	5 ;     CG2R61     CG2R61     CG2R61
  102   103   168	5 ;     CG2R61     CG2R61      HGR61
  104   103   168	5 ;     CG2R61     CG2R61      HGR61
  103   104   105	5 ;     CG2R61     CG2R61     CG2R61
  103   104   169	5 ;     CG2R61     CG2R61      HGR61
  105   104   169	5 ;     CG2R61     CG2R61      HGR61
  104   105   106	5 ;     CG2R61     CG2R61     CG2R61
  104   105   170	5 ;     CG2R61     CG2R61      HGR61
  106   105   170	5 ;     CG2R61     CG2R61      HGR61
  105   106   107	5 ;     CG2R61     CG2R61     CG2R61
  105   106   171	5 ;     CG2R61     CG2R61      HGR61
  107   106   171	5 ;     CG2R61     CG2R61      HGR61
  102   107   106	5 ;     CG2R61     CG2R61     CG2R61
  102   107   172	5 ;     CG2R61     CG2R61      HGR61
  106   107   172	5 ;     CG2R61     CG2R61      HGR61
  100   108   109	5 ;      CG311     CG2R61     CG2R61
  100   108   113	5 ;      CG311     CG2R61     CG2R61
  109   108   113	5 ;     CG2R61     CG2R61     CG2R61
  108   109   110	5 ;     CG2R61     CG2R61     CG2R61
  108   109   173	5 ;     CG2R61     CG2R61      HGR61
  110   109   173	5 ;     CG2R61     CG2R61      HGR61
  109   110   111	5 ;     CG2R61     CG2R61     CG2R61
  109   110   174	5 ;     CG2R61     CG2R61      HGR61
  111   110   174	5 ;     CG2R61     CG2R61      HGR61
  110   111   112	5 ;     CG2R61     CG2R61     CG2R61
  110   111   175	5 ;     CG2R61     CG2R61      HGR61
  112   111   175	5 ;     CG2R61     CG2R61      HGR61
  111   112   113	5 ;     CG2R61     CG2R61     CG2R61
  111   112   176	5 ;     CG2R61     CG2R61      HGR61
  113   112   176	5 ;     CG2R61     CG2R61      HGR61
  108   113   112	5 ;     CG2R61     CG2R61     CG2R61
  108   113   177	5 ;     CG2R61     CG2R61      HGR61
  112   113   177	5 ;     CG2R61     CG2R61      HGR61
   19   114    67	5 ;      CG301      OG301      CG311
   68   116    69	5 ;      CG2O2      OG302      CG311
   71   117   132	5 ;      CG301      OG311       HGP1
   72   118    73	5 ;      CG311      OG302      CG2O2
   84   121    85	5 ;      CG311      OG302      CG2O2
   93   123   157	5 ;      CG311      OG311       HGP1
   95   124    96	5 ;     CG3RC1     OG3C51     CG3C41
   97   125    98	5 ;     CG3RC1      OG302      CG2O2

[ dihedrals ]
;	ai	  aj	ak	  al funct			  c0			c1			  c2			c3			  c4			c5
   23     1     2     3	 9 ;       HGA3      CG331      CG321      CG321
   23     1     2    26	 9 ;       HGA3      CG331      CG321       HGA2
   23     1     2    27	 9 ;       HGA3      CG331      CG321       HGA2
   24     1     2     3	 9 ;       HGA3      CG331      CG321      CG321
   24     1     2    26	 9 ;       HGA3      CG331      CG321       HGA2
   24     1     2    27	 9 ;       HGA3      CG331      CG321       HGA2
   25     1     2     3	 9 ;       HGA3      CG331      CG321      CG321
   25     1     2    26	 9 ;       HGA3      CG331      CG321       HGA2
   25     1     2    27	 9 ;       HGA3      CG331      CG321       HGA2
    1     2     3     4	 9 ;      CG331      CG321      CG321      CG321
    1     2     3    28	 9 ;      CG331      CG321      CG321       HGA2
    1     2     3    29	 9 ;      CG331      CG321      CG321       HGA2
   26     2     3     4	 9 ;       HGA2      CG321      CG321      CG321
   26     2     3    28	 9 ;       HGA2      CG321      CG321       HGA2
   26     2     3    29	 9 ;       HGA2      CG321      CG321       HGA2
   27     2     3     4	 9 ;       HGA2      CG321      CG321      CG321
   27     2     3    28	 9 ;       HGA2      CG321      CG321       HGA2
   27     2     3    29	 9 ;       HGA2      CG321      CG321       HGA2
    2     3     4     5	 9 ;      CG321      CG321      CG321      CG321
    2     3     4    30	 9 ;      CG321      CG321      CG321       HGA2
    2     3     4    31	 9 ;      CG321      CG321      CG321       HGA2
   28     3     4     5	 9 ;       HGA2      CG321      CG321      CG321
   28     3     4    30	 9 ;       HGA2      CG321      CG321       HGA2
   28     3     4    31	 9 ;       HGA2      CG321      CG321       HGA2
   29     3     4     5	 9 ;       HGA2      CG321      CG321      CG321
   29     3     4    30	 9 ;       HGA2      CG321      CG321       HGA2
   29     3     4    31	 9 ;       HGA2      CG321      CG321       HGA2
    3     4     5     6	 9 ;      CG321      CG321      CG321      CG321
    3     4     5    32	 9 ;      CG321      CG321      CG321       HGA2
    3     4     5    33	 9 ;      CG321      CG321      CG321       HGA2
   30     4     5     6	 9 ;       HGA2      CG321      CG321      CG321
   30     4     5    32	 9 ;       HGA2      CG321      CG321       HGA2
   30     4     5    33	 9 ;       HGA2      CG321      CG321       HGA2
   31     4     5     6	 9 ;       HGA2      CG321      CG321      CG321
   31     4     5    32	 9 ;       HGA2      CG321      CG321       HGA2
   31     4     5    33	 9 ;       HGA2      CG321      CG321       HGA2
    4     5     6     7	 9 ;      CG321      CG321      CG321      CG321
    4     5     6    34	 9 ;      CG321      CG321      CG321       HGA2
    4     5     6    35	 9 ;      CG321      CG321      CG321       HGA2
   32     5     6     7	 9 ;       HGA2      CG321      CG321      CG321
   32     5     6    34	 9 ;       HGA2      CG321      CG321       HGA2
   32     5     6    35	 9 ;       HGA2      CG321      CG321       HGA2
   33     5     6     7	 9 ;       HGA2      CG321      CG321      CG321
   33     5     6    34	 9 ;       HGA2      CG321      CG321       HGA2
   33     5     6    35	 9 ;       HGA2      CG321      CG321       HGA2
    5     6     7     8	 9 ;      CG321      CG321      CG321      CG321
    5     6     7    36	 9 ;      CG321      CG321      CG321       HGA2
    5     6     7    37	 9 ;      CG321      CG321      CG321       HGA2
   34     6     7     8	 9 ;       HGA2      CG321      CG321      CG321
   34     6     7    36	 9 ;       HGA2      CG321      CG321       HGA2
   34     6     7    37	 9 ;       HGA2      CG321      CG321       HGA2
   35     6     7     8	 9 ;       HGA2      CG321      CG321      CG321
   35     6     7    36	 9 ;       HGA2      CG321      CG321       HGA2
   35     6     7    37	 9 ;       HGA2      CG321      CG321       HGA2
    6     7     8     9	 9 ;      CG321      CG321      CG321      CG321
    6     7     8    38	 9 ;      CG321      CG321      CG321       HGA2
    6     7     8    39	 9 ;      CG321      CG321      CG321       HGA2
   36     7     8     9	 9 ;       HGA2      CG321      CG321      CG321
   36     7     8    38	 9 ;       HGA2      CG321      CG321       HGA2
   36     7     8    39	 9 ;       HGA2      CG321      CG321       HGA2
   37     7     8     9	 9 ;       HGA2      CG321      CG321      CG321
   37     7     8    38	 9 ;       HGA2      CG321      CG321       HGA2
   37     7     8    39	 9 ;       HGA2      CG321      CG321       HGA2
    7     8     9    10	 9 ;      CG321      CG321      CG321      CG321
    7     8     9    40	 9 ;      CG321      CG321      CG321       HGA2
    7     8     9    41	 9 ;      CG321      CG321      CG321       HGA2
   38     8     9    10	 9 ;       HGA2      CG321      CG321      CG321
   38     8     9    40	 9 ;       HGA2      CG321      CG321       HGA2
   38     8     9    41	 9 ;       HGA2      CG321      CG321       HGA2
   39     8     9    10	 9 ;       HGA2      CG321      CG321      CG321
   39     8     9    40	 9 ;       HGA2      CG321      CG321       HGA2
   39     8     9    41	 9 ;       HGA2      CG321      CG321       HGA2
    8     9    10    11	 9 ;      CG321      CG321      CG321      CG321
    8     9    10    42	 9 ;      CG321      CG321      CG321       HGA2
    8     9    10    43	 9 ;      CG321      CG321      CG321       HGA2
   40     9    10    11	 9 ;       HGA2      CG321      CG321      CG321
   40     9    10    42	 9 ;       HGA2      CG321      CG321       HGA2
   40     9    10    43	 9 ;       HGA2      CG321      CG321       HGA2
   41     9    10    11	 9 ;       HGA2      CG321      CG321      CG321
   41     9    10    42	 9 ;       HGA2      CG321      CG321       HGA2
   41     9    10    43	 9 ;       HGA2      CG321      CG321       HGA2
    9    10    11    12	 9 ;      CG321      CG321      CG321      CG321
    9    10    11    44	 9 ;      CG321      CG321      CG321       HGA2
    9    10    11    45	 9 ;      CG321      CG321      CG321       HGA2
   42    10    11    12	 9 ;       HGA2      CG321      CG321      CG321
   42    10    11    44	 9 ;       HGA2      CG321      CG321       HGA2
   42    10    11    45	 9 ;       HGA2      CG321      CG321       HGA2
   43    10    11    12	 9 ;       HGA2      CG321      CG321      CG321
   43    10    11    44	 9 ;       HGA2      CG321      CG321       HGA2
   43    10    11    45	 9 ;       HGA2      CG321      CG321       HGA2
   10    11    12    13	 9 ;      CG321      CG321      CG321      CG321
   10    11    12    46	 9 ;      CG321      CG321      CG321       HGA2
   10    11    12    47	 9 ;      CG321      CG321      CG321       HGA2
   44    11    12    13	 9 ;       HGA2      CG321      CG321      CG321
   44    11    12    46	 9 ;       HGA2      CG321      CG321       HGA2
   44    11    12    47	 9 ;       HGA2      CG321      CG321       HGA2
   45    11    12    13	 9 ;       HGA2      CG321      CG321      CG321
   45    11    12    46	 9 ;       HGA2      CG321      CG321       HGA2
   45    11    12    47	 9 ;       HGA2      CG321      CG321       HGA2
   11    12    13    14	 9 ;      CG321      CG321      CG321      CG321
   11    12    13    48	 9 ;      CG321      CG321      CG321       HGA2
   11    12    13    49	 9 ;      CG321      CG321      CG321       HGA2
   46    12    13    14	 9 ;       HGA2      CG321      CG321      CG321
   46    12    13    48	 9 ;       HGA2      CG321      CG321       HGA2
   46    12    13    49	 9 ;       HGA2      CG321      CG321       HGA2
   47    12    13    14	 9 ;       HGA2      CG321      CG321      CG321
   47    12    13    48	 9 ;       HGA2      CG321      CG321       HGA2
   47    12    13    49	 9 ;       HGA2      CG321      CG321       HGA2
   12    13    14    15	 9 ;      CG321      CG321      CG321      CG321
   12    13    14    50	 9 ;      CG321      CG321      CG321       HGA2
   12    13    14    51	 9 ;      CG321      CG321      CG321       HGA2
   48    13    14    15	 9 ;       HGA2      CG321      CG321      CG321
   48    13    14    50	 9 ;       HGA2      CG321      CG321       HGA2
   48    13    14    51	 9 ;       HGA2      CG321      CG321       HGA2
   49    13    14    15	 9 ;       HGA2      CG321      CG321      CG321
   49    13    14    50	 9 ;       HGA2      CG321      CG321       HGA2
   49    13    14    51	 9 ;       HGA2      CG321      CG321       HGA2
   13    14    15    16	 9 ;      CG321      CG321      CG321      CG321
   13    14    15    52	 9 ;      CG321      CG321      CG321       HGA2
   13    14    15    53	 9 ;      CG321      CG321      CG321       HGA2
   50    14    15    16	 9 ;       HGA2      CG321      CG321      CG321
   50    14    15    52	 9 ;       HGA2      CG321      CG321       HGA2
   50    14    15    53	 9 ;       HGA2      CG321      CG321       HGA2
   51    14    15    16	 9 ;       HGA2      CG321      CG321      CG321
   51    14    15    52	 9 ;       HGA2      CG321      CG321       HGA2
   51    14    15    53	 9 ;       HGA2      CG321      CG321       HGA2
   14    15    16    17	 9 ;      CG321      CG321      CG321      CG321
   14    15    16    54	 9 ;      CG321      CG321      CG321       HGA2
   14    15    16    55	 9 ;      CG321      CG321      CG321       HGA2
   52    15    16    17	 9 ;       HGA2      CG321      CG321      CG321
   52    15    16    54	 9 ;       HGA2      CG321      CG321       HGA2
   52    15    16    55	 9 ;       HGA2      CG321      CG321       HGA2
   53    15    16    17	 9 ;       HGA2      CG321      CG321      CG321
   53    15    16    54	 9 ;       HGA2      CG321      CG321       HGA2
   53    15    16    55	 9 ;       HGA2      CG321      CG321       HGA2
   15    16    17    18	 9 ;      CG321      CG321      CG321      CG321
   15    16    17    56	 9 ;      CG321      CG321      CG321       HGA2
   15    16    17    57	 9 ;      CG321      CG321      CG321       HGA2
   54    16    17    18	 9 ;       HGA2      CG321      CG321      CG321
   54    16    17    56	 9 ;       HGA2      CG321      CG321       HGA2
   54    16    17    57	 9 ;       HGA2      CG321      CG321       HGA2
   55    16    17    18	 9 ;       HGA2      CG321      CG321      CG321
   55    16    17    56	 9 ;       HGA2      CG321      CG321       HGA2
   55    16    17    57	 9 ;       HGA2      CG321      CG321       HGA2
   16    17    18    22	 9 ;      CG321      CG321      CG321      OG301
   16    17    18    58	 9 ;      CG321      CG321      CG321       HGA2
   16    17    18    59	 9 ;      CG321      CG321      CG321       HGA2
   56    17    18    22	 9 ;       HGA2      CG321      CG321      OG301
   56    17    18    58	 9 ;       HGA2      CG321      CG321       HGA2
   56    17    18    59	 9 ;       HGA2      CG321      CG321       HGA2
   57    17    18    22	 9 ;       HGA2      CG321      CG321      OG301
   57    17    18    58	 9 ;       HGA2      CG321      CG321       HGA2
   57    17    18    59	 9 ;       HGA2      CG321      CG321       HGA2
   17    18    22    19	 9 ;      CG321      CG321      OG301      CG301
   58    18    22    19	 9 ;       HGA2      CG321      OG301      CG301
   59    18    22    19	 9 ;       HGA2      CG321      OG301      CG301
   21    19    20    60	 9 ;      CG331      CG301      CG331       HGA3
   21    19    20    61	 9 ;      CG331      CG301      CG331       HGA3
   21    19    20    62	 9 ;      CG331      CG301      CG331       HGA3
  114    19    20    60	 9 ;      OG301      CG301      CG331       HGA3
  114    19    20    61	 9 ;      OG301      CG301      CG331       HGA3
  114    19    20    62	 9 ;      OG301      CG301      CG331       HGA3
   22    19    20    60	 9 ;      OG301      CG301      CG331       HGA3
   22    19    20    61	 9 ;      OG301      CG301      CG331       HGA3
   22    19    20    62	 9 ;      OG301      CG301      CG331       HGA3
   20    19    21    63	 9 ;      CG331      CG301      CG331       HGA3
   20    19    21    64	 9 ;      CG331      CG301      CG331       HGA3
   20    19    21    65	 9 ;      CG331      CG301      CG331       HGA3
  114    19    21    63	 9 ;      OG301      CG301      CG331       HGA3
  114    19    21    64	 9 ;      OG301      CG301      CG331       HGA3
  114    19    21    65	 9 ;      OG301      CG301      CG331       HGA3
   22    19    21    63	 9 ;      OG301      CG301      CG331       HGA3
   22    19    21    64	 9 ;      OG301      CG301      CG331       HGA3
   22    19    21    65	 9 ;      OG301      CG301      CG331       HGA3
   20    19   114    67	 9 ;      CG331      CG301      OG301      CG311
   21    19   114    67	 9 ;      CG331      CG301      OG301      CG311
   22    19   114    67	 9 ;      OG301      CG301      OG301      CG311
   20    19    22    18	 9 ;      CG331      CG301      OG301      CG321
   21    19    22    18	 9 ;      CG331      CG301      OG301      CG321
  114    19    22    18	 9 ;      OG301      CG301      OG301      CG321
  167    66   101   102	 9 ;       HGP1      NG2S1      CG2O1     CG2R61
  167    66   101   127	 9 ;       HGP1      NG2S1      CG2O1      OG2D1
  100    66   101   102	 9 ;      CG311      NG2S1      CG2O1     CG2R61
  100    66   101   127	 9 ;      CG311      NG2S1      CG2O1      OG2D1
  101    66   100    67	 9 ;      CG2O1      NG2S1      CG311      CG311
  101    66   100   108	 9 ;      CG2O1      NG2S1      CG311     CG2R61
  101    66   100   166	 9 ;      CG2O1      NG2S1      CG311       HGA1
  167    66   100    67	 9 ;       HGP1      NG2S1      CG311      CG311
  167    66   100   108	 9 ;       HGP1      NG2S1      CG311     CG2R61
  167    66   100   166	 9 ;       HGP1      NG2S1      CG311       HGA1
  100    67    68   115	 9 ;      CG311      CG311      CG2O2      OG2D1
  100    67    68   116	 9 ;      CG311      CG311      CG2O2      OG302
  128    67    68   115	 9 ;       HGA1      CG311      CG2O2      OG2D1
  128    67    68   116	 9 ;       HGA1      CG311      CG2O2      OG302
  114    67    68   115	 9 ;      OG301      CG311      CG2O2      OG2D1
  114    67    68   116	 9 ;      OG301      CG311      CG2O2      OG302
   68    67   100    66	 9 ;      CG2O2      CG311      CG311      NG2S1
   68    67   100   108	 9 ;      CG2O2      CG311      CG311     CG2R61
   68    67   100   166	 9 ;      CG2O2      CG311      CG311       HGA1
  128    67   100    66	 9 ;       HGA1      CG311      CG311      NG2S1
  128    67   100   108	 9 ;       HGA1      CG311      CG311     CG2R61
  128    67   100   166	 9 ;       HGA1      CG311      CG311       HGA1
  114    67   100    66	 9 ;      OG301      CG311      CG311      NG2S1
  114    67   100   108	 9 ;      OG301      CG311      CG311     CG2R61
  114    67   100   166	 9 ;      OG301      CG311      CG311       HGA1
   68    67   114    19	 9 ;      CG2O2      CG311      OG301      CG301
  100    67   114    19	 9 ;      CG311      CG311      OG301      CG301
  128    67   114    19	 9 ;       HGA1      CG311      OG301      CG301
   67    68   116    69	 9 ;      CG311      CG2O2      OG302      CG311
  115    68   116    69	 9 ;      OG2D1      CG2O2      OG302      CG311
   88    69    70    71	 9 ;      CG2D1      CG311      CG321      CG301
   88    69    70   130	 9 ;      CG2D1      CG311      CG321       HGA2
   88    69    70   131	 9 ;      CG2D1      CG311      CG321       HGA2
  129    69    70    71	 9 ;       HGA1      CG311      CG321      CG301
  129    69    70   130	 9 ;       HGA1      CG311      CG321       HGA2
  129    69    70   131	 9 ;       HGA1      CG311      CG321       HGA2
  116    69    70    71	 9 ;      OG302      CG311      CG321      CG301
  116    69    70   130	 9 ;      OG302      CG311      CG321       HGA2
  116    69    70   131	 9 ;      OG302      CG311      CG321       HGA2
   70    69    88    87	 9 ;      CG321      CG311      CG2D1      CG2D1
   70    69    88    89	 9 ;      CG321      CG311      CG2D1      CG331
  129    69    88    87	 9 ;       HGA1      CG311      CG2D1      CG2D1
  129    69    88    89	 9 ;       HGA1      CG311      CG2D1      CG331
  116    69    88    87	 9 ;      OG302      CG311      CG2D1      CG2D1
  116    69    88    89	 9 ;      OG302      CG311      CG2D1      CG331
   70    69   116    68	 9 ;      CG321      CG311      OG302      CG2O2
   88    69   116    68	 9 ;      CG2D1      CG311      OG302      CG2O2
  129    69   116    68	 9 ;       HGA1      CG311      OG302      CG2O2
   69    70    71    72	 9 ;      CG311      CG321      CG301      CG311
   69    70    71    90	 9 ;      CG311      CG321      CG301      CG301
   69    70    71   117	 9 ;      CG311      CG321      CG301      OG311
  130    70    71    72	 9 ;       HGA2      CG321      CG301      CG311
  130    70    71    90	 9 ;       HGA2      CG321      CG301      CG301
  130    70    71   117	 9 ;       HGA2      CG321      CG301      OG311
  131    70    71    72	 9 ;       HGA2      CG321      CG301      CG311
  131    70    71    90	 9 ;       HGA2      CG321      CG301      CG301
  131    70    71   117	 9 ;       HGA2      CG321      CG301      OG311
   70    71    72    80	 9 ;      CG321      CG301      CG311      CG311
   70    71    72   118	 9 ;      CG321      CG301      CG311      OG302
   70    71    72   133	 9 ;      CG321      CG301      CG311       HGA1
   90    71    72    80	 9 ;      CG301      CG301      CG311      CG311
   90    71    72   118	 9 ;      CG301      CG301      CG311      OG302
   90    71    72   133	 9 ;      CG301      CG301      CG311       HGA1
  117    71    72    80	 9 ;      OG311      CG301      CG311      CG311
  117    71    72   118	 9 ;      OG311      CG301      CG311      OG302
  117    71    72   133	 9 ;      OG311      CG301      CG311       HGA1
   70    71    90    87	 9 ;      CG321      CG301      CG301      CG2D1
   70    71    90    91	 9 ;      CG321      CG301      CG301      CG331
   70    71    90    92	 9 ;      CG321      CG301      CG301      CG331
   72    71    90    87	 9 ;      CG311      CG301      CG301      CG2D1
   72    71    90    91	 9 ;      CG311      CG301      CG301      CG331
   72    71    90    92	 9 ;      CG311      CG301      CG301      CG331
  117    71    90    87	 9 ;      OG311      CG301      CG301      CG2D1
  117    71    90    91	 9 ;      OG311      CG301      CG301      CG331
  117    71    90    92	 9 ;      OG311      CG301      CG301      CG331
   70    71   117   132	 9 ;      CG321      CG301      OG311       HGP1
   72    71   117   132	 9 ;      CG311      CG301      OG311       HGP1
   90    71   117   132	 9 ;      CG301      CG301      OG311       HGP1
   71    72    80    81	 9 ;      CG301      CG311      CG311      CG301
   71    72    80    97	 9 ;      CG301      CG311      CG311     CG3RC1
   71    72    80   139	 9 ;      CG301      CG311      CG311       HGA1
  118    72    80    81	 9 ;      OG302      CG311      CG311      CG301
  118    72    80    97	 9 ;      OG302      CG311      CG311     CG3RC1
  118    72    80   139	 9 ;      OG302      CG311      CG311       HGA1
  133    72    80    81	 9 ;       HGA1      CG311      CG311      CG301
  133    72    80    97	 9 ;       HGA1      CG311      CG311     CG3RC1
  133    72    80   139	 9 ;       HGA1      CG311      CG311       HGA1
   71    72   118    73	 9 ;      CG301      CG311      OG302      CG2O2
   80    72   118    73	 9 ;      CG311      CG311      OG302      CG2O2
  133    72   118    73	 9 ;       HGA1      CG311      OG302      CG2O2
  119    73    74    75	 9 ;      OG2D1      CG2O2     CG2R61     CG2R61
  119    73    74    79	 9 ;      OG2D1      CG2O2     CG2R61     CG2R61
  118    73    74    75	 9 ;      OG302      CG2O2     CG2R61     CG2R61
  118    73    74    79	 9 ;      OG302      CG2O2     CG2R61     CG2R61
   74    73   118    72	 9 ;     CG2R61      CG2O2      OG302      CG311
  119    73   118    72	 9 ;      OG2D1      CG2O2      OG302      CG311
   73    74    75    76	 9 ;      CG2O2     CG2R61     CG2R61     CG2R61
   73    74    75   134	 9 ;      CG2O2     CG2R61     CG2R61      HGR61
   79    74    75    76	 9 ;     CG2R61     CG2R61     CG2R61     CG2R61
   79    74    75   134	 9 ;     CG2R61     CG2R61     CG2R61      HGR61
   73    74    79    78	 9 ;      CG2O2     CG2R61     CG2R61     CG2R61
   73    74    79   138	 9 ;      CG2O2     CG2R61     CG2R61      HGR61
   75    74    79    78	 9 ;     CG2R61     CG2R61     CG2R61     CG2R61
   75    74    79   138	 9 ;     CG2R61     CG2R61     CG2R61      HGR61
   74    75    76    77	 9 ;     CG2R61     CG2R61     CG2R61     CG2R61
   74    75    76   135	 9 ;     CG2R61     CG2R61     CG2R61      HGR61
  134    75    76    77	 9 ;      HGR61     CG2R61     CG2R61     CG2R61
  134    75    76   135	 9 ;      HGR61     CG2R61     CG2R61      HGR61
   75    76    77    78	 9 ;     CG2R61     CG2R61     CG2R61     CG2R61
   75    76    77   136	 9 ;     CG2R61     CG2R61     CG2R61      HGR61
  135    76    77    78	 9 ;      HGR61     CG2R61     CG2R61     CG2R61
  135    76    77   136	 9 ;      HGR61     CG2R61     CG2R61      HGR61
   76    77    78    79	 9 ;     CG2R61     CG2R61     CG2R61     CG2R61
   76    77    78   137	 9 ;     CG2R61     CG2R61     CG2R61      HGR61
  136    77    78    79	 9 ;      HGR61     CG2R61     CG2R61     CG2R61
  136    77    78   137	 9 ;      HGR61     CG2R61     CG2R61      HGR61
   77    78    79    74	 9 ;     CG2R61     CG2R61     CG2R61     CG2R61
   77    78    79   138	 9 ;     CG2R61     CG2R61     CG2R61      HGR61
  137    78    79    74	 9 ;      HGR61     CG2R61     CG2R61     CG2R61
  137    78    79   138	 9 ;      HGR61     CG2R61     CG2R61      HGR61
   72    80    81    82	 9 ;      CG311      CG311      CG301      CG331
   72    80    81    83	 9 ;      CG311      CG311      CG301      CG2O5
   72    80    81    93	 9 ;      CG311      CG311      CG301      CG311
   97    80    81    82	 9 ;     CG3RC1      CG311      CG301      CG331
   97    80    81    83	 9 ;     CG3RC1      CG311      CG301      CG2O5
   97    80    81    93	 9 ;     CG3RC1      CG311      CG301      CG311
  139    80    81    82	 9 ;       HGA1      CG311      CG301      CG331
  139    80    81    83	 9 ;       HGA1      CG311      CG301      CG2O5
  139    80    81    93	 9 ;       HGA1      CG311      CG301      CG311
   72    80    97    95	 9 ;      CG311      CG311     CG3RC1     CG3RC1
   72    80    97    96	 9 ;      CG311      CG311     CG3RC1     CG3C41
   72    80    97   125	 9 ;      CG311      CG311     CG3RC1      OG302
   81    80    97    95	 9 ;      CG301      CG311     CG3RC1     CG3RC1
   81    80    97    96	 9 ;      CG301      CG311     CG3RC1     CG3C41
   81    80    97   125	 9 ;      CG301      CG311     CG3RC1      OG302
  139    80    97    95	 9 ;       HGA1      CG311     CG3RC1     CG3RC1
  139    80    97    96	 9 ;       HGA1      CG311     CG3RC1     CG3C41
  139    80    97   125	 9 ;       HGA1      CG311     CG3RC1      OG302
   80    81    82   140	 9 ;      CG311      CG301      CG331       HGA3
   80    81    82   141	 9 ;      CG311      CG301      CG331       HGA3
   80    81    82   142	 9 ;      CG311      CG301      CG331       HGA3
   83    81    82   140	 9 ;      CG2O5      CG301      CG331       HGA3
   83    81    82   141	 9 ;      CG2O5      CG301      CG331       HGA3
   83    81    82   142	 9 ;      CG2O5      CG301      CG331       HGA3
   93    81    82   140	 9 ;      CG311      CG301      CG331       HGA3
   93    81    82   141	 9 ;      CG311      CG301      CG331       HGA3
   93    81    82   142	 9 ;      CG311      CG301      CG331       HGA3
   80    81    83    84	 9 ;      CG311      CG301      CG2O5      CG311
   80    81    83   120	 9 ;      CG311      CG301      CG2O5      OG2D3
   82    81    83    84	 9 ;      CG331      CG301      CG2O5      CG311
   82    81    83   120	 9 ;      CG331      CG301      CG2O5      OG2D3
   93    81    83    84	 9 ;      CG311      CG301      CG2O5      CG311
   93    81    83   120	 9 ;      CG311      CG301      CG2O5      OG2D3
   80    81    93    94	 9 ;      CG311      CG301      CG311      CG321
   80    81    93   123	 9 ;      CG311      CG301      CG311      OG311
   80    81    93   156	 9 ;      CG311      CG301      CG311       HGA1
   82    81    93    94	 9 ;      CG331      CG301      CG311      CG321
   82    81    93   123	 9 ;      CG331      CG301      CG311      OG311
   82    81    93   156	 9 ;      CG331      CG301      CG311       HGA1
   83    81    93    94	 9 ;      CG2O5      CG301      CG311      CG321
   83    81    93   123	 9 ;      CG2O5      CG301      CG311      OG311
   83    81    93   156	 9 ;      CG2O5      CG301      CG311       HGA1
   81    83    84    87	 9 ;      CG301      CG2O5      CG311      CG2D1
   81    83    84   121	 9 ;      CG301      CG2O5      CG311      OG302
   81    83    84   143	 9 ;      CG301      CG2O5      CG311       HGA1
  120    83    84    87	 9 ;      OG2D3      CG2O5      CG311      CG2D1
  120    83    84   121	 9 ;      OG2D3      CG2O5      CG311      OG302
  120    83    84   143	 9 ;      OG2D3      CG2O5      CG311       HGA1
   83    84    87    88	 9 ;      CG2O5      CG311      CG2D1      CG2D1
   83    84    87    90	 9 ;      CG2O5      CG311      CG2D1      CG301
  121    84    87    88	 9 ;      OG302      CG311      CG2D1      CG2D1
  121    84    87    90	 9 ;      OG302      CG311      CG2D1      CG301
  143    84    87    88	 9 ;       HGA1      CG311      CG2D1      CG2D1
  143    84    87    90	 9 ;       HGA1      CG311      CG2D1      CG301
   83    84   121    85	 9 ;      CG2O5      CG311      OG302      CG2O2
   87    84   121    85	 9 ;      CG2D1      CG311      OG302      CG2O2
  143    84   121    85	 9 ;       HGA1      CG311      OG302      CG2O2
  122    85    86   144	 9 ;      OG2D1      CG2O2      CG331       HGA3
  122    85    86   145	 9 ;      OG2D1      CG2O2      CG331       HGA3
  122    85    86   146	 9 ;      OG2D1      CG2O2      CG331       HGA3
  121    85    86   144	 9 ;      OG302      CG2O2      CG331       HGA3
  121    85    86   145	 9 ;      OG302      CG2O2      CG331       HGA3
  121    85    86   146	 9 ;      OG302      CG2O2      CG331       HGA3
   86    85   121    84	 9 ;      CG331      CG2O2      OG302      CG311
  122    85   121    84	 9 ;      OG2D1      CG2O2      OG302      CG311
   84    87    88    69	 9 ;      CG311      CG2D1      CG2D1      CG311
   84    87    88    89	 9 ;      CG311      CG2D1      CG2D1      CG331
   90    87    88    69	 9 ;      CG301      CG2D1      CG2D1      CG311
   90    87    88    89	 9 ;      CG301      CG2D1      CG2D1      CG331
   84    87    90    71	 9 ;      CG311      CG2D1      CG301      CG301
   84    87    90    91	 9 ;      CG311      CG2D1      CG301      CG331
   84    87    90    92	 9 ;      CG311      CG2D1      CG301      CG331
   88    87    90    71	 9 ;      CG2D1      CG2D1      CG301      CG301
   88    87    90    91	 9 ;      CG2D1      CG2D1      CG301      CG331
   88    87    90    92	 9 ;      CG2D1      CG2D1      CG301      CG331
   69    88    89   147	 9 ;      CG311      CG2D1      CG331       HGA3
   69    88    89   148	 9 ;      CG311      CG2D1      CG331       HGA3
   69    88    89   149	 9 ;      CG311      CG2D1      CG331       HGA3
   87    88    89   147	 9 ;      CG2D1      CG2D1      CG331       HGA3
   87    88    89   148	 9 ;      CG2D1      CG2D1      CG331       HGA3
   87    88    89   149	 9 ;      CG2D1      CG2D1      CG331       HGA3
   71    90    91   150	 9 ;      CG301      CG301      CG331       HGA3
   71    90    91   151	 9 ;      CG301      CG301      CG331       HGA3
   71    90    91   152	 9 ;      CG301      CG301      CG331       HGA3
   87    90    91   150	 9 ;      CG2D1      CG301      CG331       HGA3
   87    90    91   151	 9 ;      CG2D1      CG301      CG331       HGA3
   87    90    91   152	 9 ;      CG2D1      CG301      CG331       HGA3
   92    90    91   150	 9 ;      CG331      CG301      CG331       HGA3
   92    90    91   151	 9 ;      CG331      CG301      CG331       HGA3
   92    90    91   152	 9 ;      CG331      CG301      CG331       HGA3
   71    90    92   153	 9 ;      CG301      CG301      CG331       HGA3
   71    90    92   154	 9 ;      CG301      CG301      CG331       HGA3
   71    90    92   155	 9 ;      CG301      CG301      CG331       HGA3
   87    90    92   153	 9 ;      CG2D1      CG301      CG331       HGA3
   87    90    92   154	 9 ;      CG2D1      CG301      CG331       HGA3
   87    90    92   155	 9 ;      CG2D1      CG301      CG331       HGA3
   91    90    92   153	 9 ;      CG331      CG301      CG331       HGA3
   91    90    92   154	 9 ;      CG331      CG301      CG331       HGA3
   91    90    92   155	 9 ;      CG331      CG301      CG331       HGA3
   81    93    94    95	 9 ;      CG301      CG311      CG321     CG3RC1
   81    93    94   158	 9 ;      CG301      CG311      CG321       HGA2
   81    93    94   159	 9 ;      CG301      CG311      CG321       HGA2
  123    93    94    95	 9 ;      OG311      CG311      CG321     CG3RC1
  123    93    94   158	 9 ;      OG311      CG311      CG321       HGA2
  123    93    94   159	 9 ;      OG311      CG311      CG321       HGA2
  156    93    94    95	 9 ;       HGA1      CG311      CG321     CG3RC1
  156    93    94   158	 9 ;       HGA1      CG311      CG321       HGA2
  156    93    94   159	 9 ;       HGA1      CG311      CG321       HGA2
   81    93   123   157	 9 ;      CG301      CG311      OG311       HGP1
   94    93   123   157	 9 ;      CG321      CG311      OG311       HGP1
  156    93   123   157	 9 ;       HGA1      CG311      OG311       HGP1
   93    94    95    97	 9 ;      CG311      CG321     CG3RC1     CG3RC1
   93    94    95   124	 9 ;      CG311      CG321     CG3RC1     OG3C51
   93    94    95   160	 9 ;      CG311      CG321     CG3RC1       HGA1
  158    94    95    97	 9 ;       HGA2      CG321     CG3RC1     CG3RC1
  158    94    95   124	 9 ;       HGA2      CG321     CG3RC1     OG3C51
  158    94    95   160	 9 ;       HGA2      CG321     CG3RC1       HGA1
  159    94    95    97	 9 ;       HGA2      CG321     CG3RC1     CG3RC1
  159    94    95   124	 9 ;       HGA2      CG321     CG3RC1     OG3C51
  159    94    95   160	 9 ;       HGA2      CG321     CG3RC1       HGA1
   94    95    97    80	 9 ;      CG321     CG3RC1     CG3RC1      CG311
   94    95    97    96	 9 ;      CG321     CG3RC1     CG3RC1     CG3C41
   94    95    97   125	 9 ;      CG321     CG3RC1     CG3RC1      OG302
  124    95    97    80	 9 ;     OG3C51     CG3RC1     CG3RC1      CG311
  124    95    97    96	 9 ;     OG3C51     CG3RC1     CG3RC1     CG3C41
  124    95    97   125	 9 ;     OG3C51     CG3RC1     CG3RC1      OG302
  160    95    97    80	 9 ;       HGA1     CG3RC1     CG3RC1      CG311
  160    95    97    96	 9 ;       HGA1     CG3RC1     CG3RC1     CG3C41
  160    95    97   125	 9 ;       HGA1     CG3RC1     CG3RC1      OG302
   94    95   124    96	 9 ;      CG321     CG3RC1     OG3C51     CG3C41
   97    95   124    96	 9 ;     CG3RC1     CG3RC1     OG3C51     CG3C41
  160    95   124    96	 9 ;       HGA1     CG3RC1     OG3C51     CG3C41
  161    96    97    80	 9 ;       HGA2     CG3C41     CG3RC1      CG311
  161    96    97    95	 9 ;       HGA2     CG3C41     CG3RC1     CG3RC1
  161    96    97   125	 9 ;       HGA2     CG3C41     CG3RC1      OG302
  162    96    97    80	 9 ;       HGA2     CG3C41     CG3RC1      CG311
  162    96    97    95	 9 ;       HGA2     CG3C41     CG3RC1     CG3RC1
  162    96    97   125	 9 ;       HGA2     CG3C41     CG3RC1      OG302
  124    96    97    80	 9 ;     OG3C51     CG3C41     CG3RC1      CG311
  124    96    97    95	 9 ;     OG3C51     CG3C41     CG3RC1     CG3RC1
  124    96    97   125	 9 ;     OG3C51     CG3C41     CG3RC1      OG302
   97    96   124    95	 9 ;     CG3RC1     CG3C41     OG3C51     CG3RC1
  161    96   124    95	 9 ;       HGA2     CG3C41     OG3C51     CG3RC1
  162    96   124    95	 9 ;       HGA2     CG3C41     OG3C51     CG3RC1
   80    97   125    98	 9 ;      CG311     CG3RC1      OG302      CG2O2
   95    97   125    98	 9 ;     CG3RC1     CG3RC1      OG302      CG2O2
   96    97   125    98	 9 ;     CG3C41     CG3RC1      OG302      CG2O2
  126    98    99   163	 9 ;      OG2D1      CG2O2      CG331       HGA3
  126    98    99   164	 9 ;      OG2D1      CG2O2      CG331       HGA3
  126    98    99   165	 9 ;      OG2D1      CG2O2      CG331       HGA3
  125    98    99   163	 9 ;      OG302      CG2O2      CG331       HGA3
  125    98    99   164	 9 ;      OG302      CG2O2      CG331       HGA3
  125    98    99   165	 9 ;      OG302      CG2O2      CG331       HGA3
   99    98   125    97	 9 ;      CG331      CG2O2      OG302     CG3RC1
  126    98   125    97	 9 ;      OG2D1      CG2O2      OG302     CG3RC1
   67   100   108   109	 9 ;      CG311      CG311     CG2R61     CG2R61
   67   100   108   113	 9 ;      CG311      CG311     CG2R61     CG2R61
   66   100   108   109	 9 ;      NG2S1      CG311     CG2R61     CG2R61
   66   100   108   113	 9 ;      NG2S1      CG311     CG2R61     CG2R61
  166   100   108   109	 9 ;       HGA1      CG311     CG2R61     CG2R61
  166   100   108   113	 9 ;       HGA1      CG311     CG2R61     CG2R61
   66   101   102   103	 9 ;      NG2S1      CG2O1     CG2R61     CG2R61
   66   101   102   107	 9 ;      NG2S1      CG2O1     CG2R61     CG2R61
  127   101   102   103	 9 ;      OG2D1      CG2O1     CG2R61     CG2R61
  127   101   102   107	 9 ;      OG2D1      CG2O1     CG2R61     CG2R61
  101   102   103   104	 9 ;      CG2O1     CG2R61     CG2R61     CG2R61
  101   102   103   168	 9 ;      CG2O1     CG2R61     CG2R61      HGR61
  107   102   103   104	 9 ;     CG2R61     CG2R61     CG2R61     CG2R61
  107   102   103   168	 9 ;     CG2R61     CG2R61     CG2R61      HGR61
  101   102   107   106	 9 ;      CG2O1     CG2R61     CG2R61     CG2R61
  101   102   107   172	 9 ;      CG2O1     CG2R61     CG2R61      HGR61
  103   102   107   106	 9 ;     CG2R61     CG2R61     CG2R61     CG2R61
  103   102   107   172	 9 ;     CG2R61     CG2R61     CG2R61      HGR61
  102   103   104   105	 9 ;     CG2R61     CG2R61     CG2R61     CG2R61
  102   103   104   169	 9 ;     CG2R61     CG2R61     CG2R61      HGR61
  168   103   104   105	 9 ;      HGR61     CG2R61     CG2R61     CG2R61
  168   103   104   169	 9 ;      HGR61     CG2R61     CG2R61      HGR61
  103   104   105   106	 9 ;     CG2R61     CG2R61     CG2R61     CG2R61
  103   104   105   170	 9 ;     CG2R61     CG2R61     CG2R61      HGR61
  169   104   105   106	 9 ;      HGR61     CG2R61     CG2R61     CG2R61
  169   104   105   170	 9 ;      HGR61     CG2R61     CG2R61      HGR61
  104   105   106   107	 9 ;     CG2R61     CG2R61     CG2R61     CG2R61
  104   105   106   171	 9 ;     CG2R61     CG2R61     CG2R61      HGR61
  170   105   106   107	 9 ;      HGR61     CG2R61     CG2R61     CG2R61
  170   105   106   171	 9 ;      HGR61     CG2R61     CG2R61      HGR61
  105   106   107   102	 9 ;     CG2R61     CG2R61     CG2R61     CG2R61
  105   106   107   172	 9 ;     CG2R61     CG2R61     CG2R61      HGR61
  171   106   107   102	 9 ;      HGR61     CG2R61     CG2R61     CG2R61
  171   106   107   172	 9 ;      HGR61     CG2R61     CG2R61      HGR61
  100   108   109   110	 9 ;      CG311     CG2R61     CG2R61     CG2R61
  100   108   109   173	 9 ;      CG311     CG2R61     CG2R61      HGR61
  113   108   109   110	 9 ;     CG2R61     CG2R61     CG2R61     CG2R61
  113   108   109   173	 9 ;     CG2R61     CG2R61     CG2R61      HGR61
  100   108   113   112	 9 ;      CG311     CG2R61     CG2R61     CG2R61
  100   108   113   177	 9 ;      CG311     CG2R61     CG2R61      HGR61
  109   108   113   112	 9 ;     CG2R61     CG2R61     CG2R61     CG2R61
  109   108   113   177	 9 ;     CG2R61     CG2R61     CG2R61      HGR61
  108   109   110   111	 9 ;     CG2R61     CG2R61     CG2R61     CG2R61
  108   109   110   174	 9 ;     CG2R61     CG2R61     CG2R61      HGR61
  173   109   110   111	 9 ;      HGR61     CG2R61     CG2R61     CG2R61
  173   109   110   174	 9 ;      HGR61     CG2R61     CG2R61      HGR61
  109   110   111   112	 9 ;     CG2R61     CG2R61     CG2R61     CG2R61
  109   110   111   175	 9 ;     CG2R61     CG2R61     CG2R61      HGR61
  174   110   111   112	 9 ;      HGR61     CG2R61     CG2R61     CG2R61
  174   110   111   175	 9 ;      HGR61     CG2R61     CG2R61      HGR61
  110   111   112   113	 9 ;     CG2R61     CG2R61     CG2R61     CG2R61
  110   111   112   176	 9 ;     CG2R61     CG2R61     CG2R61      HGR61
  175   111   112   113	 9 ;      HGR61     CG2R61     CG2R61     CG2R61
  175   111   112   176	 9 ;      HGR61     CG2R61     CG2R61      HGR61
  111   112   113   108	 9 ;     CG2R61     CG2R61     CG2R61     CG2R61
  111   112   113   177	 9 ;     CG2R61     CG2R61     CG2R61      HGR61
  176   112   113   108	 9 ;      HGR61     CG2R61     CG2R61     CG2R61
  176   112   113   177	 9 ;      HGR61     CG2R61     CG2R61      HGR61

[ dihedrals ]
;	ai	  aj	ak	  al funct			  c0			c1			  c2			c3
   68    67   115   116	 2
   73    74   119   118	 2
   83    81    84   120	 2
   85    86   122   121	 2
   98    99   126   125	 2
  101   102    66   127	 2

