; Created by cgenff_charmm2gmx.py

[ moleculetype ]
; Name			   nrexcl
DOX				 3

[ atoms ]
;	 nr		  type	resnr residue  atom   cgnr	   charge		mass  typeB    chargeB		massB
; residue	 1 DOX rtp DOX q	qsum
     1      CG331      1    DOX     C1      1     -0.101     12.011   ;
     2      OG301      1    DOX     O1      2     -0.396     15.999   ;
     3     CG2R61      1    DOX     C2      3      0.107     12.011   ;
     4     CG2R61      1    DOX     C3      4     -0.118     12.011   ;
     5     CG2R61      1    DOX     C4      5     -0.115     12.011   ;
     6     CG2R61      1    DOX     C5      6     -0.109     12.011   ;
     7     CG2R61      1    DOX     C6      7      0.131     12.011   ;
     8      CG2O5      1    DOX     C7      8      0.186     12.011   ;
     9      OG2D3      1    DOX     O2      9     -0.449     15.999   ;
    10     CG2R61      1    DOX     C8     10      0.263     12.011   ;
    11     CG2R61      1    DOX     C9     11     -0.002     12.011   ;
    12      OG311      1    DOX     O3     12     -0.543     15.999   ;
    13     CG2R61      1    DOX    C10     13      0.023     12.011   ;
    14      CG321      1    DOX    C11     14     -0.213     12.011   ;
    15      CG301      1    DOX    C12     15      0.275     12.011   ;
    16      OG311      1    DOX     O4     16     -0.501     15.999   ;
    17      CG2O5      1    DOX    C13     17      0.334     12.011   ;
    18      OG2D3      1    DOX     O5     18     -0.502     15.999   ;
    19      CG321      1    DOX    C14     19      0.161     12.011   ;
    20      OG311      1    DOX     O6     20     -0.645     15.999   ;
    21      CG321      1    DOX    C15     21     -0.215     12.011   ;
    22      CG311      1    DOX    C16     22      0.133     12.011   ;
    23      OG301      1    DOX     O7     23     -0.414     15.999   ;
    24      CG311      1    DOX    C17     24      0.277     12.011   ;
    25      CG321      1    DOX    C18     25     -0.169     12.011   ;
    26      CG311      1    DOX    C19     26      0.169     12.011   ;
    27      NG321      1    DOX      N     27     -1.000     14.007   ;
    28      CG311      1    DOX    C20     28      0.161     12.011   ;
    29      OG311      1    DOX     O8     29     -0.650     15.999   ;
    30      CG311      1    DOX    C21     30      0.013     12.011   ;
    31      CG331      1    DOX    C22     31     -0.218     12.011   ;
    32     OG3C61      1    DOX     O9     32     -0.384     15.999   ;
    33     CG2R61      1    DOX    C23     33     -0.015     12.011   ;
    34     CG2R61      1    DOX    C24     34      0.016     12.011   ;
    35      OG311      1    DOX    O10     35     -0.543     15.999   ;
    36     CG2R61      1    DOX    C25     36      0.255     12.011   ;
    37      CG2O5      1    DOX    C26     37      0.193     12.011   ;
    38      OG2D3      1    DOX    O11     38     -0.449     15.999   ;
    39     CG2R61      1    DOX    C27     39      0.249     12.011   ;
    40       HGA3      1    DOX     H1     40      0.090      1.008   ;
    41       HGA3      1    DOX     H2     41      0.090      1.008   ;
    42       HGA3      1    DOX     H3     42      0.090      1.008   ;
    43      HGR61      1    DOX     H4     43      0.115      1.008   ;
    44      HGR61      1    DOX     H5     44      0.115      1.008   ;
    45      HGR61      1    DOX     H6     45      0.115      1.008   ;
    46       HGP1      1    DOX     H7     46      0.420      1.008   ;
    47       HGA2      1    DOX     H8     47      0.090      1.008   ;
    48       HGA2      1    DOX     H9     48      0.090      1.008   ;
    49       HGP1      1    DOX    H10     49      0.335      1.008   ;
    50       HGA2      1    DOX    H11     50      0.090      1.008   ;
    51       HGA2      1    DOX    H12     51      0.090      1.008   ;
    52       HGP1      1    DOX    H13     52      0.375      1.008   ;
    53       HGA2      1    DOX    H14     53      0.090      1.008   ;
    54       HGA2      1    DOX    H15     54      0.090      1.008   ;
    55       HGA1      1    DOX    H16     55      0.090      1.008   ;
    56       HGA1      1    DOX    H17     56      0.090      1.008   ;
    57       HGA2      1    DOX    H18     57      0.090      1.008   ;
    58       HGA2      1    DOX    H19     58      0.090      1.008   ;
    59       HGA1      1    DOX    H20     59      0.090      1.008   ;
    60     HGPAM2      1    DOX    H21     60      0.390      1.008   ;
    61     HGPAM2      1    DOX    H22     61      0.390      1.008   ;
    62       HGA1      1    DOX    H23     62      0.090      1.008   ;
    63       HGP1      1    DOX    H24     63      0.420      1.008   ;
    64       HGA1      1    DOX    H25     64      0.090      1.008   ;
    65       HGA3      1    DOX    H26     65      0.090      1.008   ;
    66       HGA3      1    DOX    H27     66      0.090      1.008   ;
    67       HGA3      1    DOX    H28     67      0.090      1.008   ;
    68       HGP1      1    DOX    H29     68      0.420      1.008   ;

[ bonds ]
;	ai	  aj funct			  c0			c1			  c2			c3
    1    41	 1
    1     2	 1
    1    42	 1
    1    40	 1
    2     3	 1
    3     4	 1
    3    39	 1
    4     5	 1
    4    43	 1
    5    44	 1
    5     6	 1
    6    45	 1
    6     7	 1
    7    39	 1
    7     8	 1
    8     9	 1
    8    10	 1
   10    11	 1
   10    36	 1
   11    12	 1
   11    13	 1
   12    46	 1
   13    33	 1
   13    14	 1
   14    47	 1
   14    15	 1
   14    48	 1
   15    17	 1
   15    21	 1
   15    16	 1
   16    49	 1
   17    18	 1
   17    19	 1
   19    50	 1
   19    51	 1
   19    20	 1
   20    52	 1
   21    53	 1
   21    22	 1
   21    54	 1
   22    33	 1
   22    55	 1
   22    23	 1
   23    24	 1
   24    25	 1
   24    56	 1
   24    32	 1
   25    57	 1
   25    26	 1
   25    58	 1
   26    27	 1
   26    28	 1
   26    59	 1
   27    60	 1
   27    61	 1
   28    29	 1
   28    30	 1
   28    62	 1
   29    63	 1
   30    64	 1
   30    31	 1
   30    32	 1
   31    65	 1
   31    66	 1
   31    67	 1
   33    34	 1
   34    35	 1
   34    36	 1
   35    68	 1
   36    37	 1
   37    38	 1
   37    39	 1

[ pairs ]
;	ai	  aj funct			  c0			c1			  c2			c3
    1     4	 1
    1    39	 1
    2    37	 1
    2    43	 1
    2     5	 1
    2     7	 1
    3    36	 1
    3     6	 1
    3     8	 1
    3    41	 1
    3    42	 1
    3    44	 1
    3    40	 1
    3    38	 1
    4    45	 1
    4    37	 1
    4     7	 1
    5    39	 1
    5     8	 1
    6     9	 1
    6    10	 1
    6    37	 1
    6    43	 1
    7    38	 1
    7    11	 1
    7    44	 1
    7    36	 1
    8    34	 1
    8    13	 1
    8    12	 1
    8    45	 1
    8    37	 1
    9    11	 1
    9    36	 1
    9    39	 1
   10    33	 1
   10    35	 1
   10    39	 1
   10    14	 1
   10    46	 1
   10    38	 1
   11    34	 1
   11    37	 1
   11    15	 1
   11    47	 1
   11    48	 1
   11    22	 1
   12    33	 1
   12    36	 1
   12    14	 1
   13    35	 1
   13    36	 1
   13    23	 1
   13    46	 1
   13    16	 1
   13    17	 1
   13    21	 1
   13    55	 1
   14    34	 1
   14    49	 1
   14    18	 1
   14    19	 1
   14    53	 1
   14    22	 1
   14    54	 1
   15    33	 1
   15    23	 1
   15    50	 1
   15    51	 1
   15    20	 1
   15    55	 1
   16    47	 1
   16    48	 1
   16    18	 1
   16    19	 1
   16    53	 1
   16    22	 1
   16    54	 1
   17    47	 1
   17    48	 1
   17    49	 1
   17    52	 1
   17    53	 1
   17    54	 1
   17    22	 1
   18    50	 1
   18    51	 1
   18    20	 1
   18    21	 1
   19    21	 1
   21    34	 1
   21    47	 1
   21    48	 1
   21    49	 1
   21    24	 1
   22    35	 1
   22    36	 1
   22    56	 1
   22    25	 1
   22    32	 1
   23    34	 1
   23    53	 1
   23    54	 1
   23    58	 1
   23    57	 1
   23    26	 1
   23    30	 1
   24    33	 1
   24    55	 1
   24    27	 1
   24    28	 1
   24    59	 1
   24    31	 1
   24    64	 1
   25    61	 1
   25    30	 1
   25    60	 1
   25    29	 1
   25    62	 1
   26    63	 1
   26    56	 1
   26    32	 1
   26    31	 1
   26    64	 1
   27    30	 1
   27    57	 1
   27    58	 1
   27    29	 1
   27    62	 1
   28    65	 1
   28    66	 1
   28    67	 1
   28    57	 1
   28    58	 1
   28    60	 1
   28    61	 1
   29    64	 1
   29    59	 1
   29    31	 1
   29    32	 1
   30    56	 1
   30    59	 1
   30    63	 1
   31    62	 1
   32    65	 1
   32    66	 1
   32    67	 1
   32    58	 1
   32    57	 1
   32    62	 1
   33    68	 1
   33    37	 1
   33    48	 1
   33    53	 1
   33    47	 1
   33    54	 1
   34    55	 1
   34    39	 1
   34    38	 1
   35    37	 1
   36    68	 1
   39    43	 1
   39    45	 1
   43    44	 1
   44    45	 1
   50    52	 1
   51    52	 1
   53    55	 1
   54    55	 1
   56    57	 1
   56    58	 1
   57    59	 1
   58    59	 1
   59    62	 1
   59    60	 1
   59    61	 1
   62    63	 1
   62    64	 1
   64    65	 1
   64    66	 1
   64    67	 1

[ angles ]
;	ai	  aj	ak funct			c0			  c1			c2			  c3
   41     1     2	5
   41     1    42	5
   41     1    40	5
    2     1    42	5
    2     1    40	5
   42     1    40	5
    1     2     3	5
    2     3     4	5
    2     3    39	5
    4     3    39	5
    3     4     5	5
    3     4    43	5
    5     4    43	5
   44     5     4	5
   44     5     6	5
    4     5     6	5
   45     6     5	5
   45     6     7	5
    5     6     7	5
    6     7    39	5
    6     7     8	5
   39     7     8	5
    9     8    10	5
    9     8     7	5
   10     8     7	5
   11    10    36	5
   11    10     8	5
   36    10     8	5
   10    11    12	5
   10    11    13	5
   12    11    13	5
   11    12    46	5
   33    13    11	5
   33    13    14	5
   11    13    14	5
   13    14    47	5
   13    14    15	5
   13    14    48	5
   47    14    15	5
   47    14    48	5
   15    14    48	5
   17    15    21	5
   17    15    14	5
   17    15    16	5
   21    15    14	5
   21    15    16	5
   14    15    16	5
   49    16    15	5
   18    17    19	5
   18    17    15	5
   19    17    15	5
   17    19    50	5
   17    19    51	5
   17    19    20	5
   50    19    51	5
   50    19    20	5
   51    19    20	5
   19    20    52	5
   53    21    22	5
   53    21    15	5
   53    21    54	5
   22    21    15	5
   22    21    54	5
   15    21    54	5
   33    22    21	5
   33    22    55	5
   33    22    23	5
   21    22    55	5
   21    22    23	5
   55    22    23	5
   22    23    24	5
   25    24    56	5
   25    24    23	5
   25    24    32	5
   56    24    23	5
   56    24    32	5
   23    24    32	5
   57    25    26	5
   57    25    58	5
   57    25    24	5
   26    25    58	5
   26    25    24	5
   58    25    24	5
   25    26    27	5
   25    26    28	5
   25    26    59	5
   27    26    28	5
   27    26    59	5
   28    26    59	5
   26    27    60	5
   26    27    61	5
   60    27    61	5
   26    28    29	5
   26    28    30	5
   26    28    62	5
   29    28    30	5
   29    28    62	5
   30    28    62	5
   28    29    63	5
   64    30    28	5
   64    30    31	5
   64    30    32	5
   28    30    31	5
   28    30    32	5
   31    30    32	5
   65    31    66	5
   65    31    67	5
   65    31    30	5
   66    31    67	5
   66    31    30	5
   67    31    30	5
   30    32    24	5
   34    33    13	5
   34    33    22	5
   13    33    22	5
   33    34    35	5
   33    34    36	5
   35    34    36	5
   34    35    68	5
   10    36    37	5
   10    36    34	5
   37    36    34	5
   36    37    38	5
   36    37    39	5
   38    37    39	5
    3    39    37	5
    3    39     7	5
   37    39     7	5

[ dihedrals ]
;	ai	  aj	ak	  al funct			  c0			c1			  c2			c3			  c4			c5
   41     1     2     3	 9
   42     1     2     3	 9
   40     1     2     3	 9
    1     2     3     4	 9
    1     2     3    39	 9
    2     3     4     5	 9
    2     3     4    43	 9
   39     3     4     5	 9
   39     3     4    43	 9
    2     3    39    37	 9
    2     3    39     7	 9
    4     3    39    37	 9
    4     3    39     7	 9
    3     4     5    44	 9
    3     4     5     6	 9
   43     4     5    44	 9
   43     4     5     6	 9
   44     5     6    45	 9
   44     5     6     7	 9
    4     5     6    45	 9
    4     5     6     7	 9
   45     6     7    39	 9
   45     6     7     8	 9
    5     6     7    39	 9
    5     6     7     8	 9
    6     7    39     3	 9
    6     7    39    37	 9
    8     7    39     3	 9
    8     7    39    37	 9
    6     7     8     9	 9
    6     7     8    10	 9
   39     7     8     9	 9
   39     7     8    10	 9
    9     8    10    11	 9
    9     8    10    36	 9
    7     8    10    11	 9
    7     8    10    36	 9
   36    10    11    12	 9
   36    10    11    13	 9
    8    10    11    12	 9
    8    10    11    13	 9
   11    10    36    37	 9
   11    10    36    34	 9
    8    10    36    37	 9
    8    10    36    34	 9
   10    11    12    46	 9
   13    11    12    46	 9
   10    11    13    33	 9
   10    11    13    14	 9
   12    11    13    33	 9
   12    11    13    14	 9
   11    13    33    34	 9
   11    13    33    22	 9
   14    13    33    34	 9
   14    13    33    22	 9
   33    13    14    47	 9
   33    13    14    15	 9
   33    13    14    48	 9
   11    13    14    47	 9
   11    13    14    15	 9
   11    13    14    48	 9
   13    14    15    17	 9
   13    14    15    21	 9
   13    14    15    16	 9
   47    14    15    17	 9
   47    14    15    21	 9
   47    14    15    16	 9
   48    14    15    17	 9
   48    14    15    21	 9
   48    14    15    16	 9
   21    15    17    18	 9
   21    15    17    19	 9
   14    15    17    18	 9
   14    15    17    19	 9
   16    15    17    18	 9
   16    15    17    19	 9
   17    15    21    53	 9
   17    15    21    22	 9
   17    15    21    54	 9
   14    15    21    53	 9
   14    15    21    22	 9
   14    15    21    54	 9
   16    15    21    53	 9
   16    15    21    22	 9
   16    15    21    54	 9
   17    15    16    49	 9
   21    15    16    49	 9
   14    15    16    49	 9
   18    17    19    50	 9
   18    17    19    51	 9
   18    17    19    20	 9
   15    17    19    50	 9
   15    17    19    51	 9
   15    17    19    20	 9
   17    19    20    52	 9
   50    19    20    52	 9
   51    19    20    52	 9
   53    21    22    33	 9
   53    21    22    55	 9
   53    21    22    23	 9
   15    21    22    33	 9
   15    21    22    55	 9
   15    21    22    23	 9
   54    21    22    33	 9
   54    21    22    55	 9
   54    21    22    23	 9
   21    22    33    34	 9
   21    22    33    13	 9
   55    22    33    34	 9
   55    22    33    13	 9
   23    22    33    34	 9
   23    22    33    13	 9
   33    22    23    24	 9
   21    22    23    24	 9
   55    22    23    24	 9
   22    23    24    25	 9
   22    23    24    56	 9
   22    23    24    32	 9
   56    24    25    57	 9
   56    24    25    26	 9
   56    24    25    58	 9
   23    24    25    57	 9
   23    24    25    26	 9
   23    24    25    58	 9
   32    24    25    57	 9
   32    24    25    26	 9
   32    24    25    58	 9
   25    24    32    30	 9
   56    24    32    30	 9
   23    24    32    30	 9
   57    25    26    27	 9
   57    25    26    28	 9
   57    25    26    59	 9
   58    25    26    27	 9
   58    25    26    28	 9
   58    25    26    59	 9
   24    25    26    27	 9
   24    25    26    28	 9
   24    25    26    59	 9
   25    26    27    60	 9
   25    26    27    61	 9
   28    26    27    60	 9
   28    26    27    61	 9
   59    26    27    60	 9
   59    26    27    61	 9
   25    26    28    29	 9
   25    26    28    30	 9
   25    26    28    62	 9
   27    26    28    29	 9
   27    26    28    30	 9
   27    26    28    62	 9
   59    26    28    29	 9
   59    26    28    30	 9
   59    26    28    62	 9
   26    28    29    63	 9
   30    28    29    63	 9
   62    28    29    63	 9
   26    28    30    64	 9
   26    28    30    31	 9
   26    28    30    32	 9
   29    28    30    64	 9
   29    28    30    31	 9
   29    28    30    32	 9
   62    28    30    64	 9
   62    28    30    31	 9
   62    28    30    32	 9
   64    30    31    65	 9
   64    30    31    66	 9
   64    30    31    67	 9
   28    30    31    65	 9
   28    30    31    66	 9
   28    30    31    67	 9
   32    30    31    65	 9
   32    30    31    66	 9
   32    30    31    67	 9
   64    30    32    24	 9
   28    30    32    24	 9
   31    30    32    24	 9
   13    33    34    35	 9
   13    33    34    36	 9
   22    33    34    35	 9
   22    33    34    36	 9
   33    34    35    68	 9
   36    34    35    68	 9
   33    34    36    10	 9
   33    34    36    37	 9
   35    34    36    10	 9
   35    34    36    37	 9
   10    36    37    38	 9
   10    36    37    39	 9
   34    36    37    38	 9
   34    36    37    39	 9
   36    37    39     3	 9
   36    37    39     7	 9
   38    37    39     3	 9
   38    37    39     7	 9

[ dihedrals ]
;	ai	  aj	ak	  al funct			  c0			c1			  c2			c3
    8     7    10     9	 2
   17    15    19    18	 2
   37    36    39    38	 2

