; Created by cgenff_charmm2gmx.py

[ moleculetype ]
; Name			   nrexcl
PTX				 3

[ atoms ]
;	 nr		  type	resnr residue  atom   cgnr	   charge		mass  typeB    chargeB		massB
; residue	 1 PTX rtp PTX q	qsum
     1      CG331      1    PTL     C1      1     -0.273     12.011   ;
     2      CG321      1    PTL     C2      2     -0.177     12.011   ;
     3      CG321      1    PTL     C3      3     -0.181     12.011   ;
     4      CG321      1    PTL     C4      4     -0.179     12.011   ;
     5      CG321      1    PTL     C5      5     -0.180     12.011   ;
     6      CG321      1    PTL     C6      6     -0.180     12.011   ;
     7      CG321      1    PTL     C7      7     -0.180     12.011   ;
     8      CG321      1    PTL     C8      8     -0.180     12.011   ;
     9      CG321      1    PTL     C9      9     -0.180     12.011   ;
    10      CG321      1    PTL    C10     10     -0.180     12.011   ;
    11      CG321      1    PTL    C11     11     -0.180     12.011   ;
    12      CG321      1    PTL    C12     12     -0.157     12.011   ;
    13      CG321      1    PTL    C13     13     -0.186     12.011   ;
    14      CG321      1    PTL    C14     14     -0.219     12.011   ;
    15      CG311      1    PTL    C15     15      0.167     12.011   ;
    16      CG331      1    PTL    C16     16     -0.268     12.011   ;
    17      CG301      1    PTL    C17     17      0.390     12.011   ;
    18      CG331      1    PTL    C18     18     -0.269     12.011   ;
    19      CG331      1    PTL    C19     19     -0.269     12.011   ;
    20      OG301      1    PTL     O1     20     -0.434     15.999   ;
    21       HGA3      1    PTL     H1     21      0.090      1.008   ;
    22       HGA3      1    PTL     H2     22      0.090      1.008   ;
    23       HGA3      1    PTL     H3     23      0.090      1.008   ;
    24       HGA2      1    PTL     H4     24      0.090      1.008   ;
    25       HGA2      1    PTL     H5     25      0.090      1.008   ;
    26       HGA2      1    PTL     H6     26      0.090      1.008   ;
    27       HGA2      1    PTL     H7     27      0.090      1.008   ;
    28       HGA2      1    PTL     H8     28      0.090      1.008   ;
    29       HGA2      1    PTL     H9     29      0.090      1.008   ;
    30       HGA2      1    PTL    H10     30      0.090      1.008   ;
    31       HGA2      1    PTL    H11     31      0.090      1.008   ;
    32       HGA2      1    PTL    H12     32      0.090      1.008   ;
    33       HGA2      1    PTL    H13     33      0.090      1.008   ;
    34       HGA2      1    PTL    H14     34      0.090      1.008   ;
    35       HGA2      1    PTL    H15     35      0.090      1.008   ;
    36       HGA2      1    PTL    H16     36      0.090      1.008   ;
    37       HGA2      1    PTL    H17     37      0.090      1.008   ;
    38       HGA2      1    PTL    H18     38      0.090      1.008   ;
    39       HGA2      1    PTL    H19     39      0.090      1.008   ;
    40       HGA2      1    PTL    H20     40      0.090      1.008   ;
    41       HGA2      1    PTL    H21     41      0.090      1.008   ;
    42       HGA2      1    PTL    H22     42      0.090      1.008   ;
    43       HGA2      1    PTL    H23     43      0.090      1.008   ;
    44       HGA2      1    PTL    H24     44      0.090      1.008   ;
    45       HGA2      1    PTL    H25     45      0.090      1.008   ;
    46       HGA2      1    PTL    H26     46      0.090      1.008   ;
    47       HGA2      1    PTL    H27     47      0.090      1.008   ;
    48       HGA2      1    PTL    H28     48      0.090      1.008   ;
    49       HGA2      1    PTL    H29     49      0.090      1.008   ;
    50       HGA1      1    PTL    H30     50      0.090      1.008   ;
    51       HGA3      1    PTL    H31     51      0.090      1.008   ;
    52       HGA3      1    PTL    H32     52      0.090      1.008   ;
    53       HGA3      1    PTL    H33     53      0.090      1.008   ;
    54       HGA3      1    PTL    H34     54      0.090      1.008   ;
    55       HGA3      1    PTL    H35     55      0.090      1.008   ;
    56       HGA3      1    PTL    H36     56      0.090      1.008   ;
    57       HGA3      1    PTL    H37     57      0.090      1.008   ;
    58       HGA3      1    PTL    H38     58      0.090      1.008   ;
    59       HGA3      1    PTL    H39     59      0.090      1.008   ;
    60      NG2S1      1    PTX      N     60     -0.405     14.007   ;
    61      CG311      1    PTX    C20     61      0.175     12.011   ;
    62      CG321      1    PTX    C21     62     -0.212     12.011   ;
    63     CG3RC1      1    PTX    C22     63      0.020     12.011   ;
    64     CG3C41      1    PTX    C23     64     -0.106     12.011   ;
    65     CG3RC1      1    PTX    C24     65      0.366     12.011   ;
    66      CG2O2      1    PTX    C25     66      0.885     12.011   ;
    67      CG331      1    PTX    C26     67     -0.313     12.011   ;
    68      CG311      1    PTX    C27     68     -0.074     12.011   ;
    69      CG311      1    PTX    C28     69      0.133     12.011   ;
    70      CG2O2      1    PTX    C29     70      0.459     12.011   ;
    71     CG2R61      1    PTX    C30     71      0.086     12.011   ;
    72     CG2R61      1    PTX    C31     72     -0.110     12.011   ;
    73     CG2R61      1    PTX    C32     73     -0.114     12.011   ;
    74     CG2R61      1    PTX    C33     74     -0.115     12.011   ;
    75     CG2R61      1    PTX    C34     75     -0.114     12.011   ;
    76     CG2R61      1    PTX    C35     76     -0.110     12.011   ;
    77      CG301      1    PTX    C36     77      0.186     12.011   ;
    78      CG321      1    PTX    C37     78     -0.212     12.011   ;
    79      CG311      1    PTX    C38     79      0.272     12.011   ;
    80      CG2O2      1    PTX    C39     80      0.853     12.011   ;
    81      CG311      1    PTX    C40     81      0.124     12.011   ;
    82      CG311      1    PTX    C41     82      0.118     12.011   ;
    83      CG2O1      1    PTX    C42     83      0.341     12.011   ;
    84     CG2R61      1    PTX    C43     84     -0.137     12.011   ;
    85     CG2R61      1    PTX    C44     85     -0.024     12.011   ;
    86     CG2R61      1    PTX    C45     86     -0.109     12.011   ;
    87     CG2R61      1    PTX    C46     87     -0.115     12.011   ;
    88     CG2R61      1    PTX    C47     88     -0.109     12.011   ;
    89     CG2R61      1    PTX    C48     89     -0.024     12.011   ;
    90     CG2R61      1    PTX    C49     90     -0.040     12.011   ;
    91     CG2R61      1    PTX    C50     91     -0.106     12.011   ;
    92     CG2R61      1    PTX    C51     92     -0.115     12.011   ;
    93     CG2R61      1    PTX    C52     93     -0.115     12.011   ;
    94     CG2R61      1    PTX    C53     94     -0.115     12.011   ;
    95     CG2R61      1    PTX    C54     95     -0.106     12.011   ;
    96      CG2D1      1    PTX    C55     96     -0.153     12.011   ;
    97      CG331      1    PTX    C56     97     -0.265     12.011   ;
    98      CG2D1      1    PTX    C57     98     -0.113     12.011   ;
    99      CG311      1    PTX    C58     99      0.432     12.011   ;
   100      CG2O2      1    PTX    C59    100      0.834     12.011   ;
   101      CG331      1    PTX    C60    101     -0.311     12.011   ;
   102      CG2O5      1    PTX    C61    102      0.300     12.011   ;
   103      CG301      1    PTX    C62    103      0.088     12.011   ;
   104      CG331      1    PTX    C63    104     -0.263     12.011   ;
   105      CG301      1    PTX    C64    105      0.016     12.011   ;
   106      CG331      1    PTX    C65    106     -0.269     12.011   ;
   107      CG331      1    PTX    C66    107     -0.269     12.011   ;
   108      OG301      1    PTX     O2    108     -0.450     15.999   ;
   109     OG3C51      1    PTX     O3    109     -0.343     15.999   ;
   110      OG302      1    PTX     O4    110     -0.422     15.999   ;
   111      OG2D1      1    PTX     O5    111     -0.617     15.999   ;
   112      OG302      1    PTX     O6    112     -0.310     15.999   ;
   113      OG2D1      1    PTX     O7    113     -0.496     15.999   ;
   114      OG311      1    PTX     O8    114     -0.460     15.999   ;
   115      OG302      1    PTX     O9    115     -0.419     15.999   ;
   116      OG2D1      1    PTX    O10    116     -0.628     15.999   ;
   117      OG311      1    PTX    O11    117     -0.662     15.999   ;
   118      OG2D1      1    PTX    O12    118     -0.458     15.999   ;
   119      OG302      1    PTX    O13    119     -0.427     15.999   ;
   120      OG2D1      1    PTX    O14    120     -0.625     15.999   ;
   121      OG2D3      1    PTX    O15    121     -0.515     15.999   ;
   122       HGA1      1    PTX    H40    122      0.090      1.008   ;
   123       HGA2      1    PTX    H41    123      0.090      1.008   ;
   124       HGA2      1    PTX    H42    124      0.090      1.008   ;
   125       HGA1      1    PTX    H43    125      0.090      1.008   ;
   126       HGA2      1    PTX    H44    126      0.090      1.008   ;
   127       HGA2      1    PTX    H45    127      0.090      1.008   ;
   128       HGA3      1    PTX    H46    128      0.090      1.008   ;
   129       HGA3      1    PTX    H47    129      0.090      1.008   ;
   130       HGA3      1    PTX    H48    130      0.090      1.008   ;
   131       HGA1      1    PTX    H49    131      0.090      1.008   ;
   132       HGA1      1    PTX    H50    132      0.090      1.008   ;
   133      HGR61      1    PTX    H51    133      0.115      1.008   ;
   134      HGR61      1    PTX    H52    134      0.115      1.008   ;
   135      HGR61      1    PTX    H53    135      0.115      1.008   ;
   136      HGR61      1    PTX    H54    136      0.115      1.008   ;
   137      HGR61      1    PTX    H55    137      0.115      1.008   ;
   138       HGP1      1    PTX    H56    138      0.292      1.008   ;
   139       HGA2      1    PTX    H57    139      0.090      1.008   ;
   140       HGA2      1    PTX    H58    140      0.090      1.008   ;
   141       HGA1      1    PTX    H59    141      0.090      1.008   ;
   142       HGA1      1    PTX    H60    142      0.090      1.008   ;
   143       HGP1      1    PTX    H61    143      0.421      1.008   ;
   144       HGA1      1    PTX    H62    144      0.090      1.008   ;
   145       HGP1      1    PTX    H63    145      0.274      1.008   ;
   146      HGR61      1    PTX    H64    146      0.115      1.008   ;
   147      HGR61      1    PTX    H65    147      0.115      1.008   ;
   148      HGR61      1    PTX    H66    148      0.115      1.008   ;
   149      HGR61      1    PTX    H67    149      0.115      1.008   ;
   150      HGR61      1    PTX    H68    150      0.115      1.008   ;
   151      HGR61      1    PTX    H69    151      0.115      1.008   ;
   152      HGR61      1    PTX    H70    152      0.115      1.008   ;
   153      HGR61      1    PTX    H71    153      0.115      1.008   ;
   154      HGR61      1    PTX    H72    154      0.115      1.008   ;
   155      HGR61      1    PTX    H73    155      0.115      1.008   ;
   156       HGA3      1    PTX    H74    156      0.090      1.008   ;
   157       HGA3      1    PTX    H75    157      0.090      1.008   ;
   158       HGA3      1    PTX    H76    158      0.090      1.008   ;
   159       HGA1      1    PTX    H77    159      0.090      1.008   ;
   160       HGA3      1    PTX    H78    160      0.090      1.008   ;
   161       HGA3      1    PTX    H79    161      0.090      1.008   ;
   162       HGA3      1    PTX    H80    162      0.090      1.008   ;
   163       HGA3      1    PTX    H81    163      0.090      1.008   ;
   164       HGA3      1    PTX    H82    164      0.090      1.008   ;
   165       HGA3      1    PTX    H83    165      0.090      1.008   ;
   166       HGA3      1    PTX    H84    166      0.090      1.008   ;
   167       HGA3      1    PTX    H85    167      0.090      1.008   ;
   168       HGA3      1    PTX    H86    168      0.090      1.008   ;
   169       HGA3      1    PTX    H87    169      0.090      1.008   ;
   170       HGA3      1    PTX    H88    170      0.090      1.008   ;
   171       HGA3      1    PTX    H89    171      0.090      1.008   ;

[ bonds ]
;	ai	  aj funct			  c0			c1			  c2			c3
    1     2	 1 ;       CG331      CG321
    1    21	 1 ;       CG331       HGA3
    1    22	 1 ;       CG331       HGA3
    1    23	 1 ;       CG331       HGA3
    2     3	 1 ;       CG321      CG321
    2    24	 1 ;       CG321       HGA2
    2    25	 1 ;       CG321       HGA2
    3     4	 1 ;       CG321      CG321
    3    26	 1 ;       CG321       HGA2
    3    27	 1 ;       CG321       HGA2
    4     5	 1 ;       CG321      CG321
    4    28	 1 ;       CG321       HGA2
    4    29	 1 ;       CG321       HGA2
    5     6	 1 ;       CG321      CG321
    5    30	 1 ;       CG321       HGA2
    5    31	 1 ;       CG321       HGA2
    6     7	 1 ;       CG321      CG321
    6    32	 1 ;       CG321       HGA2
    6    33	 1 ;       CG321       HGA2
    7     8	 1 ;       CG321      CG321
    7    34	 1 ;       CG321       HGA2
    7    35	 1 ;       CG321       HGA2
    8     9	 1 ;       CG321      CG321
    8    36	 1 ;       CG321       HGA2
    8    37	 1 ;       CG321       HGA2
    9    10	 1 ;       CG321      CG321
    9    38	 1 ;       CG321       HGA2
    9    39	 1 ;       CG321       HGA2
   10    11	 1 ;       CG321      CG321
   10    40	 1 ;       CG321       HGA2
   10    41	 1 ;       CG321       HGA2
   11    12	 1 ;       CG321      CG321
   11    42	 1 ;       CG321       HGA2
   11    43	 1 ;       CG321       HGA2
   12    13	 1 ;       CG321      CG321
   12    44	 1 ;       CG321       HGA2
   12    45	 1 ;       CG321       HGA2
   13    14	 1 ;       CG321      CG321
   13    46	 1 ;       CG321       HGA2
   13    47	 1 ;       CG321       HGA2
   14    15	 1 ;       CG321      CG311
   14    48	 1 ;       CG321       HGA2
   14    49	 1 ;       CG321       HGA2
   15    16	 1 ;       CG311      CG331
   15    20	 1 ;       CG311      OG301
   15    50	 1 ;       CG311       HGA1
   16    51	 1 ;       CG331       HGA3
   16    52	 1 ;       CG331       HGA3
   16    53	 1 ;       CG331       HGA3
   17    18	 1 ;       CG301      CG331
   17    19	 1 ;       CG301      CG331
   17   108	 1 ;       CG301      OG301
   17    20	 1 ;       CG301      OG301
   18    54	 1 ;       CG331       HGA3
   18    55	 1 ;       CG331       HGA3
   18    56	 1 ;       CG331       HGA3
   19    57	 1 ;       CG331       HGA3
   19    58	 1 ;       CG331       HGA3
   19    59	 1 ;       CG331       HGA3
   60    83	 1 ;       NG2S1      CG2O1
   60   145	 1 ;       NG2S1       HGP1
   60    82	 1 ;       NG2S1      CG311
   61    62	 1 ;       CG311      CG321
   61   103	 1 ;       CG311      CG301
   61   122	 1 ;       CG311       HGA1
   61   108	 1 ;       CG311      OG301
   62    63	 1 ;       CG321     CG3RC1
   62   123	 1 ;       CG321       HGA2
   62   124	 1 ;       CG321       HGA2
   63    65	 1 ;      CG3RC1     CG3RC1
   63   109	 1 ;      CG3RC1     OG3C51
   63   125	 1 ;      CG3RC1       HGA1
   64    65	 1 ;      CG3C41     CG3RC1
   64   126	 1 ;      CG3C41       HGA2
   64   127	 1 ;      CG3C41       HGA2
   64   109	 1 ;      CG3C41     OG3C51
   65    68	 1 ;      CG3RC1      CG311
   65   110	 1 ;      CG3RC1      OG302
   66    67	 1 ;       CG2O2      CG331
   66   111	 1 ;       CG2O2      OG2D1
   66   110	 1 ;       CG2O2      OG302
   67   128	 1 ;       CG331       HGA3
   67   129	 1 ;       CG331       HGA3
   67   130	 1 ;       CG331       HGA3
   68    69	 1 ;       CG311      CG311
   68   103	 1 ;       CG311      CG301
   68   131	 1 ;       CG311       HGA1
   69    77	 1 ;       CG311      CG301
   69   112	 1 ;       CG311      OG302
   69   132	 1 ;       CG311       HGA1
   70    71	 1 ;       CG2O2     CG2R61
   70   113	 1 ;       CG2O2      OG2D1
   70   112	 1 ;       CG2O2      OG302
   71    72	 1 ;      CG2R61     CG2R61
   71    76	 1 ;      CG2R61     CG2R61
   72    73	 1 ;      CG2R61     CG2R61
   72   133	 1 ;      CG2R61      HGR61
   73    74	 1 ;      CG2R61     CG2R61
   73   134	 1 ;      CG2R61      HGR61
   74    75	 1 ;      CG2R61     CG2R61
   74   135	 1 ;      CG2R61      HGR61
   75    76	 1 ;      CG2R61     CG2R61
   75   136	 1 ;      CG2R61      HGR61
   76   137	 1 ;      CG2R61      HGR61
   77    78	 1 ;       CG301      CG321
   77   105	 1 ;       CG301      CG301
   77   114	 1 ;       CG301      OG311
   78    79	 1 ;       CG321      CG311
   78   139	 1 ;       CG321       HGA2
   78   140	 1 ;       CG321       HGA2
   79    96	 1 ;       CG311      CG2D1
   79   115	 1 ;       CG311      OG302
   79   141	 1 ;       CG311       HGA1
   80    81	 1 ;       CG2O2      CG311
   80   116	 1 ;       CG2O2      OG2D1
   80   115	 1 ;       CG2O2      OG302
   81    82	 1 ;       CG311      CG311
   81   117	 1 ;       CG311      OG311
   81   142	 1 ;       CG311       HGA1
   82    90	 1 ;       CG311     CG2R61
   82   144	 1 ;       CG311       HGA1
   83    84	 1 ;       CG2O1     CG2R61
   83   118	 1 ;       CG2O1      OG2D1
   84    85	 1 ;      CG2R61     CG2R61
   84    89	 1 ;      CG2R61     CG2R61
   85    86	 1 ;      CG2R61     CG2R61
   85   146	 1 ;      CG2R61      HGR61
   86    87	 1 ;      CG2R61     CG2R61
   86   147	 1 ;      CG2R61      HGR61
   87    88	 1 ;      CG2R61     CG2R61
   87   148	 1 ;      CG2R61      HGR61
   88    89	 1 ;      CG2R61     CG2R61
   88   149	 1 ;      CG2R61      HGR61
   89   150	 1 ;      CG2R61      HGR61
   90    91	 1 ;      CG2R61     CG2R61
   90    95	 1 ;      CG2R61     CG2R61
   91    92	 1 ;      CG2R61     CG2R61
   91   151	 1 ;      CG2R61      HGR61
   92    93	 1 ;      CG2R61     CG2R61
   92   152	 1 ;      CG2R61      HGR61
   93    94	 1 ;      CG2R61     CG2R61
   93   153	 1 ;      CG2R61      HGR61
   94    95	 1 ;      CG2R61     CG2R61
   94   154	 1 ;      CG2R61      HGR61
   95   155	 1 ;      CG2R61      HGR61
   96    97	 1 ;       CG2D1      CG331
   96    98	 1 ;       CG2D1      CG2D1
   97   156	 1 ;       CG331       HGA3
   97   157	 1 ;       CG331       HGA3
   97   158	 1 ;       CG331       HGA3
   98    99	 1 ;       CG2D1      CG311
   98   105	 1 ;       CG2D1      CG301
   99   102	 1 ;       CG311      CG2O5
   99   119	 1 ;       CG311      OG302
   99   159	 1 ;       CG311       HGA1
  100   101	 1 ;       CG2O2      CG331
  100   120	 1 ;       CG2O2      OG2D1
  100   119	 1 ;       CG2O2      OG302
  101   160	 1 ;       CG331       HGA3
  101   161	 1 ;       CG331       HGA3
  101   162	 1 ;       CG331       HGA3
  102   103	 1 ;       CG2O5      CG301
  102   121	 1 ;       CG2O5      OG2D3
  103   104	 1 ;       CG301      CG331
  104   163	 1 ;       CG331       HGA3
  104   164	 1 ;       CG331       HGA3
  104   165	 1 ;       CG331       HGA3
  105   106	 1 ;       CG301      CG331
  105   107	 1 ;       CG301      CG331
  106   166	 1 ;       CG331       HGA3
  106   167	 1 ;       CG331       HGA3
  106   168	 1 ;       CG331       HGA3
  107   169	 1 ;       CG331       HGA3
  107   170	 1 ;       CG331       HGA3
  107   171	 1 ;       CG331       HGA3
  114   138	 1 ;       OG311       HGP1
  117   143	 1 ;       OG311       HGP1

[ pairs ]
;	ai	  aj funct			  c0			c1			  c2			c3
    1     4	 1
    1    26	 1
    1    27	 1
    2     5	 1
    2    28	 1
    2    29	 1
    3    21	 1
    3    22	 1
    3    23	 1
    3     6	 1
    3    30	 1
    3    31	 1
    4    24	 1
    4    25	 1
    4     7	 1
    4    32	 1
    4    33	 1
    5    26	 1
    5    27	 1
    5     8	 1
    5    34	 1
    5    35	 1
    6    28	 1
    6    29	 1
    6     9	 1
    6    36	 1
    6    37	 1
    7    30	 1
    7    31	 1
    7    10	 1
    7    38	 1
    7    39	 1
    8    32	 1
    8    33	 1
    8    11	 1
    8    40	 1
    8    41	 1
    9    34	 1
    9    35	 1
    9    12	 1
    9    42	 1
    9    43	 1
   10    36	 1
   10    37	 1
   10    13	 1
   10    44	 1
   10    45	 1
   11    38	 1
   11    39	 1
   11    14	 1
   11    46	 1
   11    47	 1
   12    40	 1
   12    41	 1
   12    15	 1
   12    48	 1
   12    49	 1
   13    42	 1
   13    43	 1
   13    16	 1
   13    20	 1
   13    50	 1
   14    44	 1
   14    45	 1
   14    51	 1
   14    52	 1
   14    53	 1
   14    17	 1
   15    46	 1
   15    47	 1
   15    18	 1
   15    19	 1
   15   108	 1
   16    48	 1
   16    49	 1
   16    17	 1
   17    50	 1
   17    62	 1
   17   103	 1
   17   122	 1
   18    57	 1
   18    58	 1
   18    59	 1
   18    61	 1
   19    54	 1
   19    55	 1
   19    56	 1
   19    61	 1
   20    48	 1
   20    49	 1
   20    51	 1
   20    52	 1
   20    53	 1
   20    54	 1
   20    55	 1
   20    56	 1
   20    57	 1
   20    58	 1
   20    59	 1
   20    61	 1
   21    24	 1
   21    25	 1
   22    24	 1
   22    25	 1
   23    24	 1
   23    25	 1
   24    26	 1
   24    27	 1
   25    26	 1
   25    27	 1
   26    28	 1
   26    29	 1
   27    28	 1
   27    29	 1
   28    30	 1
   28    31	 1
   29    30	 1
   29    31	 1
   30    32	 1
   30    33	 1
   31    32	 1
   31    33	 1
   32    34	 1
   32    35	 1
   33    34	 1
   33    35	 1
   34    36	 1
   34    37	 1
   35    36	 1
   35    37	 1
   36    38	 1
   36    39	 1
   37    38	 1
   37    39	 1
   38    40	 1
   38    41	 1
   39    40	 1
   39    41	 1
   40    42	 1
   40    43	 1
   41    42	 1
   41    43	 1
   42    44	 1
   42    45	 1
   43    44	 1
   43    45	 1
   44    46	 1
   44    47	 1
   45    46	 1
   45    47	 1
   46    48	 1
   46    49	 1
   47    48	 1
   47    49	 1
   48    50	 1
   49    50	 1
   50    51	 1
   50    52	 1
   50    53	 1
   54   108	 1
   55   108	 1
   56   108	 1
   57   108	 1
   58   108	 1
   59   108	 1
   60    80	 1
   60   117	 1
   60   142	 1
   60    91	 1
   60    95	 1
   60    85	 1
   60    89	 1
   61    65	 1
   61   109	 1
   61   125	 1
   61    69	 1
   61   131	 1
   61    99	 1
   61   121	 1
   61   163	 1
   61   164	 1
   61   165	 1
   62    68	 1
   62   102	 1
   62   104	 1
   62    64	 1
   62   110	 1
   63   103	 1
   63   122	 1
   63   108	 1
   63   126	 1
   63   127	 1
   63    69	 1
   63   131	 1
   63    66	 1
   64   125	 1
   64    69	 1
   64   103	 1
   64   131	 1
   64    66	 1
   65   123	 1
   65   124	 1
   65    67	 1
   65   111	 1
   65    77	 1
   65   112	 1
   65   132	 1
   65   102	 1
   65   104	 1
   66    68	 1
   68   122	 1
   68   108	 1
   68   109	 1
   68   125	 1
   68   126	 1
   68   127	 1
   68    78	 1
   68   105	 1
   68   114	 1
   68    70	 1
   68    99	 1
   68   121	 1
   68   163	 1
   68   164	 1
   68   165	 1
   69   110	 1
   69   102	 1
   69   104	 1
   69    71	 1
   69   113	 1
   69    79	 1
   69   139	 1
   69   140	 1
   69    98	 1
   69   106	 1
   69   107	 1
   69   138	 1
   70    77	 1
   70   132	 1
   70    73	 1
   70   133	 1
   70    75	 1
   70   137	 1
   71    74	 1
   71   134	 1
   71   136	 1
   72   113	 1
   72   112	 1
   72    75	 1
   72   137	 1
   72   135	 1
   73    76	 1
   73   136	 1
   74   133	 1
   74   137	 1
   75   134	 1
   76   113	 1
   76   112	 1
   76   133	 1
   76   135	 1
   77   103	 1
   77   131	 1
   77    96	 1
   77   115	 1
   77   141	 1
   77    99	 1
   77   166	 1
   77   167	 1
   77   168	 1
   77   169	 1
   77   170	 1
   77   171	 1
   78   112	 1
   78   132	 1
   78    98	 1
   78   106	 1
   78   107	 1
   78   138	 1
   78    97	 1
   78    80	 1
   79   105	 1
   79   114	 1
   79    81	 1
   79   116	 1
   79   156	 1
   79   157	 1
   79   158	 1
   79    99	 1
   80    96	 1
   80   141	 1
   80    90	 1
   80   144	 1
   80   143	 1
   81    83	 1
   81   145	 1
   81    91	 1
   81    95	 1
   82    84	 1
   82   118	 1
   82   116	 1
   82   115	 1
   82   143	 1
   82    92	 1
   82   151	 1
   82    94	 1
   82   155	 1
   83    90	 1
   83   144	 1
   83    86	 1
   83   146	 1
   83    88	 1
   83   150	 1
   84   145	 1
   84    87	 1
   84   147	 1
   84   149	 1
   85   118	 1
   85    88	 1
   85   150	 1
   85   148	 1
   86    89	 1
   86   149	 1
   87   146	 1
   87   150	 1
   88   147	 1
   89   118	 1
   89   146	 1
   89   148	 1
   90   145	 1
   90   117	 1
   90   142	 1
   90    93	 1
   90   152	 1
   90   154	 1
   91   144	 1
   91    94	 1
   91   155	 1
   91   153	 1
   92    95	 1
   92   154	 1
   93   151	 1
   93   155	 1
   94   152	 1
   95   144	 1
   95   151	 1
   95   153	 1
   96   139	 1
   96   140	 1
   96   102	 1
   96   119	 1
   96   159	 1
   96   106	 1
   96   107	 1
   97   115	 1
   97   141	 1
   97    99	 1
   97   105	 1
   98   114	 1
   98   115	 1
   98   141	 1
   98   156	 1
   98   157	 1
   98   158	 1
   98   103	 1
   98   121	 1
   98   100	 1
   98   166	 1
   98   167	 1
   98   168	 1
   98   169	 1
   98   170	 1
   98   171	 1
   99   106	 1
   99   107	 1
   99   101	 1
   99   120	 1
   99   104	 1
  100   102	 1
  100   159	 1
  102   122	 1
  102   108	 1
  102   131	 1
  102   105	 1
  102   163	 1
  102   164	 1
  102   165	 1
  103   123	 1
  103   124	 1
  103   110	 1
  103   112	 1
  103   132	 1
  103   119	 1
  103   159	 1
  104   122	 1
  104   108	 1
  104   131	 1
  104   121	 1
  105   112	 1
  105   132	 1
  105   139	 1
  105   140	 1
  105   138	 1
  105   119	 1
  105   159	 1
  106   114	 1
  106   169	 1
  106   170	 1
  106   171	 1
  107   114	 1
  107   166	 1
  107   167	 1
  107   168	 1
  108   123	 1
  108   124	 1
  109   123	 1
  109   124	 1
  109   110	 1
  110   125	 1
  110   126	 1
  110   127	 1
  110   131	 1
  110   128	 1
  110   129	 1
  110   130	 1
  111   128	 1
  111   129	 1
  111   130	 1
  112   131	 1
  112   114	 1
  114   132	 1
  114   139	 1
  114   140	 1
  115   139	 1
  115   140	 1
  115   117	 1
  115   142	 1
  116   117	 1
  116   142	 1
  117   144	 1
  118   145	 1
  119   121	 1
  119   160	 1
  119   161	 1
  119   162	 1
  120   160	 1
  120   161	 1
  120   162	 1
  121   159	 1
  122   123	 1
  122   124	 1
  123   125	 1
  124   125	 1
  131   132	 1
  133   134	 1
  134   135	 1
  135   136	 1
  136   137	 1
  139   141	 1
  140   141	 1
  142   144	 1
  142   143	 1
  144   145	 1
  146   147	 1
  147   148	 1
  148   149	 1
  149   150	 1
  151   152	 1
  152   153	 1
  153   154	 1
  154   155	 1

[ angles ]
;	ai	  aj	ak funct			c0			  c1			c2			  c3
    2     1    21	5 ;      CG321      CG331       HGA3
    2     1    22	5 ;      CG321      CG331       HGA3
    2     1    23	5 ;      CG321      CG331       HGA3
   21     1    22	5 ;       HGA3      CG331       HGA3
   21     1    23	5 ;       HGA3      CG331       HGA3
   22     1    23	5 ;       HGA3      CG331       HGA3
    1     2     3	5 ;      CG331      CG321      CG321
    1     2    24	5 ;      CG331      CG321       HGA2
    1     2    25	5 ;      CG331      CG321       HGA2
    3     2    24	5 ;      CG321      CG321       HGA2
    3     2    25	5 ;      CG321      CG321       HGA2
   24     2    25	5 ;       HGA2      CG321       HGA2
    2     3     4	5 ;      CG321      CG321      CG321
    2     3    26	5 ;      CG321      CG321       HGA2
    2     3    27	5 ;      CG321      CG321       HGA2
    4     3    26	5 ;      CG321      CG321       HGA2
    4     3    27	5 ;      CG321      CG321       HGA2
   26     3    27	5 ;       HGA2      CG321       HGA2
    3     4     5	5 ;      CG321      CG321      CG321
    3     4    28	5 ;      CG321      CG321       HGA2
    3     4    29	5 ;      CG321      CG321       HGA2
    5     4    28	5 ;      CG321      CG321       HGA2
    5     4    29	5 ;      CG321      CG321       HGA2
   28     4    29	5 ;       HGA2      CG321       HGA2
    4     5     6	5 ;      CG321      CG321      CG321
    4     5    30	5 ;      CG321      CG321       HGA2
    4     5    31	5 ;      CG321      CG321       HGA2
    6     5    30	5 ;      CG321      CG321       HGA2
    6     5    31	5 ;      CG321      CG321       HGA2
   30     5    31	5 ;       HGA2      CG321       HGA2
    5     6     7	5 ;      CG321      CG321      CG321
    5     6    32	5 ;      CG321      CG321       HGA2
    5     6    33	5 ;      CG321      CG321       HGA2
    7     6    32	5 ;      CG321      CG321       HGA2
    7     6    33	5 ;      CG321      CG321       HGA2
   32     6    33	5 ;       HGA2      CG321       HGA2
    6     7     8	5 ;      CG321      CG321      CG321
    6     7    34	5 ;      CG321      CG321       HGA2
    6     7    35	5 ;      CG321      CG321       HGA2
    8     7    34	5 ;      CG321      CG321       HGA2
    8     7    35	5 ;      CG321      CG321       HGA2
   34     7    35	5 ;       HGA2      CG321       HGA2
    7     8     9	5 ;      CG321      CG321      CG321
    7     8    36	5 ;      CG321      CG321       HGA2
    7     8    37	5 ;      CG321      CG321       HGA2
    9     8    36	5 ;      CG321      CG321       HGA2
    9     8    37	5 ;      CG321      CG321       HGA2
   36     8    37	5 ;       HGA2      CG321       HGA2
    8     9    10	5 ;      CG321      CG321      CG321
    8     9    38	5 ;      CG321      CG321       HGA2
    8     9    39	5 ;      CG321      CG321       HGA2
   10     9    38	5 ;      CG321      CG321       HGA2
   10     9    39	5 ;      CG321      CG321       HGA2
   38     9    39	5 ;       HGA2      CG321       HGA2
    9    10    11	5 ;      CG321      CG321      CG321
    9    10    40	5 ;      CG321      CG321       HGA2
    9    10    41	5 ;      CG321      CG321       HGA2
   11    10    40	5 ;      CG321      CG321       HGA2
   11    10    41	5 ;      CG321      CG321       HGA2
   40    10    41	5 ;       HGA2      CG321       HGA2
   10    11    12	5 ;      CG321      CG321      CG321
   10    11    42	5 ;      CG321      CG321       HGA2
   10    11    43	5 ;      CG321      CG321       HGA2
   12    11    42	5 ;      CG321      CG321       HGA2
   12    11    43	5 ;      CG321      CG321       HGA2
   42    11    43	5 ;       HGA2      CG321       HGA2
   11    12    13	5 ;      CG321      CG321      CG321
   11    12    44	5 ;      CG321      CG321       HGA2
   11    12    45	5 ;      CG321      CG321       HGA2
   13    12    44	5 ;      CG321      CG321       HGA2
   13    12    45	5 ;      CG321      CG321       HGA2
   44    12    45	5 ;       HGA2      CG321       HGA2
   12    13    14	5 ;      CG321      CG321      CG321
   12    13    46	5 ;      CG321      CG321       HGA2
   12    13    47	5 ;      CG321      CG321       HGA2
   14    13    46	5 ;      CG321      CG321       HGA2
   14    13    47	5 ;      CG321      CG321       HGA2
   46    13    47	5 ;       HGA2      CG321       HGA2
   13    14    15	5 ;      CG321      CG321      CG311
   13    14    48	5 ;      CG321      CG321       HGA2
   13    14    49	5 ;      CG321      CG321       HGA2
   15    14    48	5 ;      CG311      CG321       HGA2
   15    14    49	5 ;      CG311      CG321       HGA2
   48    14    49	5 ;       HGA2      CG321       HGA2
   14    15    16	5 ;      CG321      CG311      CG331
   14    15    20	5 ;      CG321      CG311      OG301
   14    15    50	5 ;      CG321      CG311       HGA1
   16    15    20	5 ;      CG331      CG311      OG301
   16    15    50	5 ;      CG331      CG311       HGA1
   20    15    50	5 ;      OG301      CG311       HGA1
   15    16    51	5 ;      CG311      CG331       HGA3
   15    16    52	5 ;      CG311      CG331       HGA3
   15    16    53	5 ;      CG311      CG331       HGA3
   51    16    52	5 ;       HGA3      CG331       HGA3
   51    16    53	5 ;       HGA3      CG331       HGA3
   52    16    53	5 ;       HGA3      CG331       HGA3
   18    17    19	5 ;      CG331      CG301      CG331
   18    17   108	5 ;      CG331      CG301      OG301
   18    17    20	5 ;      CG331      CG301      OG301
   19    17   108	5 ;      CG331      CG301      OG301
   19    17    20	5 ;      CG331      CG301      OG301
  108    17    20	5 ;      OG301      CG301      OG301
   17    18    54	5 ;      CG301      CG331       HGA3
   17    18    55	5 ;      CG301      CG331       HGA3
   17    18    56	5 ;      CG301      CG331       HGA3
   54    18    55	5 ;       HGA3      CG331       HGA3
   54    18    56	5 ;       HGA3      CG331       HGA3
   55    18    56	5 ;       HGA3      CG331       HGA3
   17    19    57	5 ;      CG301      CG331       HGA3
   17    19    58	5 ;      CG301      CG331       HGA3
   17    19    59	5 ;      CG301      CG331       HGA3
   57    19    58	5 ;       HGA3      CG331       HGA3
   57    19    59	5 ;       HGA3      CG331       HGA3
   58    19    59	5 ;       HGA3      CG331       HGA3
   15    20    17	5 ;      CG311      OG301      CG301
   83    60   145	5 ;      CG2O1      NG2S1       HGP1
   83    60    82	5 ;      CG2O1      NG2S1      CG311
  145    60    82	5 ;       HGP1      NG2S1      CG311
   62    61   103	5 ;      CG321      CG311      CG301
   62    61   122	5 ;      CG321      CG311       HGA1
   62    61   108	5 ;      CG321      CG311      OG301
  103    61   122	5 ;      CG301      CG311       HGA1
  103    61   108	5 ;      CG301      CG311      OG301
  122    61   108	5 ;       HGA1      CG311      OG301
   61    62    63	5 ;      CG311      CG321     CG3RC1
   61    62   123	5 ;      CG311      CG321       HGA2
   61    62   124	5 ;      CG311      CG321       HGA2
   63    62   123	5 ;     CG3RC1      CG321       HGA2
   63    62   124	5 ;     CG3RC1      CG321       HGA2
  123    62   124	5 ;       HGA2      CG321       HGA2
   62    63    65	5 ;      CG321     CG3RC1     CG3RC1
   62    63   109	5 ;      CG321     CG3RC1     OG3C51
   62    63   125	5 ;      CG321     CG3RC1       HGA1
   65    63   109	5 ;     CG3RC1     CG3RC1     OG3C51
   65    63   125	5 ;     CG3RC1     CG3RC1       HGA1
  109    63   125	5 ;     OG3C51     CG3RC1       HGA1
   65    64   126	5 ;     CG3RC1     CG3C41       HGA2
   65    64   127	5 ;     CG3RC1     CG3C41       HGA2
   65    64   109	5 ;     CG3RC1     CG3C41     OG3C51
  126    64   127	5 ;       HGA2     CG3C41       HGA2
  126    64   109	5 ;       HGA2     CG3C41     OG3C51
  127    64   109	5 ;       HGA2     CG3C41     OG3C51
   63    65    64	5 ;     CG3RC1     CG3RC1     CG3C41
   63    65    68	5 ;     CG3RC1     CG3RC1      CG311
   63    65   110	5 ;     CG3RC1     CG3RC1      OG302
   64    65    68	5 ;     CG3C41     CG3RC1      CG311
   64    65   110	5 ;     CG3C41     CG3RC1      OG302
   68    65   110	5 ;      CG311     CG3RC1      OG302
   67    66   111	5 ;      CG331      CG2O2      OG2D1
   67    66   110	5 ;      CG331      CG2O2      OG302
  111    66   110	5 ;      OG2D1      CG2O2      OG302
   66    67   128	5 ;      CG2O2      CG331       HGA3
   66    67   129	5 ;      CG2O2      CG331       HGA3
   66    67   130	5 ;      CG2O2      CG331       HGA3
  128    67   129	5 ;       HGA3      CG331       HGA3
  128    67   130	5 ;       HGA3      CG331       HGA3
  129    67   130	5 ;       HGA3      CG331       HGA3
   65    68    69	5 ;     CG3RC1      CG311      CG311
   65    68   103	5 ;     CG3RC1      CG311      CG301
   65    68   131	5 ;     CG3RC1      CG311       HGA1
   69    68   103	5 ;      CG311      CG311      CG301
   69    68   131	5 ;      CG311      CG311       HGA1
  103    68   131	5 ;      CG301      CG311       HGA1
   68    69    77	5 ;      CG311      CG311      CG301
   68    69   112	5 ;      CG311      CG311      OG302
   68    69   132	5 ;      CG311      CG311       HGA1
   77    69   112	5 ;      CG301      CG311      OG302
   77    69   132	5 ;      CG301      CG311       HGA1
  112    69   132	5 ;      OG302      CG311       HGA1
   71    70   113	5 ;     CG2R61      CG2O2      OG2D1
   71    70   112	5 ;     CG2R61      CG2O2      OG302
  113    70   112	5 ;      OG2D1      CG2O2      OG302
   70    71    72	5 ;      CG2O2     CG2R61     CG2R61
   70    71    76	5 ;      CG2O2     CG2R61     CG2R61
   72    71    76	5 ;     CG2R61     CG2R61     CG2R61
   71    72    73	5 ;     CG2R61     CG2R61     CG2R61
   71    72   133	5 ;     CG2R61     CG2R61      HGR61
   73    72   133	5 ;     CG2R61     CG2R61      HGR61
   72    73    74	5 ;     CG2R61     CG2R61     CG2R61
   72    73   134	5 ;     CG2R61     CG2R61      HGR61
   74    73   134	5 ;     CG2R61     CG2R61      HGR61
   73    74    75	5 ;     CG2R61     CG2R61     CG2R61
   73    74   135	5 ;     CG2R61     CG2R61      HGR61
   75    74   135	5 ;     CG2R61     CG2R61      HGR61
   74    75    76	5 ;     CG2R61     CG2R61     CG2R61
   74    75   136	5 ;     CG2R61     CG2R61      HGR61
   76    75   136	5 ;     CG2R61     CG2R61      HGR61
   71    76    75	5 ;     CG2R61     CG2R61     CG2R61
   71    76   137	5 ;     CG2R61     CG2R61      HGR61
   75    76   137	5 ;     CG2R61     CG2R61      HGR61
   69    77    78	5 ;      CG311      CG301      CG321
   69    77   105	5 ;      CG311      CG301      CG301
   69    77   114	5 ;      CG311      CG301      OG311
   78    77   105	5 ;      CG321      CG301      CG301
   78    77   114	5 ;      CG321      CG301      OG311
  105    77   114	5 ;      CG301      CG301      OG311
   77    78    79	5 ;      CG301      CG321      CG311
   77    78   139	5 ;      CG301      CG321       HGA2
   77    78   140	5 ;      CG301      CG321       HGA2
   79    78   139	5 ;      CG311      CG321       HGA2
   79    78   140	5 ;      CG311      CG321       HGA2
  139    78   140	5 ;       HGA2      CG321       HGA2
   78    79    96	5 ;      CG321      CG311      CG2D1
   78    79   115	5 ;      CG321      CG311      OG302
   78    79   141	5 ;      CG321      CG311       HGA1
   96    79   115	5 ;      CG2D1      CG311      OG302
   96    79   141	5 ;      CG2D1      CG311       HGA1
  115    79   141	5 ;      OG302      CG311       HGA1
   81    80   116	5 ;      CG311      CG2O2      OG2D1
   81    80   115	5 ;      CG311      CG2O2      OG302
  116    80   115	5 ;      OG2D1      CG2O2      OG302
   80    81    82	5 ;      CG2O2      CG311      CG311
   80    81   117	5 ;      CG2O2      CG311      OG311
   80    81   142	5 ;      CG2O2      CG311       HGA1
   82    81   117	5 ;      CG311      CG311      OG311
   82    81   142	5 ;      CG311      CG311       HGA1
  117    81   142	5 ;      OG311      CG311       HGA1
   81    82    60	5 ;      CG311      CG311      NG2S1
   81    82    90	5 ;      CG311      CG311     CG2R61
   81    82   144	5 ;      CG311      CG311       HGA1
   60    82    90	5 ;      NG2S1      CG311     CG2R61
   60    82   144	5 ;      NG2S1      CG311       HGA1
   90    82   144	5 ;     CG2R61      CG311       HGA1
   60    83    84	5 ;      NG2S1      CG2O1     CG2R61
   60    83   118	5 ;      NG2S1      CG2O1      OG2D1
   84    83   118	5 ;     CG2R61      CG2O1      OG2D1
   83    84    85	5 ;      CG2O1     CG2R61     CG2R61
   83    84    89	5 ;      CG2O1     CG2R61     CG2R61
   85    84    89	5 ;     CG2R61     CG2R61     CG2R61
   84    85    86	5 ;     CG2R61     CG2R61     CG2R61
   84    85   146	5 ;     CG2R61     CG2R61      HGR61
   86    85   146	5 ;     CG2R61     CG2R61      HGR61
   85    86    87	5 ;     CG2R61     CG2R61     CG2R61
   85    86   147	5 ;     CG2R61     CG2R61      HGR61
   87    86   147	5 ;     CG2R61     CG2R61      HGR61
   86    87    88	5 ;     CG2R61     CG2R61     CG2R61
   86    87   148	5 ;     CG2R61     CG2R61      HGR61
   88    87   148	5 ;     CG2R61     CG2R61      HGR61
   87    88    89	5 ;     CG2R61     CG2R61     CG2R61
   87    88   149	5 ;     CG2R61     CG2R61      HGR61
   89    88   149	5 ;     CG2R61     CG2R61      HGR61
   84    89    88	5 ;     CG2R61     CG2R61     CG2R61
   84    89   150	5 ;     CG2R61     CG2R61      HGR61
   88    89   150	5 ;     CG2R61     CG2R61      HGR61
   82    90    91	5 ;      CG311     CG2R61     CG2R61
   82    90    95	5 ;      CG311     CG2R61     CG2R61
   91    90    95	5 ;     CG2R61     CG2R61     CG2R61
   90    91    92	5 ;     CG2R61     CG2R61     CG2R61
   90    91   151	5 ;     CG2R61     CG2R61      HGR61
   92    91   151	5 ;     CG2R61     CG2R61      HGR61
   91    92    93	5 ;     CG2R61     CG2R61     CG2R61
   91    92   152	5 ;     CG2R61     CG2R61      HGR61
   93    92   152	5 ;     CG2R61     CG2R61      HGR61
   92    93    94	5 ;     CG2R61     CG2R61     CG2R61
   92    93   153	5 ;     CG2R61     CG2R61      HGR61
   94    93   153	5 ;     CG2R61     CG2R61      HGR61
   93    94    95	5 ;     CG2R61     CG2R61     CG2R61
   93    94   154	5 ;     CG2R61     CG2R61      HGR61
   95    94   154	5 ;     CG2R61     CG2R61      HGR61
   90    95    94	5 ;     CG2R61     CG2R61     CG2R61
   90    95   155	5 ;     CG2R61     CG2R61      HGR61
   94    95   155	5 ;     CG2R61     CG2R61      HGR61
   79    96    97	5 ;      CG311      CG2D1      CG331
   79    96    98	5 ;      CG311      CG2D1      CG2D1
   97    96    98	5 ;      CG331      CG2D1      CG2D1
   96    97   156	5 ;      CG2D1      CG331       HGA3
   96    97   157	5 ;      CG2D1      CG331       HGA3
   96    97   158	5 ;      CG2D1      CG331       HGA3
  156    97   157	5 ;       HGA3      CG331       HGA3
  156    97   158	5 ;       HGA3      CG331       HGA3
  157    97   158	5 ;       HGA3      CG331       HGA3
   96    98    99	5 ;      CG2D1      CG2D1      CG311
   96    98   105	5 ;      CG2D1      CG2D1      CG301
   99    98   105	5 ;      CG311      CG2D1      CG301
   98    99   102	5 ;      CG2D1      CG311      CG2O5
   98    99   119	5 ;      CG2D1      CG311      OG302
   98    99   159	5 ;      CG2D1      CG311       HGA1
  102    99   119	5 ;      CG2O5      CG311      OG302
  102    99   159	5 ;      CG2O5      CG311       HGA1
  119    99   159	5 ;      OG302      CG311       HGA1
  101   100   120	5 ;      CG331      CG2O2      OG2D1
  101   100   119	5 ;      CG331      CG2O2      OG302
  120   100   119	5 ;      OG2D1      CG2O2      OG302
  100   101   160	5 ;      CG2O2      CG331       HGA3
  100   101   161	5 ;      CG2O2      CG331       HGA3
  100   101   162	5 ;      CG2O2      CG331       HGA3
  160   101   161	5 ;       HGA3      CG331       HGA3
  160   101   162	5 ;       HGA3      CG331       HGA3
  161   101   162	5 ;       HGA3      CG331       HGA3
   99   102   103	5 ;      CG311      CG2O5      CG301
   99   102   121	5 ;      CG311      CG2O5      OG2D3
  103   102   121	5 ;      CG301      CG2O5      OG2D3
   61   103    68	5 ;      CG311      CG301      CG311
   61   103   102	5 ;      CG311      CG301      CG2O5
   61   103   104	5 ;      CG311      CG301      CG331
   68   103   102	5 ;      CG311      CG301      CG2O5
   68   103   104	5 ;      CG311      CG301      CG331
  102   103   104	5 ;      CG2O5      CG301      CG331
  103   104   163	5 ;      CG301      CG331       HGA3
  103   104   164	5 ;      CG301      CG331       HGA3
  103   104   165	5 ;      CG301      CG331       HGA3
  163   104   164	5 ;       HGA3      CG331       HGA3
  163   104   165	5 ;       HGA3      CG331       HGA3
  164   104   165	5 ;       HGA3      CG331       HGA3
   77   105    98	5 ;      CG301      CG301      CG2D1
   77   105   106	5 ;      CG301      CG301      CG331
   77   105   107	5 ;      CG301      CG301      CG331
   98   105   106	5 ;      CG2D1      CG301      CG331
   98   105   107	5 ;      CG2D1      CG301      CG331
  106   105   107	5 ;      CG331      CG301      CG331
  105   106   166	5 ;      CG301      CG331       HGA3
  105   106   167	5 ;      CG301      CG331       HGA3
  105   106   168	5 ;      CG301      CG331       HGA3
  166   106   167	5 ;       HGA3      CG331       HGA3
  166   106   168	5 ;       HGA3      CG331       HGA3
  167   106   168	5 ;       HGA3      CG331       HGA3
  105   107   169	5 ;      CG301      CG331       HGA3
  105   107   170	5 ;      CG301      CG331       HGA3
  105   107   171	5 ;      CG301      CG331       HGA3
  169   107   170	5 ;       HGA3      CG331       HGA3
  169   107   171	5 ;       HGA3      CG331       HGA3
  170   107   171	5 ;       HGA3      CG331       HGA3
   17   108    61	5 ;      CG301      OG301      CG311
   63   109    64	5 ;     CG3RC1     OG3C51     CG3C41
   65   110    66	5 ;     CG3RC1      OG302      CG2O2
   69   112    70	5 ;      CG311      OG302      CG2O2
   77   114   138	5 ;      CG301      OG311       HGP1
   79   115    80	5 ;      CG311      OG302      CG2O2
   81   117   143	5 ;      CG311      OG311       HGP1
   99   119   100	5 ;      CG311      OG302      CG2O2

[ dihedrals ]
;	ai	  aj	ak	  al funct			  c0			c1			  c2			c3			  c4			c5
   21     1     2     3	 9 ;       HGA3      CG331      CG321      CG321
   21     1     2    24	 9 ;       HGA3      CG331      CG321       HGA2
   21     1     2    25	 9 ;       HGA3      CG331      CG321       HGA2
   22     1     2     3	 9 ;       HGA3      CG331      CG321      CG321
   22     1     2    24	 9 ;       HGA3      CG331      CG321       HGA2
   22     1     2    25	 9 ;       HGA3      CG331      CG321       HGA2
   23     1     2     3	 9 ;       HGA3      CG331      CG321      CG321
   23     1     2    24	 9 ;       HGA3      CG331      CG321       HGA2
   23     1     2    25	 9 ;       HGA3      CG331      CG321       HGA2
    1     2     3     4	 9 ;      CG331      CG321      CG321      CG321
    1     2     3    26	 9 ;      CG331      CG321      CG321       HGA2
    1     2     3    27	 9 ;      CG331      CG321      CG321       HGA2
   24     2     3     4	 9 ;       HGA2      CG321      CG321      CG321
   24     2     3    26	 9 ;       HGA2      CG321      CG321       HGA2
   24     2     3    27	 9 ;       HGA2      CG321      CG321       HGA2
   25     2     3     4	 9 ;       HGA2      CG321      CG321      CG321
   25     2     3    26	 9 ;       HGA2      CG321      CG321       HGA2
   25     2     3    27	 9 ;       HGA2      CG321      CG321       HGA2
    2     3     4     5	 9 ;      CG321      CG321      CG321      CG321
    2     3     4    28	 9 ;      CG321      CG321      CG321       HGA2
    2     3     4    29	 9 ;      CG321      CG321      CG321       HGA2
   26     3     4     5	 9 ;       HGA2      CG321      CG321      CG321
   26     3     4    28	 9 ;       HGA2      CG321      CG321       HGA2
   26     3     4    29	 9 ;       HGA2      CG321      CG321       HGA2
   27     3     4     5	 9 ;       HGA2      CG321      CG321      CG321
   27     3     4    28	 9 ;       HGA2      CG321      CG321       HGA2
   27     3     4    29	 9 ;       HGA2      CG321      CG321       HGA2
    3     4     5     6	 9 ;      CG321      CG321      CG321      CG321
    3     4     5    30	 9 ;      CG321      CG321      CG321       HGA2
    3     4     5    31	 9 ;      CG321      CG321      CG321       HGA2
   28     4     5     6	 9 ;       HGA2      CG321      CG321      CG321
   28     4     5    30	 9 ;       HGA2      CG321      CG321       HGA2
   28     4     5    31	 9 ;       HGA2      CG321      CG321       HGA2
   29     4     5     6	 9 ;       HGA2      CG321      CG321      CG321
   29     4     5    30	 9 ;       HGA2      CG321      CG321       HGA2
   29     4     5    31	 9 ;       HGA2      CG321      CG321       HGA2
    4     5     6     7	 9 ;      CG321      CG321      CG321      CG321
    4     5     6    32	 9 ;      CG321      CG321      CG321       HGA2
    4     5     6    33	 9 ;      CG321      CG321      CG321       HGA2
   30     5     6     7	 9 ;       HGA2      CG321      CG321      CG321
   30     5     6    32	 9 ;       HGA2      CG321      CG321       HGA2
   30     5     6    33	 9 ;       HGA2      CG321      CG321       HGA2
   31     5     6     7	 9 ;       HGA2      CG321      CG321      CG321
   31     5     6    32	 9 ;       HGA2      CG321      CG321       HGA2
   31     5     6    33	 9 ;       HGA2      CG321      CG321       HGA2
    5     6     7     8	 9 ;      CG321      CG321      CG321      CG321
    5     6     7    34	 9 ;      CG321      CG321      CG321       HGA2
    5     6     7    35	 9 ;      CG321      CG321      CG321       HGA2
   32     6     7     8	 9 ;       HGA2      CG321      CG321      CG321
   32     6     7    34	 9 ;       HGA2      CG321      CG321       HGA2
   32     6     7    35	 9 ;       HGA2      CG321      CG321       HGA2
   33     6     7     8	 9 ;       HGA2      CG321      CG321      CG321
   33     6     7    34	 9 ;       HGA2      CG321      CG321       HGA2
   33     6     7    35	 9 ;       HGA2      CG321      CG321       HGA2
    6     7     8     9	 9 ;      CG321      CG321      CG321      CG321
    6     7     8    36	 9 ;      CG321      CG321      CG321       HGA2
    6     7     8    37	 9 ;      CG321      CG321      CG321       HGA2
   34     7     8     9	 9 ;       HGA2      CG321      CG321      CG321
   34     7     8    36	 9 ;       HGA2      CG321      CG321       HGA2
   34     7     8    37	 9 ;       HGA2      CG321      CG321       HGA2
   35     7     8     9	 9 ;       HGA2      CG321      CG321      CG321
   35     7     8    36	 9 ;       HGA2      CG321      CG321       HGA2
   35     7     8    37	 9 ;       HGA2      CG321      CG321       HGA2
    7     8     9    10	 9 ;      CG321      CG321      CG321      CG321
    7     8     9    38	 9 ;      CG321      CG321      CG321       HGA2
    7     8     9    39	 9 ;      CG321      CG321      CG321       HGA2
   36     8     9    10	 9 ;       HGA2      CG321      CG321      CG321
   36     8     9    38	 9 ;       HGA2      CG321      CG321       HGA2
   36     8     9    39	 9 ;       HGA2      CG321      CG321       HGA2
   37     8     9    10	 9 ;       HGA2      CG321      CG321      CG321
   37     8     9    38	 9 ;       HGA2      CG321      CG321       HGA2
   37     8     9    39	 9 ;       HGA2      CG321      CG321       HGA2
    8     9    10    11	 9 ;      CG321      CG321      CG321      CG321
    8     9    10    40	 9 ;      CG321      CG321      CG321       HGA2
    8     9    10    41	 9 ;      CG321      CG321      CG321       HGA2
   38     9    10    11	 9 ;       HGA2      CG321      CG321      CG321
   38     9    10    40	 9 ;       HGA2      CG321      CG321       HGA2
   38     9    10    41	 9 ;       HGA2      CG321      CG321       HGA2
   39     9    10    11	 9 ;       HGA2      CG321      CG321      CG321
   39     9    10    40	 9 ;       HGA2      CG321      CG321       HGA2
   39     9    10    41	 9 ;       HGA2      CG321      CG321       HGA2
    9    10    11    12	 9 ;      CG321      CG321      CG321      CG321
    9    10    11    42	 9 ;      CG321      CG321      CG321       HGA2
    9    10    11    43	 9 ;      CG321      CG321      CG321       HGA2
   40    10    11    12	 9 ;       HGA2      CG321      CG321      CG321
   40    10    11    42	 9 ;       HGA2      CG321      CG321       HGA2
   40    10    11    43	 9 ;       HGA2      CG321      CG321       HGA2
   41    10    11    12	 9 ;       HGA2      CG321      CG321      CG321
   41    10    11    42	 9 ;       HGA2      CG321      CG321       HGA2
   41    10    11    43	 9 ;       HGA2      CG321      CG321       HGA2
   10    11    12    13	 9 ;      CG321      CG321      CG321      CG321
   10    11    12    44	 9 ;      CG321      CG321      CG321       HGA2
   10    11    12    45	 9 ;      CG321      CG321      CG321       HGA2
   42    11    12    13	 9 ;       HGA2      CG321      CG321      CG321
   42    11    12    44	 9 ;       HGA2      CG321      CG321       HGA2
   42    11    12    45	 9 ;       HGA2      CG321      CG321       HGA2
   43    11    12    13	 9 ;       HGA2      CG321      CG321      CG321
   43    11    12    44	 9 ;       HGA2      CG321      CG321       HGA2
   43    11    12    45	 9 ;       HGA2      CG321      CG321       HGA2
   11    12    13    14	 9 ;      CG321      CG321      CG321      CG321
   11    12    13    46	 9 ;      CG321      CG321      CG321       HGA2
   11    12    13    47	 9 ;      CG321      CG321      CG321       HGA2
   44    12    13    14	 9 ;       HGA2      CG321      CG321      CG321
   44    12    13    46	 9 ;       HGA2      CG321      CG321       HGA2
   44    12    13    47	 9 ;       HGA2      CG321      CG321       HGA2
   45    12    13    14	 9 ;       HGA2      CG321      CG321      CG321
   45    12    13    46	 9 ;       HGA2      CG321      CG321       HGA2
   45    12    13    47	 9 ;       HGA2      CG321      CG321       HGA2
   12    13    14    15	 9 ;      CG321      CG321      CG321      CG311
   12    13    14    48	 9 ;      CG321      CG321      CG321       HGA2
   12    13    14    49	 9 ;      CG321      CG321      CG321       HGA2
   46    13    14    15	 9 ;       HGA2      CG321      CG321      CG311
   46    13    14    48	 9 ;       HGA2      CG321      CG321       HGA2
   46    13    14    49	 9 ;       HGA2      CG321      CG321       HGA2
   47    13    14    15	 9 ;       HGA2      CG321      CG321      CG311
   47    13    14    48	 9 ;       HGA2      CG321      CG321       HGA2
   47    13    14    49	 9 ;       HGA2      CG321      CG321       HGA2
   13    14    15    16	 9 ;      CG321      CG321      CG311      CG331
   13    14    15    20	 9 ;      CG321      CG321      CG311      OG301
   13    14    15    50	 9 ;      CG321      CG321      CG311       HGA1
   48    14    15    16	 9 ;       HGA2      CG321      CG311      CG331
   48    14    15    20	 9 ;       HGA2      CG321      CG311      OG301
   48    14    15    50	 9 ;       HGA2      CG321      CG311       HGA1
   49    14    15    16	 9 ;       HGA2      CG321      CG311      CG331
   49    14    15    20	 9 ;       HGA2      CG321      CG311      OG301
   49    14    15    50	 9 ;       HGA2      CG321      CG311       HGA1
   14    15    16    51	 9 ;      CG321      CG311      CG331       HGA3
   14    15    16    52	 9 ;      CG321      CG311      CG331       HGA3
   14    15    16    53	 9 ;      CG321      CG311      CG331       HGA3
   20    15    16    51	 9 ;      OG301      CG311      CG331       HGA3
   20    15    16    52	 9 ;      OG301      CG311      CG331       HGA3
   20    15    16    53	 9 ;      OG301      CG311      CG331       HGA3
   50    15    16    51	 9 ;       HGA1      CG311      CG331       HGA3
   50    15    16    52	 9 ;       HGA1      CG311      CG331       HGA3
   50    15    16    53	 9 ;       HGA1      CG311      CG331       HGA3
   14    15    20    17	 9 ;      CG321      CG311      OG301      CG301
   16    15    20    17	 9 ;      CG331      CG311      OG301      CG301
   50    15    20    17	 9 ;       HGA1      CG311      OG301      CG301
   19    17    18    54	 9 ;      CG331      CG301      CG331       HGA3
   19    17    18    55	 9 ;      CG331      CG301      CG331       HGA3
   19    17    18    56	 9 ;      CG331      CG301      CG331       HGA3
  108    17    18    54	 9 ;      OG301      CG301      CG331       HGA3
  108    17    18    55	 9 ;      OG301      CG301      CG331       HGA3
  108    17    18    56	 9 ;      OG301      CG301      CG331       HGA3
   20    17    18    54	 9 ;      OG301      CG301      CG331       HGA3
   20    17    18    55	 9 ;      OG301      CG301      CG331       HGA3
   20    17    18    56	 9 ;      OG301      CG301      CG331       HGA3
   18    17    19    57	 9 ;      CG331      CG301      CG331       HGA3
   18    17    19    58	 9 ;      CG331      CG301      CG331       HGA3
   18    17    19    59	 9 ;      CG331      CG301      CG331       HGA3
  108    17    19    57	 9 ;      OG301      CG301      CG331       HGA3
  108    17    19    58	 9 ;      OG301      CG301      CG331       HGA3
  108    17    19    59	 9 ;      OG301      CG301      CG331       HGA3
   20    17    19    57	 9 ;      OG301      CG301      CG331       HGA3
   20    17    19    58	 9 ;      OG301      CG301      CG331       HGA3
   20    17    19    59	 9 ;      OG301      CG301      CG331       HGA3
   18    17   108    61	 9 ;      CG331      CG301      OG301      CG311
   19    17   108    61	 9 ;      CG331      CG301      OG301      CG311
   20    17   108    61	 9 ;      OG301      CG301      OG301      CG311
   18    17    20    15	 9 ;      CG331      CG301      OG301      CG311
   19    17    20    15	 9 ;      CG331      CG301      OG301      CG311
  108    17    20    15	 9 ;      OG301      CG301      OG301      CG311
  145    60    83    84	 9 ;       HGP1      NG2S1      CG2O1     CG2R61
  145    60    83   118	 9 ;       HGP1      NG2S1      CG2O1      OG2D1
   82    60    83    84	 9 ;      CG311      NG2S1      CG2O1     CG2R61
   82    60    83   118	 9 ;      CG311      NG2S1      CG2O1      OG2D1
   83    60    82    81	 9 ;      CG2O1      NG2S1      CG311      CG311
   83    60    82    90	 9 ;      CG2O1      NG2S1      CG311     CG2R61
   83    60    82   144	 9 ;      CG2O1      NG2S1      CG311       HGA1
  145    60    82    81	 9 ;       HGP1      NG2S1      CG311      CG311
  145    60    82    90	 9 ;       HGP1      NG2S1      CG311     CG2R61
  145    60    82   144	 9 ;       HGP1      NG2S1      CG311       HGA1
  103    61    62    63	 9 ;      CG301      CG311      CG321     CG3RC1
  103    61    62   123	 9 ;      CG301      CG311      CG321       HGA2
  103    61    62   124	 9 ;      CG301      CG311      CG321       HGA2
  122    61    62    63	 9 ;       HGA1      CG311      CG321     CG3RC1
  122    61    62   123	 9 ;       HGA1      CG311      CG321       HGA2
  122    61    62   124	 9 ;       HGA1      CG311      CG321       HGA2
  108    61    62    63	 9 ;      OG301      CG311      CG321     CG3RC1
  108    61    62   123	 9 ;      OG301      CG311      CG321       HGA2
  108    61    62   124	 9 ;      OG301      CG311      CG321       HGA2
   62    61   103    68	 9 ;      CG321      CG311      CG301      CG311
   62    61   103   102	 9 ;      CG321      CG311      CG301      CG2O5
   62    61   103   104	 9 ;      CG321      CG311      CG301      CG331
  122    61   103    68	 9 ;       HGA1      CG311      CG301      CG311
  122    61   103   102	 9 ;       HGA1      CG311      CG301      CG2O5
  122    61   103   104	 9 ;       HGA1      CG311      CG301      CG331
  108    61   103    68	 9 ;      OG301      CG311      CG301      CG311
  108    61   103   102	 9 ;      OG301      CG311      CG301      CG2O5
  108    61   103   104	 9 ;      OG301      CG311      CG301      CG331
   62    61   108    17	 9 ;      CG321      CG311      OG301      CG301
  103    61   108    17	 9 ;      CG301      CG311      OG301      CG301
  122    61   108    17	 9 ;       HGA1      CG311      OG301      CG301
   61    62    63    65	 9 ;      CG311      CG321     CG3RC1     CG3RC1
   61    62    63   109	 9 ;      CG311      CG321     CG3RC1     OG3C51
   61    62    63   125	 9 ;      CG311      CG321     CG3RC1       HGA1
  123    62    63    65	 9 ;       HGA2      CG321     CG3RC1     CG3RC1
  123    62    63   109	 9 ;       HGA2      CG321     CG3RC1     OG3C51
  123    62    63   125	 9 ;       HGA2      CG321     CG3RC1       HGA1
  124    62    63    65	 9 ;       HGA2      CG321     CG3RC1     CG3RC1
  124    62    63   109	 9 ;       HGA2      CG321     CG3RC1     OG3C51
  124    62    63   125	 9 ;       HGA2      CG321     CG3RC1       HGA1
   62    63    65    64	 9 ;      CG321     CG3RC1     CG3RC1     CG3C41
   62    63    65    68	 9 ;      CG321     CG3RC1     CG3RC1      CG311
   62    63    65   110	 9 ;      CG321     CG3RC1     CG3RC1      OG302
  109    63    65    64	 9 ;     OG3C51     CG3RC1     CG3RC1     CG3C41
  109    63    65    68	 9 ;     OG3C51     CG3RC1     CG3RC1      CG311
  109    63    65   110	 9 ;     OG3C51     CG3RC1     CG3RC1      OG302
  125    63    65    64	 9 ;       HGA1     CG3RC1     CG3RC1     CG3C41
  125    63    65    68	 9 ;       HGA1     CG3RC1     CG3RC1      CG311
  125    63    65   110	 9 ;       HGA1     CG3RC1     CG3RC1      OG302
   62    63   109    64	 9 ;      CG321     CG3RC1     OG3C51     CG3C41
   65    63   109    64	 9 ;     CG3RC1     CG3RC1     OG3C51     CG3C41
  125    63   109    64	 9 ;       HGA1     CG3RC1     OG3C51     CG3C41
  126    64    65    63	 9 ;       HGA2     CG3C41     CG3RC1     CG3RC1
  126    64    65    68	 9 ;       HGA2     CG3C41     CG3RC1      CG311
  126    64    65   110	 9 ;       HGA2     CG3C41     CG3RC1      OG302
  127    64    65    63	 9 ;       HGA2     CG3C41     CG3RC1     CG3RC1
  127    64    65    68	 9 ;       HGA2     CG3C41     CG3RC1      CG311
  127    64    65   110	 9 ;       HGA2     CG3C41     CG3RC1      OG302
  109    64    65    63	 9 ;     OG3C51     CG3C41     CG3RC1     CG3RC1
  109    64    65    68	 9 ;     OG3C51     CG3C41     CG3RC1      CG311
  109    64    65   110	 9 ;     OG3C51     CG3C41     CG3RC1      OG302
   65    64   109    63	 9 ;     CG3RC1     CG3C41     OG3C51     CG3RC1
  126    64   109    63	 9 ;       HGA2     CG3C41     OG3C51     CG3RC1
  127    64   109    63	 9 ;       HGA2     CG3C41     OG3C51     CG3RC1
   63    65    68    69	 9 ;     CG3RC1     CG3RC1      CG311      CG311
   63    65    68   103	 9 ;     CG3RC1     CG3RC1      CG311      CG301
   63    65    68   131	 9 ;     CG3RC1     CG3RC1      CG311       HGA1
   64    65    68    69	 9 ;     CG3C41     CG3RC1      CG311      CG311
   64    65    68   103	 9 ;     CG3C41     CG3RC1      CG311      CG301
   64    65    68   131	 9 ;     CG3C41     CG3RC1      CG311       HGA1
  110    65    68    69	 9 ;      OG302     CG3RC1      CG311      CG311
  110    65    68   103	 9 ;      OG302     CG3RC1      CG311      CG301
  110    65    68   131	 9 ;      OG302     CG3RC1      CG311       HGA1
   63    65   110    66	 9 ;     CG3RC1     CG3RC1      OG302      CG2O2
   64    65   110    66	 9 ;     CG3C41     CG3RC1      OG302      CG2O2
   68    65   110    66	 9 ;      CG311     CG3RC1      OG302      CG2O2
  111    66    67   128	 9 ;      OG2D1      CG2O2      CG331       HGA3
  111    66    67   129	 9 ;      OG2D1      CG2O2      CG331       HGA3
  111    66    67   130	 9 ;      OG2D1      CG2O2      CG331       HGA3
  110    66    67   128	 9 ;      OG302      CG2O2      CG331       HGA3
  110    66    67   129	 9 ;      OG302      CG2O2      CG331       HGA3
  110    66    67   130	 9 ;      OG302      CG2O2      CG331       HGA3
   67    66   110    65	 9 ;      CG331      CG2O2      OG302     CG3RC1
  111    66   110    65	 9 ;      OG2D1      CG2O2      OG302     CG3RC1
   65    68    69    77	 9 ;     CG3RC1      CG311      CG311      CG301
   65    68    69   112	 9 ;     CG3RC1      CG311      CG311      OG302
   65    68    69   132	 9 ;     CG3RC1      CG311      CG311       HGA1
  103    68    69    77	 9 ;      CG301      CG311      CG311      CG301
  103    68    69   112	 9 ;      CG301      CG311      CG311      OG302
  103    68    69   132	 9 ;      CG301      CG311      CG311       HGA1
  131    68    69    77	 9 ;       HGA1      CG311      CG311      CG301
  131    68    69   112	 9 ;       HGA1      CG311      CG311      OG302
  131    68    69   132	 9 ;       HGA1      CG311      CG311       HGA1
   65    68   103    61	 9 ;     CG3RC1      CG311      CG301      CG311
   65    68   103   102	 9 ;     CG3RC1      CG311      CG301      CG2O5
   65    68   103   104	 9 ;     CG3RC1      CG311      CG301      CG331
   69    68   103    61	 9 ;      CG311      CG311      CG301      CG311
   69    68   103   102	 9 ;      CG311      CG311      CG301      CG2O5
   69    68   103   104	 9 ;      CG311      CG311      CG301      CG331
  131    68   103    61	 9 ;       HGA1      CG311      CG301      CG311
  131    68   103   102	 9 ;       HGA1      CG311      CG301      CG2O5
  131    68   103   104	 9 ;       HGA1      CG311      CG301      CG331
   68    69    77    78	 9 ;      CG311      CG311      CG301      CG321
   68    69    77   105	 9 ;      CG311      CG311      CG301      CG301
   68    69    77   114	 9 ;      CG311      CG311      CG301      OG311
  112    69    77    78	 9 ;      OG302      CG311      CG301      CG321
  112    69    77   105	 9 ;      OG302      CG311      CG301      CG301
  112    69    77   114	 9 ;      OG302      CG311      CG301      OG311
  132    69    77    78	 9 ;       HGA1      CG311      CG301      CG321
  132    69    77   105	 9 ;       HGA1      CG311      CG301      CG301
  132    69    77   114	 9 ;       HGA1      CG311      CG301      OG311
   68    69   112    70	 9 ;      CG311      CG311      OG302      CG2O2
   77    69   112    70	 9 ;      CG301      CG311      OG302      CG2O2
  132    69   112    70	 9 ;       HGA1      CG311      OG302      CG2O2
  113    70    71    72	 9 ;      OG2D1      CG2O2     CG2R61     CG2R61
  113    70    71    76	 9 ;      OG2D1      CG2O2     CG2R61     CG2R61
  112    70    71    72	 9 ;      OG302      CG2O2     CG2R61     CG2R61
  112    70    71    76	 9 ;      OG302      CG2O2     CG2R61     CG2R61
   71    70   112    69	 9 ;     CG2R61      CG2O2      OG302      CG311
  113    70   112    69	 9 ;      OG2D1      CG2O2      OG302      CG311
   70    71    72    73	 9 ;      CG2O2     CG2R61     CG2R61     CG2R61
   70    71    72   133	 9 ;      CG2O2     CG2R61     CG2R61      HGR61
   76    71    72    73	 9 ;     CG2R61     CG2R61     CG2R61     CG2R61
   76    71    72   133	 9 ;     CG2R61     CG2R61     CG2R61      HGR61
   70    71    76    75	 9 ;      CG2O2     CG2R61     CG2R61     CG2R61
   70    71    76   137	 9 ;      CG2O2     CG2R61     CG2R61      HGR61
   72    71    76    75	 9 ;     CG2R61     CG2R61     CG2R61     CG2R61
   72    71    76   137	 9 ;     CG2R61     CG2R61     CG2R61      HGR61
   71    72    73    74	 9 ;     CG2R61     CG2R61     CG2R61     CG2R61
   71    72    73   134	 9 ;     CG2R61     CG2R61     CG2R61      HGR61
  133    72    73    74	 9 ;      HGR61     CG2R61     CG2R61     CG2R61
  133    72    73   134	 9 ;      HGR61     CG2R61     CG2R61      HGR61
   72    73    74    75	 9 ;     CG2R61     CG2R61     CG2R61     CG2R61
   72    73    74   135	 9 ;     CG2R61     CG2R61     CG2R61      HGR61
  134    73    74    75	 9 ;      HGR61     CG2R61     CG2R61     CG2R61
  134    73    74   135	 9 ;      HGR61     CG2R61     CG2R61      HGR61
   73    74    75    76	 9 ;     CG2R61     CG2R61     CG2R61     CG2R61
   73    74    75   136	 9 ;     CG2R61     CG2R61     CG2R61      HGR61
  135    74    75    76	 9 ;      HGR61     CG2R61     CG2R61     CG2R61
  135    74    75   136	 9 ;      HGR61     CG2R61     CG2R61      HGR61
   74    75    76    71	 9 ;     CG2R61     CG2R61     CG2R61     CG2R61
   74    75    76   137	 9 ;     CG2R61     CG2R61     CG2R61      HGR61
  136    75    76    71	 9 ;      HGR61     CG2R61     CG2R61     CG2R61
  136    75    76   137	 9 ;      HGR61     CG2R61     CG2R61      HGR61
   69    77    78    79	 9 ;      CG311      CG301      CG321      CG311
   69    77    78   139	 9 ;      CG311      CG301      CG321       HGA2
   69    77    78   140	 9 ;      CG311      CG301      CG321       HGA2
  105    77    78    79	 9 ;      CG301      CG301      CG321      CG311
  105    77    78   139	 9 ;      CG301      CG301      CG321       HGA2
  105    77    78   140	 9 ;      CG301      CG301      CG321       HGA2
  114    77    78    79	 9 ;      OG311      CG301      CG321      CG311
  114    77    78   139	 9 ;      OG311      CG301      CG321       HGA2
  114    77    78   140	 9 ;      OG311      CG301      CG321       HGA2
   69    77   105    98	 9 ;      CG311      CG301      CG301      CG2D1
   69    77   105   106	 9 ;      CG311      CG301      CG301      CG331
   69    77   105   107	 9 ;      CG311      CG301      CG301      CG331
   78    77   105    98	 9 ;      CG321      CG301      CG301      CG2D1
   78    77   105   106	 9 ;      CG321      CG301      CG301      CG331
   78    77   105   107	 9 ;      CG321      CG301      CG301      CG331
  114    77   105    98	 9 ;      OG311      CG301      CG301      CG2D1
  114    77   105   106	 9 ;      OG311      CG301      CG301      CG331
  114    77   105   107	 9 ;      OG311      CG301      CG301      CG331
   69    77   114   138	 9 ;      CG311      CG301      OG311       HGP1
   78    77   114   138	 9 ;      CG321      CG301      OG311       HGP1
  105    77   114   138	 9 ;      CG301      CG301      OG311       HGP1
   77    78    79    96	 9 ;      CG301      CG321      CG311      CG2D1
   77    78    79   115	 9 ;      CG301      CG321      CG311      OG302
   77    78    79   141	 9 ;      CG301      CG321      CG311       HGA1
  139    78    79    96	 9 ;       HGA2      CG321      CG311      CG2D1
  139    78    79   115	 9 ;       HGA2      CG321      CG311      OG302
  139    78    79   141	 9 ;       HGA2      CG321      CG311       HGA1
  140    78    79    96	 9 ;       HGA2      CG321      CG311      CG2D1
  140    78    79   115	 9 ;       HGA2      CG321      CG311      OG302
  140    78    79   141	 9 ;       HGA2      CG321      CG311       HGA1
   78    79    96    97	 9 ;      CG321      CG311      CG2D1      CG331
   78    79    96    98	 9 ;      CG321      CG311      CG2D1      CG2D1
  115    79    96    97	 9 ;      OG302      CG311      CG2D1      CG331
  115    79    96    98	 9 ;      OG302      CG311      CG2D1      CG2D1
  141    79    96    97	 9 ;       HGA1      CG311      CG2D1      CG331
  141    79    96    98	 9 ;       HGA1      CG311      CG2D1      CG2D1
   78    79   115    80	 9 ;      CG321      CG311      OG302      CG2O2
   96    79   115    80	 9 ;      CG2D1      CG311      OG302      CG2O2
  141    79   115    80	 9 ;       HGA1      CG311      OG302      CG2O2
  116    80    81    82	 9 ;      OG2D1      CG2O2      CG311      CG311
  116    80    81   117	 9 ;      OG2D1      CG2O2      CG311      OG311
  116    80    81   142	 9 ;      OG2D1      CG2O2      CG311       HGA1
  115    80    81    82	 9 ;      OG302      CG2O2      CG311      CG311
  115    80    81   117	 9 ;      OG302      CG2O2      CG311      OG311
  115    80    81   142	 9 ;      OG302      CG2O2      CG311       HGA1
   81    80   115    79	 9 ;      CG311      CG2O2      OG302      CG311
  116    80   115    79	 9 ;      OG2D1      CG2O2      OG302      CG311
   80    81    82    60	 9 ;      CG2O2      CG311      CG311      NG2S1
   80    81    82    90	 9 ;      CG2O2      CG311      CG311     CG2R61
   80    81    82   144	 9 ;      CG2O2      CG311      CG311       HGA1
  117    81    82    60	 9 ;      OG311      CG311      CG311      NG2S1
  117    81    82    90	 9 ;      OG311      CG311      CG311     CG2R61
  117    81    82   144	 9 ;      OG311      CG311      CG311       HGA1
  142    81    82    60	 9 ;       HGA1      CG311      CG311      NG2S1
  142    81    82    90	 9 ;       HGA1      CG311      CG311     CG2R61
  142    81    82   144	 9 ;       HGA1      CG311      CG311       HGA1
   80    81   117   143	 9 ;      CG2O2      CG311      OG311       HGP1
   82    81   117   143	 9 ;      CG311      CG311      OG311       HGP1
  142    81   117   143	 9 ;       HGA1      CG311      OG311       HGP1
   81    82    90    91	 9 ;      CG311      CG311     CG2R61     CG2R61
   81    82    90    95	 9 ;      CG311      CG311     CG2R61     CG2R61
   60    82    90    91	 9 ;      NG2S1      CG311     CG2R61     CG2R61
   60    82    90    95	 9 ;      NG2S1      CG311     CG2R61     CG2R61
  144    82    90    91	 9 ;       HGA1      CG311     CG2R61     CG2R61
  144    82    90    95	 9 ;       HGA1      CG311     CG2R61     CG2R61
   60    83    84    85	 9 ;      NG2S1      CG2O1     CG2R61     CG2R61
   60    83    84    89	 9 ;      NG2S1      CG2O1     CG2R61     CG2R61
  118    83    84    85	 9 ;      OG2D1      CG2O1     CG2R61     CG2R61
  118    83    84    89	 9 ;      OG2D1      CG2O1     CG2R61     CG2R61
   83    84    85    86	 9 ;      CG2O1     CG2R61     CG2R61     CG2R61
   83    84    85   146	 9 ;      CG2O1     CG2R61     CG2R61      HGR61
   89    84    85    86	 9 ;     CG2R61     CG2R61     CG2R61     CG2R61
   89    84    85   146	 9 ;     CG2R61     CG2R61     CG2R61      HGR61
   83    84    89    88	 9 ;      CG2O1     CG2R61     CG2R61     CG2R61
   83    84    89   150	 9 ;      CG2O1     CG2R61     CG2R61      HGR61
   85    84    89    88	 9 ;     CG2R61     CG2R61     CG2R61     CG2R61
   85    84    89   150	 9 ;     CG2R61     CG2R61     CG2R61      HGR61
   84    85    86    87	 9 ;     CG2R61     CG2R61     CG2R61     CG2R61
   84    85    86   147	 9 ;     CG2R61     CG2R61     CG2R61      HGR61
  146    85    86    87	 9 ;      HGR61     CG2R61     CG2R61     CG2R61
  146    85    86   147	 9 ;      HGR61     CG2R61     CG2R61      HGR61
   85    86    87    88	 9 ;     CG2R61     CG2R61     CG2R61     CG2R61
   85    86    87   148	 9 ;     CG2R61     CG2R61     CG2R61      HGR61
  147    86    87    88	 9 ;      HGR61     CG2R61     CG2R61     CG2R61
  147    86    87   148	 9 ;      HGR61     CG2R61     CG2R61      HGR61
   86    87    88    89	 9 ;     CG2R61     CG2R61     CG2R61     CG2R61
   86    87    88   149	 9 ;     CG2R61     CG2R61     CG2R61      HGR61
  148    87    88    89	 9 ;      HGR61     CG2R61     CG2R61     CG2R61
  148    87    88   149	 9 ;      HGR61     CG2R61     CG2R61      HGR61
   87    88    89    84	 9 ;     CG2R61     CG2R61     CG2R61     CG2R61
   87    88    89   150	 9 ;     CG2R61     CG2R61     CG2R61      HGR61
  149    88    89    84	 9 ;      HGR61     CG2R61     CG2R61     CG2R61
  149    88    89   150	 9 ;      HGR61     CG2R61     CG2R61      HGR61
   82    90    91    92	 9 ;      CG311     CG2R61     CG2R61     CG2R61
   82    90    91   151	 9 ;      CG311     CG2R61     CG2R61      HGR61
   95    90    91    92	 9 ;     CG2R61     CG2R61     CG2R61     CG2R61
   95    90    91   151	 9 ;     CG2R61     CG2R61     CG2R61      HGR61
   82    90    95    94	 9 ;      CG311     CG2R61     CG2R61     CG2R61
   82    90    95   155	 9 ;      CG311     CG2R61     CG2R61      HGR61
   91    90    95    94	 9 ;     CG2R61     CG2R61     CG2R61     CG2R61
   91    90    95   155	 9 ;     CG2R61     CG2R61     CG2R61      HGR61
   90    91    92    93	 9 ;     CG2R61     CG2R61     CG2R61     CG2R61
   90    91    92   152	 9 ;     CG2R61     CG2R61     CG2R61      HGR61
  151    91    92    93	 9 ;      HGR61     CG2R61     CG2R61     CG2R61
  151    91    92   152	 9 ;      HGR61     CG2R61     CG2R61      HGR61
   91    92    93    94	 9 ;     CG2R61     CG2R61     CG2R61     CG2R61
   91    92    93   153	 9 ;     CG2R61     CG2R61     CG2R61      HGR61
  152    92    93    94	 9 ;      HGR61     CG2R61     CG2R61     CG2R61
  152    92    93   153	 9 ;      HGR61     CG2R61     CG2R61      HGR61
   92    93    94    95	 9 ;     CG2R61     CG2R61     CG2R61     CG2R61
   92    93    94   154	 9 ;     CG2R61     CG2R61     CG2R61      HGR61
  153    93    94    95	 9 ;      HGR61     CG2R61     CG2R61     CG2R61
  153    93    94   154	 9 ;      HGR61     CG2R61     CG2R61      HGR61
   93    94    95    90	 9 ;     CG2R61     CG2R61     CG2R61     CG2R61
   93    94    95   155	 9 ;     CG2R61     CG2R61     CG2R61      HGR61
  154    94    95    90	 9 ;      HGR61     CG2R61     CG2R61     CG2R61
  154    94    95   155	 9 ;      HGR61     CG2R61     CG2R61      HGR61
   79    96    97   156	 9 ;      CG311      CG2D1      CG331       HGA3
   79    96    97   157	 9 ;      CG311      CG2D1      CG331       HGA3
   79    96    97   158	 9 ;      CG311      CG2D1      CG331       HGA3
   98    96    97   156	 9 ;      CG2D1      CG2D1      CG331       HGA3
   98    96    97   157	 9 ;      CG2D1      CG2D1      CG331       HGA3
   98    96    97   158	 9 ;      CG2D1      CG2D1      CG331       HGA3
   79    96    98    99	 9 ;      CG311      CG2D1      CG2D1      CG311
   79    96    98   105	 9 ;      CG311      CG2D1      CG2D1      CG301
   97    96    98    99	 9 ;      CG331      CG2D1      CG2D1      CG311
   97    96    98   105	 9 ;      CG331      CG2D1      CG2D1      CG301
   96    98    99   102	 9 ;      CG2D1      CG2D1      CG311      CG2O5
   96    98    99   119	 9 ;      CG2D1      CG2D1      CG311      OG302
   96    98    99   159	 9 ;      CG2D1      CG2D1      CG311       HGA1
  105    98    99   102	 9 ;      CG301      CG2D1      CG311      CG2O5
  105    98    99   119	 9 ;      CG301      CG2D1      CG311      OG302
  105    98    99   159	 9 ;      CG301      CG2D1      CG311       HGA1
   96    98   105    77	 9 ;      CG2D1      CG2D1      CG301      CG301
   96    98   105   106	 9 ;      CG2D1      CG2D1      CG301      CG331
   96    98   105   107	 9 ;      CG2D1      CG2D1      CG301      CG331
   99    98   105    77	 9 ;      CG311      CG2D1      CG301      CG301
   99    98   105   106	 9 ;      CG311      CG2D1      CG301      CG331
   99    98   105   107	 9 ;      CG311      CG2D1      CG301      CG331
   98    99   102   103	 9 ;      CG2D1      CG311      CG2O5      CG301
   98    99   102   121	 9 ;      CG2D1      CG311      CG2O5      OG2D3
  119    99   102   103	 9 ;      OG302      CG311      CG2O5      CG301
  119    99   102   121	 9 ;      OG302      CG311      CG2O5      OG2D3
  159    99   102   103	 9 ;       HGA1      CG311      CG2O5      CG301
  159    99   102   121	 9 ;       HGA1      CG311      CG2O5      OG2D3
   98    99   119   100	 9 ;      CG2D1      CG311      OG302      CG2O2
  102    99   119   100	 9 ;      CG2O5      CG311      OG302      CG2O2
  159    99   119   100	 9 ;       HGA1      CG311      OG302      CG2O2
  120   100   101   160	 9 ;      OG2D1      CG2O2      CG331       HGA3
  120   100   101   161	 9 ;      OG2D1      CG2O2      CG331       HGA3
  120   100   101   162	 9 ;      OG2D1      CG2O2      CG331       HGA3
  119   100   101   160	 9 ;      OG302      CG2O2      CG331       HGA3
  119   100   101   161	 9 ;      OG302      CG2O2      CG331       HGA3
  119   100   101   162	 9 ;      OG302      CG2O2      CG331       HGA3
  101   100   119    99	 9 ;      CG331      CG2O2      OG302      CG311
  120   100   119    99	 9 ;      OG2D1      CG2O2      OG302      CG311
   99   102   103    61	 9 ;      CG311      CG2O5      CG301      CG311
   99   102   103    68	 9 ;      CG311      CG2O5      CG301      CG311
   99   102   103   104	 9 ;      CG311      CG2O5      CG301      CG331
  121   102   103    61	 9 ;      OG2D3      CG2O5      CG301      CG311
  121   102   103    68	 9 ;      OG2D3      CG2O5      CG301      CG311
  121   102   103   104	 9 ;      OG2D3      CG2O5      CG301      CG331
   61   103   104   163	 9 ;      CG311      CG301      CG331       HGA3
   61   103   104   164	 9 ;      CG311      CG301      CG331       HGA3
   61   103   104   165	 9 ;      CG311      CG301      CG331       HGA3
   68   103   104   163	 9 ;      CG311      CG301      CG331       HGA3
   68   103   104   164	 9 ;      CG311      CG301      CG331       HGA3
   68   103   104   165	 9 ;      CG311      CG301      CG331       HGA3
  102   103   104   163	 9 ;      CG2O5      CG301      CG331       HGA3
  102   103   104   164	 9 ;      CG2O5      CG301      CG331       HGA3
  102   103   104   165	 9 ;      CG2O5      CG301      CG331       HGA3
   77   105   106   166	 9 ;      CG301      CG301      CG331       HGA3
   77   105   106   167	 9 ;      CG301      CG301      CG331       HGA3
   77   105   106   168	 9 ;      CG301      CG301      CG331       HGA3
   98   105   106   166	 9 ;      CG2D1      CG301      CG331       HGA3
   98   105   106   167	 9 ;      CG2D1      CG301      CG331       HGA3
   98   105   106   168	 9 ;      CG2D1      CG301      CG331       HGA3
  107   105   106   166	 9 ;      CG331      CG301      CG331       HGA3
  107   105   106   167	 9 ;      CG331      CG301      CG331       HGA3
  107   105   106   168	 9 ;      CG331      CG301      CG331       HGA3
   77   105   107   169	 9 ;      CG301      CG301      CG331       HGA3
   77   105   107   170	 9 ;      CG301      CG301      CG331       HGA3
   77   105   107   171	 9 ;      CG301      CG301      CG331       HGA3
   98   105   107   169	 9 ;      CG2D1      CG301      CG331       HGA3
   98   105   107   170	 9 ;      CG2D1      CG301      CG331       HGA3
   98   105   107   171	 9 ;      CG2D1      CG301      CG331       HGA3
  106   105   107   169	 9 ;      CG331      CG301      CG331       HGA3
  106   105   107   170	 9 ;      CG331      CG301      CG331       HGA3
  106   105   107   171	 9 ;      CG331      CG301      CG331       HGA3

[ dihedrals ]
;	ai	  aj	ak	  al funct			  c0			c1			  c2			c3
   66    67   111   110	 2
   70    71   113   112	 2
   80    81   116   115	 2
   83    84    60   118	 2
  100   101   120   119	 2
  102   103    99   121	 2

