GROningen MAchine for Chemical Simulation
  171
    1PTX     C1    1  -0.902  -1.204  -0.343
    1PTX     C2    2  -0.785  -1.112  -0.381
    1PTX     C3    3  -0.811  -0.967  -0.338
    1PTX     C4    4  -0.694  -0.874  -0.377
    1PTX     C5    5  -0.720  -0.728  -0.335
    1PTX     C6    6  -0.605  -0.635  -0.377
    1PTX     C7    7  -0.633  -0.489  -0.337
    1PTX     C8    8  -0.521  -0.395  -0.383
    1PTX     C9    9  -0.550  -0.248  -0.347
    1PTX    C10   10  -0.439  -0.153  -0.393
    1PTX    C11   11  -0.474  -0.006  -0.365
    1PTX    C12   12  -0.361   0.089  -0.407
    1PTX    C13   13  -0.403   0.236  -0.391
    1PTX    C14   14  -0.287   0.333  -0.420
    1PTX    C15   15  -0.326   0.481  -0.404
    1PTX    C16   16  -0.367   0.548  -0.535
    1PTX     O1   17  -0.244   0.564  -0.326
    1PTX    C17   18  -0.103   0.563  -0.337
    1PTX    C18   19  -0.049   0.530  -0.476
    1PTX    C19   20  -0.056   0.706  -0.308
    1PTX     O2   21  -0.052   0.465  -0.247
    1PTX    C20   22  -0.019   0.501  -0.115
    1PTX    C21   23  -0.142   0.532  -0.030
    1PTX    C22   24  -0.230   0.413   0.005
    1PTX     O3   25  -0.283   0.349  -0.108
    1PTX    C23   26  -0.215   0.229  -0.078
    1PTX    C24   27  -0.154   0.288   0.049
    1PTX     O4   28  -0.202   0.240   0.171
    1PTX    C25   29  -0.331   0.206   0.199
    1PTX    C26   30  -0.339   0.157   0.342
    1PTX     O5   31  -0.425   0.212   0.124
    1PTX    C27   32  -0.001   0.298   0.053
    1PTX    C28   33   0.068   0.163   0.086
    1PTX     O6   34  -0.024   0.057   0.076
    1PTX    C29   35  -0.018  -0.041  -0.020
    1PTX     O7   36   0.077  -0.046  -0.096
    1PTX    C30   37  -0.119  -0.133  -0.031
    1PTX    C31   38  -0.117  -0.230  -0.124
    1PTX    C32   39  -0.217  -0.319  -0.132
    1PTX    C33   40  -0.322  -0.312  -0.049
    1PTX    C34   41  -0.326  -0.215   0.043
    1PTX    C35   42  -0.225  -0.127   0.053
    1PTX    C36   43   0.144   0.150   0.221
    1PTX     O8   44   0.047   0.141   0.321
    1PTX    C37   45   0.225   0.019   0.219
    1PTX    C38   46   0.347   0.027   0.125
    1PTX     O9   47   0.450  -0.059   0.169
    1PTX    C39   48   0.572  -0.015   0.210
    1PTX    O10   49   0.612   0.099   0.215
    1PTX    C40   50   0.659  -0.133   0.252
    1PTX    O11   51   0.670  -0.229   0.148
    1PTX    C41   52   0.610  -0.205   0.379
    1PTX      N   53   0.700  -0.319   0.402
    1PTX    C42   54   0.725  -0.386   0.519
    1PTX    O12   55   0.830  -0.445   0.521
    1PTX    C43   56   0.648  -0.374   0.631
    1PTX    C44   57   0.515  -0.352   0.627
    1PTX    C45   58   0.442  -0.341   0.739
    1PTX    C46   59   0.501  -0.352   0.859
    1PTX    C47   60   0.632  -0.377   0.865
    1PTX    C48   61   0.705  -0.389   0.753
    1PTX    C49   62   0.611  -0.106   0.494
    1PTX    C50   63   0.727  -0.065   0.549
    1PTX    C51   64   0.728   0.023   0.650
    1PTX    C52   65   0.612   0.072   0.698
    1PTX    C53   66   0.496   0.032   0.644
    1PTX    C54   67   0.496  -0.056   0.543
    1PTX    C55   68   0.385   0.166   0.075
    1PTX    C56   69   0.478   0.161  -0.044
    1PTX    C57   70   0.327   0.278   0.127
    1PTX    C58   71   0.327   0.416   0.062
    1PTX    O13   72   0.406   0.423  -0.056
    1PTX    C59   73   0.439   0.543  -0.110
    1PTX    C60   74   0.524   0.521  -0.234
    1PTX    O14   75   0.405   0.651  -0.067
    1PTX    C61   76   0.183   0.468   0.034
    1PTX    O15   77   0.153   0.573   0.087
    1PTX    C62   78   0.074   0.392  -0.049
    1PTX    C63   79   0.145   0.318  -0.165
    1PTX    C64   80   0.246   0.262   0.257
    1PTX    C65   81   0.348   0.222   0.369
    1PTX    C66   82   0.187   0.388   0.326
    1PTX     H1   83  -0.882  -1.309  -0.374
    1PTX     H2   84  -0.919  -1.204  -0.233
    1PTX     H3   85  -0.997  -1.171  -0.392
    1PTX     H4   86  -0.770  -1.116  -0.491
    1PTX     H5   87  -0.692  -1.149  -0.333
    1PTX     H6   88  -0.826  -0.963  -0.228
    1PTX     H7   89  -0.905  -0.930  -0.386
    1PTX     H8   90  -0.679  -0.878  -0.488
    1PTX     H9   91  -0.600  -0.910  -0.329
    1PTX    H10   92  -0.734  -0.723  -0.225
    1PTX    H11   93  -0.815  -0.693  -0.382
    1PTX    H12   94  -0.591  -0.641  -0.487
    1PTX    H13   95  -0.511  -0.669  -0.329
    1PTX    H14   96  -0.645  -0.482  -0.227
    1PTX    H15   97  -0.729  -0.456  -0.383
    1PTX    H16   98  -0.508  -0.403  -0.493
    1PTX    H17   99  -0.424  -0.426  -0.336
    1PTX    H18  100  -0.564  -0.239  -0.236
    1PTX    H19  101  -0.646  -0.218  -0.395
    1PTX    H20  102  -0.421  -0.166  -0.502
    1PTX    H21  103  -0.344  -0.179  -0.341
    1PTX    H22  104  -0.495   0.007  -0.256
    1PTX    H23  105  -0.567   0.020  -0.420
    1PTX    H24  106  -0.334   0.071  -0.513
    1PTX    H25  107  -0.271   0.069  -0.345
    1PTX    H26  108  -0.440   0.252  -0.287
    1PTX    H27  109  -0.489   0.259  -0.460
    1PTX    H28  110  -0.254   0.315  -0.525
    1PTX    H29  111  -0.202   0.305  -0.355
    1PTX    H30  112  -0.422   0.481  -0.344
    1PTX    H31  113  -0.394   0.655  -0.521
    1PTX    H32  114  -0.455   0.497  -0.580
    1PTX    H33  115  -0.287   0.544  -0.612
    1PTX    H34  116   0.063   0.539  -0.476
    1PTX    H35  117  -0.085   0.601  -0.553
    1PTX    H36  118  -0.069   0.427  -0.510
    1PTX    H37  119  -0.094   0.748  -0.213
    1PTX    H38  120   0.055   0.715  -0.309
    1PTX    H39  121  -0.093   0.776  -0.387
    1PTX    H40  122   0.044   0.592  -0.124
    1PTX    H41  123  -0.109   0.577   0.067
    1PTX    H42  124  -0.206   0.611  -0.077
    1PTX    H43  125  -0.313   0.443   0.072
    1PTX    H44  126  -0.285   0.144  -0.066
    1PTX    H45  127  -0.139   0.207  -0.156
    1PTX    H46  128  -0.270   0.072   0.359
    1PTX    H47  129  -0.312   0.239   0.413
    1PTX    H48  130  -0.442   0.123   0.367
    1PTX    H49  131   0.003   0.356   0.148
    1PTX    H50  132   0.144   0.148   0.008
    1PTX    H51  133  -0.034  -0.242  -0.195
    1PTX    H52  134  -0.214  -0.399  -0.209
    1PTX    H53  135  -0.405  -0.384  -0.057
    1PTX    H54  136  -0.412  -0.208   0.112
    1PTX    H55  137  -0.232  -0.050   0.131
    1PTX    H56  138  -0.019   0.076   0.294
    1PTX    H57  139   0.161  -0.069   0.192
    1PTX    H58  140   0.256  -0.008   0.323
    1PTX    H59  141   0.310  -0.021   0.031
    1PTX    H60  142   0.763  -0.096   0.268
    1PTX    H61  143   0.724  -0.195   0.075
    1PTX    H62  144   0.508  -0.244   0.356
    1PTX    H63  145   0.761  -0.345   0.324
    1PTX    H64  146   0.461  -0.347   0.532
    1PTX    H65  147   0.333  -0.324   0.733
    1PTX    H66  148   0.441  -0.343   0.951
    1PTX    H67  149   0.681  -0.388   0.964
    1PTX    H68  150   0.813  -0.408   0.765
    1PTX    H69  151   0.823  -0.103   0.511
    1PTX    H70  152   0.824   0.055   0.694
    1PTX    H71  153   0.613   0.144   0.782
    1PTX    H72  154   0.401   0.072   0.683
    1PTX    H73  155   0.400  -0.087   0.499
    1PTX    H74  156   0.424   0.173  -0.141
    1PTX    H75  157   0.559   0.236  -0.037
    1PTX    H76  158   0.530   0.064  -0.052
    1PTX    H77  159   0.376   0.482   0.137
    1PTX    H78  160   0.618   0.469  -0.207
    1PTX    H79  161   0.468   0.461  -0.309
    1PTX    H80  162   0.550   0.619  -0.281
    1PTX    H81  163   0.074   0.252  -0.221
    1PTX    H82  164   0.191   0.389  -0.237
    1PTX    H83  165   0.228   0.252  -0.135
    1PTX    H84  166   0.297   0.196   0.464
    1PTX    H85  167   0.413   0.136   0.346
    1PTX    H86  168   0.420   0.304   0.390
    1PTX    H87  169   0.143   0.362   0.425
    1PTX    H88  170   0.264   0.466   0.344
    1PTX    H89  171   0.104   0.440   0.276
   0.00000   0.00000   0.00000
