; Created by cgenff_charmm2gmx.py

[ moleculetype ]
; Name			   nrexcl
PTX				 3

[ atoms ]
;	 nr		  type	resnr residue  atom   cgnr	   charge		mass  typeB    chargeB		massB
; residue	 1 PTX rtp PTX q	qsum
     1      CG301      1    PTL     C1      1      0.400     12.011   ;
     2      CG331      1    PTL     C2      2     -0.269     12.011   ;
     3      CG331      1    PTL     C3      3     -0.269     12.011   ;
     4      CG311      1    PTL     C4      4      0.200     12.011   ;
     5      CG321      1    PTL     C5      5     -0.202     12.011   ;
     6      CG321      1    PTL     C6      6     -0.174     12.011   ;
     7      CG311      1    PTL     C7      7     -0.085     12.011   ;
     8      CG321      1    PTL     C8      8     -0.195     12.011   ;
     9      CG321      1    PTL     C9      9     -0.169     12.011   ;
    10      CG321      1    PTL    C10     10     -0.169     12.011   ;
    11      CG321      1    PTL    C11     11     -0.195     12.011   ;
    12      CG311      1    PTL    C12     12     -0.076     12.011   ;
    13      CG321      1    PTL    C13     13     -0.204     12.011   ;
    14      OG301      1    PTL     O1     14     -0.456     15.999   ;
    15       HGA3      1    PTL     H1     15      0.090      1.008   ;
    16       HGA3      1    PTL     H2     16      0.090      1.008   ;
    17       HGA3      1    PTL     H3     17      0.090      1.008   ;
    18       HGA3      1    PTL     H4     18      0.090      1.008   ;
    19       HGA3      1    PTL     H5     19      0.090      1.008   ;
    20       HGA3      1    PTL     H6     20      0.090      1.008   ;
    21       HGA1      1    PTL     H7     21      0.090      1.008   ;
    22       HGA2      1    PTL     H8     22      0.090      1.008   ;
    23       HGA2      1    PTL     H9     23      0.090      1.008   ;
    24       HGA2      1    PTL    H10     24      0.090      1.008   ;
    25       HGA2      1    PTL    H11     25      0.090      1.008   ;
    26       HGA1      1    PTL    H12     26      0.090      1.008   ;
    27       HGA2      1    PTL    H13     27      0.090      1.008   ;
    28       HGA2      1    PTL    H14     28      0.090      1.008   ;
    29       HGA2      1    PTL    H15     29      0.090      1.008   ;
    30       HGA2      1    PTL    H16     30      0.090      1.008   ;
    31       HGA2      1    PTL    H17     31      0.090      1.008   ;
    32       HGA2      1    PTL    H18     32      0.090      1.008   ;
    33       HGA2      1    PTL    H19     33      0.090      1.008   ;
    34       HGA2      1    PTL    H20     34      0.090      1.008   ;
    35       HGA1      1    PTL    H21     35      0.090      1.008   ;
    36       HGA2      1    PTL    H22     36      0.090      1.008   ;
    37       HGA2      1    PTL    H23     37      0.090      1.008   ;
    38      NG2S1      1    PTX      N     38     -0.404     14.007   ;
    39      CG331      1    PTX    C14     39     -0.311     12.011   ;
    40      CG2O2      1    PTX    C15     40      0.834     12.011   ;
    41      CG311      1    PTX    C16     41      0.432     12.011   ;
    42      CG2O5      1    PTX    C17     42      0.297     12.011   ;
    43      CG301      1    PTX    C18     43      0.081     12.011   ;
    44      CG331      1    PTX    C19     44     -0.263     12.011   ;
    45      CG311      1    PTX    C20     45      0.166     12.011   ;
    46      CG321      1    PTX    C21     46     -0.201     12.011   ;
    47     CG3RC1      1    PTX    C22     47      0.015     12.011   ;
    48     CG3C41      1    PTX    C23     48     -0.106     12.011   ;
    49     CG3RC1      1    PTX    C24     49      0.366     12.011   ;
    50      CG2O2      1    PTX    C25     50      0.885     12.011   ;
    51      CG331      1    PTX    C26     51     -0.313     12.011   ;
    52      CG311      1    PTX    C27     52     -0.074     12.011   ;
    53      CG311      1    PTX    C28     53      0.133     12.011   ;
    54      CG2O2      1    PTX    C29     54      0.459     12.011   ;
    55     CG2R61      1    PTX    C30     55      0.086     12.011   ;
    56     CG2R61      1    PTX    C31     56     -0.110     12.011   ;
    57     CG2R61      1    PTX    C32     57     -0.114     12.011   ;
    58     CG2R61      1    PTX    C33     58     -0.115     12.011   ;
    59     CG2R61      1    PTX    C34     59     -0.114     12.011   ;
    60     CG2R61      1    PTX    C35     60     -0.110     12.011   ;
    61      CG301      1    PTX    C36     61      0.186     12.011   ;
    62      CG321      1    PTX    C37     62     -0.212     12.011   ;
    63      CG311      1    PTX    C38     63      0.272     12.011   ;
    64      CG2O2      1    PTX    C39     64      0.850     12.011   ;
    65      CG311      1    PTX    C40     65      0.183     12.011   ;
    66      CG311      1    PTX    C41     66      0.127     12.011   ;
    67      CG2O1      1    PTX    C42     67      0.341     12.011   ;
    68     CG2R61      1    PTX    C43     68     -0.137     12.011   ;
    69     CG2R61      1    PTX    C44     69     -0.024     12.011   ;
    70     CG2R61      1    PTX    C45     70     -0.109     12.011   ;
    71     CG2R61      1    PTX    C46     71     -0.115     12.011   ;
    72     CG2R61      1    PTX    C47     72     -0.109     12.011   ;
    73     CG2R61      1    PTX    C48     73     -0.024     12.011   ;
    74     CG2R61      1    PTX    C49     74     -0.040     12.011   ;
    75     CG2R61      1    PTX    C50     75     -0.106     12.011   ;
    76     CG2R61      1    PTX    C51     76     -0.115     12.011   ;
    77     CG2R61      1    PTX    C52     77     -0.115     12.011   ;
    78     CG2R61      1    PTX    C53     78     -0.115     12.011   ;
    79     CG2R61      1    PTX    C54     79     -0.106     12.011   ;
    80      CG2D1      1    PTX    C55     80     -0.153     12.011   ;
    81      CG331      1    PTX    C56     81     -0.265     12.011   ;
    82      CG2D1      1    PTX    C57     82     -0.113     12.011   ;
    83      CG301      1    PTX    C58     83      0.016     12.011   ;
    84      CG331      1    PTX    C59     84     -0.269     12.011   ;
    85      CG331      1    PTX    C60     85     -0.269     12.011   ;
    86      OG2D1      1    PTX     O2     86     -0.625     15.999   ;
    87      OG302      1    PTX     O3     87     -0.427     15.999   ;
    88      OG2D3      1    PTX     O4     88     -0.515     15.999   ;
    89      OG311      1    PTX     O5     89     -0.642     15.999   ;
    90     OG3C51      1    PTX     O6     90     -0.343     15.999   ;
    91      OG302      1    PTX     O7     91     -0.422     15.999   ;
    92      OG2D1      1    PTX     O8     92     -0.617     15.999   ;
    93      OG302      1    PTX     O9     93     -0.310     15.999   ;
    94      OG2D1      1    PTX    O10     94     -0.496     15.999   ;
    95      OG311      1    PTX    O11     95     -0.460     15.999   ;
    96      OG302      1    PTX    O12     96     -0.432     15.999   ;
    97      OG2D1      1    PTX    O13     97     -0.623     15.999   ;
    98      OG301      1    PTX    O14     98     -0.506     15.999   ;
    99      OG2D1      1    PTX    O15     99     -0.458     15.999   ;
   100       HGA3      1    PTX    H24    100      0.090      1.008   ;
   101       HGA3      1    PTX    H25    101      0.090      1.008   ;
   102       HGA3      1    PTX    H26    102      0.090      1.008   ;
   103       HGA1      1    PTX    H27    103      0.090      1.008   ;
   104       HGA3      1    PTX    H28    104      0.090      1.008   ;
   105       HGA3      1    PTX    H29    105      0.090      1.008   ;
   106       HGA3      1    PTX    H30    106      0.090      1.008   ;
   107       HGA1      1    PTX    H31    107      0.090      1.008   ;
   108       HGP1      1    PTX    H32    108      0.400      1.008   ;
   109       HGA2      1    PTX    H33    109      0.090      1.008   ;
   110       HGA2      1    PTX    H34    110      0.090      1.008   ;
   111       HGA1      1    PTX    H35    111      0.090      1.008   ;
   112       HGA2      1    PTX    H36    112      0.090      1.008   ;
   113       HGA2      1    PTX    H37    113      0.090      1.008   ;
   114       HGA3      1    PTX    H38    114      0.090      1.008   ;
   115       HGA3      1    PTX    H39    115      0.090      1.008   ;
   116       HGA3      1    PTX    H40    116      0.090      1.008   ;
   117       HGA1      1    PTX    H41    117      0.090      1.008   ;
   118       HGA1      1    PTX    H42    118      0.090      1.008   ;
   119      HGR61      1    PTX    H43    119      0.115      1.008   ;
   120      HGR61      1    PTX    H44    120      0.115      1.008   ;
   121      HGR61      1    PTX    H45    121      0.115      1.008   ;
   122      HGR61      1    PTX    H46    122      0.115      1.008   ;
   123      HGR61      1    PTX    H47    123      0.115      1.008   ;
   124       HGP1      1    PTX    H48    124      0.292      1.008   ;
   125       HGA2      1    PTX    H49    125      0.090      1.008   ;
   126       HGA2      1    PTX    H50    126      0.090      1.008   ;
   127       HGA1      1    PTX    H51    127      0.090      1.008   ;
   128       HGA1      1    PTX    H52    128      0.090      1.008   ;
   129       HGA1      1    PTX    H53    129      0.090      1.008   ;
   130       HGP1      1    PTX    H54    130      0.274      1.008   ;
   131      HGR61      1    PTX    H55    131      0.115      1.008   ;
   132      HGR61      1    PTX    H56    132      0.115      1.008   ;
   133      HGR61      1    PTX    H57    133      0.115      1.008   ;
   134      HGR61      1    PTX    H58    134      0.115      1.008   ;
   135      HGR61      1    PTX    H59    135      0.115      1.008   ;
   136      HGR61      1    PTX    H60    136      0.115      1.008   ;
   137      HGR61      1    PTX    H61    137      0.115      1.008   ;
   138      HGR61      1    PTX    H62    138      0.115      1.008   ;
   139      HGR61      1    PTX    H63    139      0.115      1.008   ;
   140      HGR61      1    PTX    H64    140      0.115      1.008   ;
   141       HGA3      1    PTX    H65    141      0.090      1.008   ;
   142       HGA3      1    PTX    H66    142      0.090      1.008   ;
   143       HGA3      1    PTX    H67    143      0.090      1.008   ;
   144       HGA3      1    PTX    H68    144      0.090      1.008   ;
   145       HGA3      1    PTX    H69    145      0.090      1.008   ;
   146       HGA3      1    PTX    H70    146      0.090      1.008   ;
   147       HGA3      1    PTX    H71    147      0.090      1.008   ;
   148       HGA3      1    PTX    H72    148      0.090      1.008   ;
   149       HGA3      1    PTX    H73    149      0.090      1.008   ;

[ bonds ]
;	ai	  aj funct			  c0			c1			  c2			c3
    1     2	 1 ;       CG301      CG331
    1     3	 1 ;       CG301      CG331
    1    14	 1 ;       CG301      OG301
    1    98	 1 ;       CG301      OG301
    2    15	 1 ;       CG331       HGA3
    2    16	 1 ;       CG331       HGA3
    2    17	 1 ;       CG331       HGA3
    3    18	 1 ;       CG331       HGA3
    3    19	 1 ;       CG331       HGA3
    3    20	 1 ;       CG331       HGA3
    4     5	 1 ;       CG311      CG321
    4    13	 1 ;       CG311      CG321
    4    21	 1 ;       CG311       HGA1
    4    14	 1 ;       CG311      OG301
    5     6	 1 ;       CG321      CG321
    5    22	 1 ;       CG321       HGA2
    5    23	 1 ;       CG321       HGA2
    6     7	 1 ;       CG321      CG311
    6    24	 1 ;       CG321       HGA2
    6    25	 1 ;       CG321       HGA2
    7     8	 1 ;       CG311      CG321
    7    12	 1 ;       CG311      CG311
    7    26	 1 ;       CG311       HGA1
    8     9	 1 ;       CG321      CG321
    8    27	 1 ;       CG321       HGA2
    8    28	 1 ;       CG321       HGA2
    9    10	 1 ;       CG321      CG321
    9    29	 1 ;       CG321       HGA2
    9    30	 1 ;       CG321       HGA2
   10    11	 1 ;       CG321      CG321
   10    31	 1 ;       CG321       HGA2
   10    32	 1 ;       CG321       HGA2
   11    12	 1 ;       CG321      CG311
   11    33	 1 ;       CG321       HGA2
   11    34	 1 ;       CG321       HGA2
   12    13	 1 ;       CG311      CG321
   12    35	 1 ;       CG311       HGA1
   13    36	 1 ;       CG321       HGA2
   13    37	 1 ;       CG321       HGA2
   38    67	 1 ;       NG2S1      CG2O1
   38   130	 1 ;       NG2S1       HGP1
   38    66	 1 ;       NG2S1      CG311
   39    40	 1 ;       CG331      CG2O2
   39   100	 1 ;       CG331       HGA3
   39   101	 1 ;       CG331       HGA3
   39   102	 1 ;       CG331       HGA3
   40    86	 1 ;       CG2O2      OG2D1
   40    87	 1 ;       CG2O2      OG302
   41    42	 1 ;       CG311      CG2O5
   41    82	 1 ;       CG311      CG2D1
   41   103	 1 ;       CG311       HGA1
   41    87	 1 ;       CG311      OG302
   42    43	 1 ;       CG2O5      CG301
   42    88	 1 ;       CG2O5      OG2D3
   43    44	 1 ;       CG301      CG331
   43    45	 1 ;       CG301      CG311
   43    52	 1 ;       CG301      CG311
   44   104	 1 ;       CG331       HGA3
   44   105	 1 ;       CG331       HGA3
   44   106	 1 ;       CG331       HGA3
   45    46	 1 ;       CG311      CG321
   45    89	 1 ;       CG311      OG311
   45   107	 1 ;       CG311       HGA1
   46    47	 1 ;       CG321     CG3RC1
   46   109	 1 ;       CG321       HGA2
   46   110	 1 ;       CG321       HGA2
   47    49	 1 ;      CG3RC1     CG3RC1
   47    90	 1 ;      CG3RC1     OG3C51
   47   111	 1 ;      CG3RC1       HGA1
   48    49	 1 ;      CG3C41     CG3RC1
   48   112	 1 ;      CG3C41       HGA2
   48   113	 1 ;      CG3C41       HGA2
   48    90	 1 ;      CG3C41     OG3C51
   49    52	 1 ;      CG3RC1      CG311
   49    91	 1 ;      CG3RC1      OG302
   50    51	 1 ;       CG2O2      CG331
   50    92	 1 ;       CG2O2      OG2D1
   50    91	 1 ;       CG2O2      OG302
   51   114	 1 ;       CG331       HGA3
   51   115	 1 ;       CG331       HGA3
   51   116	 1 ;       CG331       HGA3
   52    53	 1 ;       CG311      CG311
   52   117	 1 ;       CG311       HGA1
   53    61	 1 ;       CG311      CG301
   53    93	 1 ;       CG311      OG302
   53   118	 1 ;       CG311       HGA1
   54    55	 1 ;       CG2O2     CG2R61
   54    94	 1 ;       CG2O2      OG2D1
   54    93	 1 ;       CG2O2      OG302
   55    56	 1 ;      CG2R61     CG2R61
   55    60	 1 ;      CG2R61     CG2R61
   56    57	 1 ;      CG2R61     CG2R61
   56   119	 1 ;      CG2R61      HGR61
   57    58	 1 ;      CG2R61     CG2R61
   57   120	 1 ;      CG2R61      HGR61
   58    59	 1 ;      CG2R61     CG2R61
   58   121	 1 ;      CG2R61      HGR61
   59    60	 1 ;      CG2R61     CG2R61
   59   122	 1 ;      CG2R61      HGR61
   60   123	 1 ;      CG2R61      HGR61
   61    62	 1 ;       CG301      CG321
   61    83	 1 ;       CG301      CG301
   61    95	 1 ;       CG301      OG311
   62    63	 1 ;       CG321      CG311
   62   125	 1 ;       CG321       HGA2
   62   126	 1 ;       CG321       HGA2
   63    80	 1 ;       CG311      CG2D1
   63    96	 1 ;       CG311      OG302
   63   127	 1 ;       CG311       HGA1
   64    65	 1 ;       CG2O2      CG311
   64    97	 1 ;       CG2O2      OG2D1
   64    96	 1 ;       CG2O2      OG302
   65    66	 1 ;       CG311      CG311
   65    98	 1 ;       CG311      OG301
   65   128	 1 ;       CG311       HGA1
   66    74	 1 ;       CG311     CG2R61
   66   129	 1 ;       CG311       HGA1
   67    68	 1 ;       CG2O1     CG2R61
   67    99	 1 ;       CG2O1      OG2D1
   68    69	 1 ;      CG2R61     CG2R61
   68    73	 1 ;      CG2R61     CG2R61
   69    70	 1 ;      CG2R61     CG2R61
   69   131	 1 ;      CG2R61      HGR61
   70    71	 1 ;      CG2R61     CG2R61
   70   132	 1 ;      CG2R61      HGR61
   71    72	 1 ;      CG2R61     CG2R61
   71   133	 1 ;      CG2R61      HGR61
   72    73	 1 ;      CG2R61     CG2R61
   72   134	 1 ;      CG2R61      HGR61
   73   135	 1 ;      CG2R61      HGR61
   74    75	 1 ;      CG2R61     CG2R61
   74    79	 1 ;      CG2R61     CG2R61
   75    76	 1 ;      CG2R61     CG2R61
   75   136	 1 ;      CG2R61      HGR61
   76    77	 1 ;      CG2R61     CG2R61
   76   137	 1 ;      CG2R61      HGR61
   77    78	 1 ;      CG2R61     CG2R61
   77   138	 1 ;      CG2R61      HGR61
   78    79	 1 ;      CG2R61     CG2R61
   78   139	 1 ;      CG2R61      HGR61
   79   140	 1 ;      CG2R61      HGR61
   80    81	 1 ;       CG2D1      CG331
   80    82	 1 ;       CG2D1      CG2D1
   81   141	 1 ;       CG331       HGA3
   81   142	 1 ;       CG331       HGA3
   81   143	 1 ;       CG331       HGA3
   82    83	 1 ;       CG2D1      CG301
   83    84	 1 ;       CG301      CG331
   83    85	 1 ;       CG301      CG331
   84   144	 1 ;       CG331       HGA3
   84   145	 1 ;       CG331       HGA3
   84   146	 1 ;       CG331       HGA3
   85   147	 1 ;       CG331       HGA3
   85   148	 1 ;       CG331       HGA3
   85   149	 1 ;       CG331       HGA3
   89   108	 1 ;       OG311       HGP1
   95   124	 1 ;       OG311       HGP1

[ pairs ]
;	ai	  aj funct			  c0			c1			  c2			c3
    1     5	 1
    1    13	 1
    1    21	 1
    1    64	 1
    1    66	 1
    1   128	 1
    2    18	 1
    2    19	 1
    2    20	 1
    2     4	 1
    2    65	 1
    3    15	 1
    3    16	 1
    3    17	 1
    3     4	 1
    3    65	 1
    4    98	 1
    4     7	 1
    4    24	 1
    4    25	 1
    4    11	 1
    4    35	 1
    5    12	 1
    5    36	 1
    5    37	 1
    5     8	 1
    5    26	 1
    6    13	 1
    6    21	 1
    6    14	 1
    6     9	 1
    6    27	 1
    6    28	 1
    6    11	 1
    6    35	 1
    7    22	 1
    7    23	 1
    7    10	 1
    7    29	 1
    7    30	 1
    7    33	 1
    7    34	 1
    7    36	 1
    7    37	 1
    8    24	 1
    8    25	 1
    8    11	 1
    8    13	 1
    8    35	 1
    8    31	 1
    8    32	 1
    9    12	 1
    9    26	 1
    9    33	 1
    9    34	 1
   10    27	 1
   10    28	 1
   10    13	 1
   10    35	 1
   11    26	 1
   11    29	 1
   11    30	 1
   11    36	 1
   11    37	 1
   12    21	 1
   12    14	 1
   12    24	 1
   12    25	 1
   12    27	 1
   12    28	 1
   12    31	 1
   12    32	 1
   13    22	 1
   13    23	 1
   13    26	 1
   13    33	 1
   13    34	 1
   14    15	 1
   14    16	 1
   14    17	 1
   14    18	 1
   14    19	 1
   14    20	 1
   14    65	 1
   14    22	 1
   14    23	 1
   14    36	 1
   14    37	 1
   15    98	 1
   16    98	 1
   17    98	 1
   18    98	 1
   19    98	 1
   20    98	 1
   21    22	 1
   21    23	 1
   21    36	 1
   21    37	 1
   22    24	 1
   22    25	 1
   23    24	 1
   23    25	 1
   24    26	 1
   25    26	 1
   26    27	 1
   26    28	 1
   26    35	 1
   27    29	 1
   27    30	 1
   28    29	 1
   28    30	 1
   29    31	 1
   29    32	 1
   30    31	 1
   30    32	 1
   31    33	 1
   31    34	 1
   32    33	 1
   32    34	 1
   33    35	 1
   34    35	 1
   35    36	 1
   35    37	 1
   38    64	 1
   38    98	 1
   38   128	 1
   38    75	 1
   38    79	 1
   38    69	 1
   38    73	 1
   39    41	 1
   40    42	 1
   40    82	 1
   40   103	 1
   41    86	 1
   41    44	 1
   41    45	 1
   41    52	 1
   41    63	 1
   41    81	 1
   41    61	 1
   41    84	 1
   41    85	 1
   42    80	 1
   42    83	 1
   42   104	 1
   42   105	 1
   42   106	 1
   42    46	 1
   42    89	 1
   42   107	 1
   42    49	 1
   42    53	 1
   42   117	 1
   43    82	 1
   43   103	 1
   43    87	 1
   43    47	 1
   43   109	 1
   43   110	 1
   43   108	 1
   43    48	 1
   43    91	 1
   43    61	 1
   43    93	 1
   43   118	 1
   44    88	 1
   44    46	 1
   44    89	 1
   44   107	 1
   44    49	 1
   44    53	 1
   44   117	 1
   45    88	 1
   45   104	 1
   45   105	 1
   45   106	 1
   45    49	 1
   45    53	 1
   45   117	 1
   45    90	 1
   45   111	 1
   46    52	 1
   46   108	 1
   46    48	 1
   46    91	 1
   47    89	 1
   47   107	 1
   47   112	 1
   47   113	 1
   47    53	 1
   47   117	 1
   47    50	 1
   48   111	 1
   48    53	 1
   48   117	 1
   48    50	 1
   49   109	 1
   49   110	 1
   49    51	 1
   49    92	 1
   49    61	 1
   49    93	 1
   49   118	 1
   50    52	 1
   52    88	 1
   52   104	 1
   52   105	 1
   52   106	 1
   52    89	 1
   52   107	 1
   52    90	 1
   52   111	 1
   52   112	 1
   52   113	 1
   52    62	 1
   52    83	 1
   52    95	 1
   52    54	 1
   53    91	 1
   53    55	 1
   53    94	 1
   53    63	 1
   53   125	 1
   53   126	 1
   53    82	 1
   53    84	 1
   53    85	 1
   53   124	 1
   54    61	 1
   54   118	 1
   54    57	 1
   54   119	 1
   54    59	 1
   54   123	 1
   55    58	 1
   55   120	 1
   55   122	 1
   56    94	 1
   56    93	 1
   56    59	 1
   56   123	 1
   56   121	 1
   57    60	 1
   57   122	 1
   58   119	 1
   58   123	 1
   59   120	 1
   60    94	 1
   60    93	 1
   60   119	 1
   60   121	 1
   61   117	 1
   61    80	 1
   61    96	 1
   61   127	 1
   61   144	 1
   61   145	 1
   61   146	 1
   61   147	 1
   61   148	 1
   61   149	 1
   62    93	 1
   62   118	 1
   62    82	 1
   62    84	 1
   62    85	 1
   62   124	 1
   62    81	 1
   62    64	 1
   63    83	 1
   63    95	 1
   63    65	 1
   63    97	 1
   63   141	 1
   63   142	 1
   63   143	 1
   64    80	 1
   64   127	 1
   64    74	 1
   64   129	 1
   65    67	 1
   65   130	 1
   65    75	 1
   65    79	 1
   66    68	 1
   66    99	 1
   66    97	 1
   66    96	 1
   66    76	 1
   66   136	 1
   66    78	 1
   66   140	 1
   67    74	 1
   67   129	 1
   67    70	 1
   67   131	 1
   67    72	 1
   67   135	 1
   68   130	 1
   68    71	 1
   68   132	 1
   68   134	 1
   69    99	 1
   69    72	 1
   69   135	 1
   69   133	 1
   70    73	 1
   70   134	 1
   71   131	 1
   71   135	 1
   72   132	 1
   73    99	 1
   73   131	 1
   73   133	 1
   74   130	 1
   74    98	 1
   74   128	 1
   74    77	 1
   74   137	 1
   74   139	 1
   75   129	 1
   75    78	 1
   75   140	 1
   75   138	 1
   76    79	 1
   76   139	 1
   77   136	 1
   77   140	 1
   78   137	 1
   79   129	 1
   79   136	 1
   79   138	 1
   80   103	 1
   80    87	 1
   80   125	 1
   80   126	 1
   80    84	 1
   80    85	 1
   81    96	 1
   81   127	 1
   81    83	 1
   82    88	 1
   82    95	 1
   82    96	 1
   82   127	 1
   82   141	 1
   82   142	 1
   82   143	 1
   82   144	 1
   82   145	 1
   82   146	 1
   82   147	 1
   82   148	 1
   82   149	 1
   83   103	 1
   83    87	 1
   83    93	 1
   83   118	 1
   83   125	 1
   83   126	 1
   83   124	 1
   84    95	 1
   84   147	 1
   84   148	 1
   84   149	 1
   85    95	 1
   85   144	 1
   85   145	 1
   85   146	 1
   86   100	 1
   86   101	 1
   86   102	 1
   87   100	 1
   87   101	 1
   87   102	 1
   87    88	 1
   88   103	 1
   89   109	 1
   89   110	 1
   90   109	 1
   90   110	 1
   90    91	 1
   91   111	 1
   91   112	 1
   91   113	 1
   91   117	 1
   91   114	 1
   91   115	 1
   91   116	 1
   92   114	 1
   92   115	 1
   92   116	 1
   93   117	 1
   93    95	 1
   95   118	 1
   95   125	 1
   95   126	 1
   96   125	 1
   96   126	 1
   96    98	 1
   96   128	 1
   97    98	 1
   97   128	 1
   98   129	 1
   99   130	 1
  107   109	 1
  107   110	 1
  107   108	 1
  109   111	 1
  110   111	 1
  117   118	 1
  119   120	 1
  120   121	 1
  121   122	 1
  122   123	 1
  125   127	 1
  126   127	 1
  128   129	 1
  129   130	 1
  131   132	 1
  132   133	 1
  133   134	 1
  134   135	 1
  136   137	 1
  137   138	 1
  138   139	 1
  139   140	 1

[ angles ]
;	ai	  aj	ak funct			c0			  c1			c2			  c3
    2     1     3	5 ;      CG331      CG301      CG331
    2     1    14	5 ;      CG331      CG301      OG301
    2     1    98	5 ;      CG331      CG301      OG301
    3     1    14	5 ;      CG331      CG301      OG301
    3     1    98	5 ;      CG331      CG301      OG301
   14     1    98	5 ;      OG301      CG301      OG301
    1     2    15	5 ;      CG301      CG331       HGA3
    1     2    16	5 ;      CG301      CG331       HGA3
    1     2    17	5 ;      CG301      CG331       HGA3
   15     2    16	5 ;       HGA3      CG331       HGA3
   15     2    17	5 ;       HGA3      CG331       HGA3
   16     2    17	5 ;       HGA3      CG331       HGA3
    1     3    18	5 ;      CG301      CG331       HGA3
    1     3    19	5 ;      CG301      CG331       HGA3
    1     3    20	5 ;      CG301      CG331       HGA3
   18     3    19	5 ;       HGA3      CG331       HGA3
   18     3    20	5 ;       HGA3      CG331       HGA3
   19     3    20	5 ;       HGA3      CG331       HGA3
    5     4    13	5 ;      CG321      CG311      CG321
    5     4    21	5 ;      CG321      CG311       HGA1
    5     4    14	5 ;      CG321      CG311      OG301
   13     4    21	5 ;      CG321      CG311       HGA1
   13     4    14	5 ;      CG321      CG311      OG301
   21     4    14	5 ;       HGA1      CG311      OG301
    4     5     6	5 ;      CG311      CG321      CG321
    4     5    22	5 ;      CG311      CG321       HGA2
    4     5    23	5 ;      CG311      CG321       HGA2
    6     5    22	5 ;      CG321      CG321       HGA2
    6     5    23	5 ;      CG321      CG321       HGA2
   22     5    23	5 ;       HGA2      CG321       HGA2
    5     6     7	5 ;      CG321      CG321      CG311
    5     6    24	5 ;      CG321      CG321       HGA2
    5     6    25	5 ;      CG321      CG321       HGA2
    7     6    24	5 ;      CG311      CG321       HGA2
    7     6    25	5 ;      CG311      CG321       HGA2
   24     6    25	5 ;       HGA2      CG321       HGA2
    6     7     8	5 ;      CG321      CG311      CG321
    6     7    12	5 ;      CG321      CG311      CG311
    6     7    26	5 ;      CG321      CG311       HGA1
    8     7    12	5 ;      CG321      CG311      CG311
    8     7    26	5 ;      CG321      CG311       HGA1
   12     7    26	5 ;      CG311      CG311       HGA1
    7     8     9	5 ;      CG311      CG321      CG321
    7     8    27	5 ;      CG311      CG321       HGA2
    7     8    28	5 ;      CG311      CG321       HGA2
    9     8    27	5 ;      CG321      CG321       HGA2
    9     8    28	5 ;      CG321      CG321       HGA2
   27     8    28	5 ;       HGA2      CG321       HGA2
    8     9    10	5 ;      CG321      CG321      CG321
    8     9    29	5 ;      CG321      CG321       HGA2
    8     9    30	5 ;      CG321      CG321       HGA2
   10     9    29	5 ;      CG321      CG321       HGA2
   10     9    30	5 ;      CG321      CG321       HGA2
   29     9    30	5 ;       HGA2      CG321       HGA2
    9    10    11	5 ;      CG321      CG321      CG321
    9    10    31	5 ;      CG321      CG321       HGA2
    9    10    32	5 ;      CG321      CG321       HGA2
   11    10    31	5 ;      CG321      CG321       HGA2
   11    10    32	5 ;      CG321      CG321       HGA2
   31    10    32	5 ;       HGA2      CG321       HGA2
   10    11    12	5 ;      CG321      CG321      CG311
   10    11    33	5 ;      CG321      CG321       HGA2
   10    11    34	5 ;      CG321      CG321       HGA2
   12    11    33	5 ;      CG311      CG321       HGA2
   12    11    34	5 ;      CG311      CG321       HGA2
   33    11    34	5 ;       HGA2      CG321       HGA2
    7    12    11	5 ;      CG311      CG311      CG321
    7    12    13	5 ;      CG311      CG311      CG321
    7    12    35	5 ;      CG311      CG311       HGA1
   11    12    13	5 ;      CG321      CG311      CG321
   11    12    35	5 ;      CG321      CG311       HGA1
   13    12    35	5 ;      CG321      CG311       HGA1
    4    13    12	5 ;      CG311      CG321      CG311
    4    13    36	5 ;      CG311      CG321       HGA2
    4    13    37	5 ;      CG311      CG321       HGA2
   12    13    36	5 ;      CG311      CG321       HGA2
   12    13    37	5 ;      CG311      CG321       HGA2
   36    13    37	5 ;       HGA2      CG321       HGA2
    1    14     4	5 ;      CG301      OG301      CG311
   67    38   130	5 ;      CG2O1      NG2S1       HGP1
   67    38    66	5 ;      CG2O1      NG2S1      CG311
  130    38    66	5 ;       HGP1      NG2S1      CG311
   40    39   100	5 ;      CG2O2      CG331       HGA3
   40    39   101	5 ;      CG2O2      CG331       HGA3
   40    39   102	5 ;      CG2O2      CG331       HGA3
  100    39   101	5 ;       HGA3      CG331       HGA3
  100    39   102	5 ;       HGA3      CG331       HGA3
  101    39   102	5 ;       HGA3      CG331       HGA3
   39    40    86	5 ;      CG331      CG2O2      OG2D1
   39    40    87	5 ;      CG331      CG2O2      OG302
   86    40    87	5 ;      OG2D1      CG2O2      OG302
   42    41    82	5 ;      CG2O5      CG311      CG2D1
   42    41   103	5 ;      CG2O5      CG311       HGA1
   42    41    87	5 ;      CG2O5      CG311      OG302
   82    41   103	5 ;      CG2D1      CG311       HGA1
   82    41    87	5 ;      CG2D1      CG311      OG302
  103    41    87	5 ;       HGA1      CG311      OG302
   41    42    43	5 ;      CG311      CG2O5      CG301
   41    42    88	5 ;      CG311      CG2O5      OG2D3
   43    42    88	5 ;      CG301      CG2O5      OG2D3
   42    43    44	5 ;      CG2O5      CG301      CG331
   42    43    45	5 ;      CG2O5      CG301      CG311
   42    43    52	5 ;      CG2O5      CG301      CG311
   44    43    45	5 ;      CG331      CG301      CG311
   44    43    52	5 ;      CG331      CG301      CG311
   45    43    52	5 ;      CG311      CG301      CG311
   43    44   104	5 ;      CG301      CG331       HGA3
   43    44   105	5 ;      CG301      CG331       HGA3
   43    44   106	5 ;      CG301      CG331       HGA3
  104    44   105	5 ;       HGA3      CG331       HGA3
  104    44   106	5 ;       HGA3      CG331       HGA3
  105    44   106	5 ;       HGA3      CG331       HGA3
   43    45    46	5 ;      CG301      CG311      CG321
   43    45    89	5 ;      CG301      CG311      OG311
   43    45   107	5 ;      CG301      CG311       HGA1
   46    45    89	5 ;      CG321      CG311      OG311
   46    45   107	5 ;      CG321      CG311       HGA1
   89    45   107	5 ;      OG311      CG311       HGA1
   45    46    47	5 ;      CG311      CG321     CG3RC1
   45    46   109	5 ;      CG311      CG321       HGA2
   45    46   110	5 ;      CG311      CG321       HGA2
   47    46   109	5 ;     CG3RC1      CG321       HGA2
   47    46   110	5 ;     CG3RC1      CG321       HGA2
  109    46   110	5 ;       HGA2      CG321       HGA2
   46    47    49	5 ;      CG321     CG3RC1     CG3RC1
   46    47    90	5 ;      CG321     CG3RC1     OG3C51
   46    47   111	5 ;      CG321     CG3RC1       HGA1
   49    47    90	5 ;     CG3RC1     CG3RC1     OG3C51
   49    47   111	5 ;     CG3RC1     CG3RC1       HGA1
   90    47   111	5 ;     OG3C51     CG3RC1       HGA1
   49    48   112	5 ;     CG3RC1     CG3C41       HGA2
   49    48   113	5 ;     CG3RC1     CG3C41       HGA2
   49    48    90	5 ;     CG3RC1     CG3C41     OG3C51
  112    48   113	5 ;       HGA2     CG3C41       HGA2
  112    48    90	5 ;       HGA2     CG3C41     OG3C51
  113    48    90	5 ;       HGA2     CG3C41     OG3C51
   47    49    48	5 ;     CG3RC1     CG3RC1     CG3C41
   47    49    52	5 ;     CG3RC1     CG3RC1      CG311
   47    49    91	5 ;     CG3RC1     CG3RC1      OG302
   48    49    52	5 ;     CG3C41     CG3RC1      CG311
   48    49    91	5 ;     CG3C41     CG3RC1      OG302
   52    49    91	5 ;      CG311     CG3RC1      OG302
   51    50    92	5 ;      CG331      CG2O2      OG2D1
   51    50    91	5 ;      CG331      CG2O2      OG302
   92    50    91	5 ;      OG2D1      CG2O2      OG302
   50    51   114	5 ;      CG2O2      CG331       HGA3
   50    51   115	5 ;      CG2O2      CG331       HGA3
   50    51   116	5 ;      CG2O2      CG331       HGA3
  114    51   115	5 ;       HGA3      CG331       HGA3
  114    51   116	5 ;       HGA3      CG331       HGA3
  115    51   116	5 ;       HGA3      CG331       HGA3
   43    52    49	5 ;      CG301      CG311     CG3RC1
   43    52    53	5 ;      CG301      CG311      CG311
   43    52   117	5 ;      CG301      CG311       HGA1
   49    52    53	5 ;     CG3RC1      CG311      CG311
   49    52   117	5 ;     CG3RC1      CG311       HGA1
   53    52   117	5 ;      CG311      CG311       HGA1
   52    53    61	5 ;      CG311      CG311      CG301
   52    53    93	5 ;      CG311      CG311      OG302
   52    53   118	5 ;      CG311      CG311       HGA1
   61    53    93	5 ;      CG301      CG311      OG302
   61    53   118	5 ;      CG301      CG311       HGA1
   93    53   118	5 ;      OG302      CG311       HGA1
   55    54    94	5 ;     CG2R61      CG2O2      OG2D1
   55    54    93	5 ;     CG2R61      CG2O2      OG302
   94    54    93	5 ;      OG2D1      CG2O2      OG302
   54    55    56	5 ;      CG2O2     CG2R61     CG2R61
   54    55    60	5 ;      CG2O2     CG2R61     CG2R61
   56    55    60	5 ;     CG2R61     CG2R61     CG2R61
   55    56    57	5 ;     CG2R61     CG2R61     CG2R61
   55    56   119	5 ;     CG2R61     CG2R61      HGR61
   57    56   119	5 ;     CG2R61     CG2R61      HGR61
   56    57    58	5 ;     CG2R61     CG2R61     CG2R61
   56    57   120	5 ;     CG2R61     CG2R61      HGR61
   58    57   120	5 ;     CG2R61     CG2R61      HGR61
   57    58    59	5 ;     CG2R61     CG2R61     CG2R61
   57    58   121	5 ;     CG2R61     CG2R61      HGR61
   59    58   121	5 ;     CG2R61     CG2R61      HGR61
   58    59    60	5 ;     CG2R61     CG2R61     CG2R61
   58    59   122	5 ;     CG2R61     CG2R61      HGR61
   60    59   122	5 ;     CG2R61     CG2R61      HGR61
   55    60    59	5 ;     CG2R61     CG2R61     CG2R61
   55    60   123	5 ;     CG2R61     CG2R61      HGR61
   59    60   123	5 ;     CG2R61     CG2R61      HGR61
   53    61    62	5 ;      CG311      CG301      CG321
   53    61    83	5 ;      CG311      CG301      CG301
   53    61    95	5 ;      CG311      CG301      OG311
   62    61    83	5 ;      CG321      CG301      CG301
   62    61    95	5 ;      CG321      CG301      OG311
   83    61    95	5 ;      CG301      CG301      OG311
   61    62    63	5 ;      CG301      CG321      CG311
   61    62   125	5 ;      CG301      CG321       HGA2
   61    62   126	5 ;      CG301      CG321       HGA2
   63    62   125	5 ;      CG311      CG321       HGA2
   63    62   126	5 ;      CG311      CG321       HGA2
  125    62   126	5 ;       HGA2      CG321       HGA2
   62    63    80	5 ;      CG321      CG311      CG2D1
   62    63    96	5 ;      CG321      CG311      OG302
   62    63   127	5 ;      CG321      CG311       HGA1
   80    63    96	5 ;      CG2D1      CG311      OG302
   80    63   127	5 ;      CG2D1      CG311       HGA1
   96    63   127	5 ;      OG302      CG311       HGA1
   65    64    97	5 ;      CG311      CG2O2      OG2D1
   65    64    96	5 ;      CG311      CG2O2      OG302
   97    64    96	5 ;      OG2D1      CG2O2      OG302
   64    65    66	5 ;      CG2O2      CG311      CG311
   64    65    98	5 ;      CG2O2      CG311      OG301
   64    65   128	5 ;      CG2O2      CG311       HGA1
   66    65    98	5 ;      CG311      CG311      OG301
   66    65   128	5 ;      CG311      CG311       HGA1
   98    65   128	5 ;      OG301      CG311       HGA1
   65    66    38	5 ;      CG311      CG311      NG2S1
   65    66    74	5 ;      CG311      CG311     CG2R61
   65    66   129	5 ;      CG311      CG311       HGA1
   38    66    74	5 ;      NG2S1      CG311     CG2R61
   38    66   129	5 ;      NG2S1      CG311       HGA1
   74    66   129	5 ;     CG2R61      CG311       HGA1
   38    67    68	5 ;      NG2S1      CG2O1     CG2R61
   38    67    99	5 ;      NG2S1      CG2O1      OG2D1
   68    67    99	5 ;     CG2R61      CG2O1      OG2D1
   67    68    69	5 ;      CG2O1     CG2R61     CG2R61
   67    68    73	5 ;      CG2O1     CG2R61     CG2R61
   69    68    73	5 ;     CG2R61     CG2R61     CG2R61
   68    69    70	5 ;     CG2R61     CG2R61     CG2R61
   68    69   131	5 ;     CG2R61     CG2R61      HGR61
   70    69   131	5 ;     CG2R61     CG2R61      HGR61
   69    70    71	5 ;     CG2R61     CG2R61     CG2R61
   69    70   132	5 ;     CG2R61     CG2R61      HGR61
   71    70   132	5 ;     CG2R61     CG2R61      HGR61
   70    71    72	5 ;     CG2R61     CG2R61     CG2R61
   70    71   133	5 ;     CG2R61     CG2R61      HGR61
   72    71   133	5 ;     CG2R61     CG2R61      HGR61
   71    72    73	5 ;     CG2R61     CG2R61     CG2R61
   71    72   134	5 ;     CG2R61     CG2R61      HGR61
   73    72   134	5 ;     CG2R61     CG2R61      HGR61
   68    73    72	5 ;     CG2R61     CG2R61     CG2R61
   68    73   135	5 ;     CG2R61     CG2R61      HGR61
   72    73   135	5 ;     CG2R61     CG2R61      HGR61
   66    74    75	5 ;      CG311     CG2R61     CG2R61
   66    74    79	5 ;      CG311     CG2R61     CG2R61
   75    74    79	5 ;     CG2R61     CG2R61     CG2R61
   74    75    76	5 ;     CG2R61     CG2R61     CG2R61
   74    75   136	5 ;     CG2R61     CG2R61      HGR61
   76    75   136	5 ;     CG2R61     CG2R61      HGR61
   75    76    77	5 ;     CG2R61     CG2R61     CG2R61
   75    76   137	5 ;     CG2R61     CG2R61      HGR61
   77    76   137	5 ;     CG2R61     CG2R61      HGR61
   76    77    78	5 ;     CG2R61     CG2R61     CG2R61
   76    77   138	5 ;     CG2R61     CG2R61      HGR61
   78    77   138	5 ;     CG2R61     CG2R61      HGR61
   77    78    79	5 ;     CG2R61     CG2R61     CG2R61
   77    78   139	5 ;     CG2R61     CG2R61      HGR61
   79    78   139	5 ;     CG2R61     CG2R61      HGR61
   74    79    78	5 ;     CG2R61     CG2R61     CG2R61
   74    79   140	5 ;     CG2R61     CG2R61      HGR61
   78    79   140	5 ;     CG2R61     CG2R61      HGR61
   63    80    81	5 ;      CG311      CG2D1      CG331
   63    80    82	5 ;      CG311      CG2D1      CG2D1
   81    80    82	5 ;      CG331      CG2D1      CG2D1
   80    81   141	5 ;      CG2D1      CG331       HGA3
   80    81   142	5 ;      CG2D1      CG331       HGA3
   80    81   143	5 ;      CG2D1      CG331       HGA3
  141    81   142	5 ;       HGA3      CG331       HGA3
  141    81   143	5 ;       HGA3      CG331       HGA3
  142    81   143	5 ;       HGA3      CG331       HGA3
   41    82    80	5 ;      CG311      CG2D1      CG2D1
   41    82    83	5 ;      CG311      CG2D1      CG301
   80    82    83	5 ;      CG2D1      CG2D1      CG301
   61    83    82	5 ;      CG301      CG301      CG2D1
   61    83    84	5 ;      CG301      CG301      CG331
   61    83    85	5 ;      CG301      CG301      CG331
   82    83    84	5 ;      CG2D1      CG301      CG331
   82    83    85	5 ;      CG2D1      CG301      CG331
   84    83    85	5 ;      CG331      CG301      CG331
   83    84   144	5 ;      CG301      CG331       HGA3
   83    84   145	5 ;      CG301      CG331       HGA3
   83    84   146	5 ;      CG301      CG331       HGA3
  144    84   145	5 ;       HGA3      CG331       HGA3
  144    84   146	5 ;       HGA3      CG331       HGA3
  145    84   146	5 ;       HGA3      CG331       HGA3
   83    85   147	5 ;      CG301      CG331       HGA3
   83    85   148	5 ;      CG301      CG331       HGA3
   83    85   149	5 ;      CG301      CG331       HGA3
  147    85   148	5 ;       HGA3      CG331       HGA3
  147    85   149	5 ;       HGA3      CG331       HGA3
  148    85   149	5 ;       HGA3      CG331       HGA3
   40    87    41	5 ;      CG2O2      OG302      CG311
   45    89   108	5 ;      CG311      OG311       HGP1
   47    90    48	5 ;     CG3RC1     OG3C51     CG3C41
   49    91    50	5 ;     CG3RC1      OG302      CG2O2
   53    93    54	5 ;      CG311      OG302      CG2O2
   61    95   124	5 ;      CG301      OG311       HGP1
   63    96    64	5 ;      CG311      OG302      CG2O2
   65    98     1	5 ;      CG311      OG301      CG301

[ dihedrals ]
;	ai	  aj	ak	  al funct			  c0			c1			  c2			c3			  c4			c5
    3     1     2    15	 9 ;      CG331      CG301      CG331       HGA3
    3     1     2    16	 9 ;      CG331      CG301      CG331       HGA3
    3     1     2    17	 9 ;      CG331      CG301      CG331       HGA3
   14     1     2    15	 9 ;      OG301      CG301      CG331       HGA3
   14     1     2    16	 9 ;      OG301      CG301      CG331       HGA3
   14     1     2    17	 9 ;      OG301      CG301      CG331       HGA3
   98     1     2    15	 9 ;      OG301      CG301      CG331       HGA3
   98     1     2    16	 9 ;      OG301      CG301      CG331       HGA3
   98     1     2    17	 9 ;      OG301      CG301      CG331       HGA3
    2     1     3    18	 9 ;      CG331      CG301      CG331       HGA3
    2     1     3    19	 9 ;      CG331      CG301      CG331       HGA3
    2     1     3    20	 9 ;      CG331      CG301      CG331       HGA3
   14     1     3    18	 9 ;      OG301      CG301      CG331       HGA3
   14     1     3    19	 9 ;      OG301      CG301      CG331       HGA3
   14     1     3    20	 9 ;      OG301      CG301      CG331       HGA3
   98     1     3    18	 9 ;      OG301      CG301      CG331       HGA3
   98     1     3    19	 9 ;      OG301      CG301      CG331       HGA3
   98     1     3    20	 9 ;      OG301      CG301      CG331       HGA3
    2     1    14     4	 9 ;      CG331      CG301      OG301      CG311
    3     1    14     4	 9 ;      CG331      CG301      OG301      CG311
   98     1    14     4	 9 ;      OG301      CG301      OG301      CG311
    2     1    98    65	 9 ;      CG331      CG301      OG301      CG311
    3     1    98    65	 9 ;      CG331      CG301      OG301      CG311
   14     1    98    65	 9 ;      OG301      CG301      OG301      CG311
   13     4     5     6	 9 ;      CG321      CG311      CG321      CG321
   13     4     5    22	 9 ;      CG321      CG311      CG321       HGA2
   13     4     5    23	 9 ;      CG321      CG311      CG321       HGA2
   21     4     5     6	 9 ;       HGA1      CG311      CG321      CG321
   21     4     5    22	 9 ;       HGA1      CG311      CG321       HGA2
   21     4     5    23	 9 ;       HGA1      CG311      CG321       HGA2
   14     4     5     6	 9 ;      OG301      CG311      CG321      CG321
   14     4     5    22	 9 ;      OG301      CG311      CG321       HGA2
   14     4     5    23	 9 ;      OG301      CG311      CG321       HGA2
    5     4    13    12	 9 ;      CG321      CG311      CG321      CG311
    5     4    13    36	 9 ;      CG321      CG311      CG321       HGA2
    5     4    13    37	 9 ;      CG321      CG311      CG321       HGA2
   21     4    13    12	 9 ;       HGA1      CG311      CG321      CG311
   21     4    13    36	 9 ;       HGA1      CG311      CG321       HGA2
   21     4    13    37	 9 ;       HGA1      CG311      CG321       HGA2
   14     4    13    12	 9 ;      OG301      CG311      CG321      CG311
   14     4    13    36	 9 ;      OG301      CG311      CG321       HGA2
   14     4    13    37	 9 ;      OG301      CG311      CG321       HGA2
    5     4    14     1	 9 ;      CG321      CG311      OG301      CG301
   13     4    14     1	 9 ;      CG321      CG311      OG301      CG301
   21     4    14     1	 9 ;       HGA1      CG311      OG301      CG301
    4     5     6     7	 9 ;      CG311      CG321      CG321      CG311
    4     5     6    24	 9 ;      CG311      CG321      CG321       HGA2
    4     5     6    25	 9 ;      CG311      CG321      CG321       HGA2
   22     5     6     7	 9 ;       HGA2      CG321      CG321      CG311
   22     5     6    24	 9 ;       HGA2      CG321      CG321       HGA2
   22     5     6    25	 9 ;       HGA2      CG321      CG321       HGA2
   23     5     6     7	 9 ;       HGA2      CG321      CG321      CG311
   23     5     6    24	 9 ;       HGA2      CG321      CG321       HGA2
   23     5     6    25	 9 ;       HGA2      CG321      CG321       HGA2
    5     6     7     8	 9 ;      CG321      CG321      CG311      CG321
    5     6     7    12	 9 ;      CG321      CG321      CG311      CG311
    5     6     7    26	 9 ;      CG321      CG321      CG311       HGA1
   24     6     7     8	 9 ;       HGA2      CG321      CG311      CG321
   24     6     7    12	 9 ;       HGA2      CG321      CG311      CG311
   24     6     7    26	 9 ;       HGA2      CG321      CG311       HGA1
   25     6     7     8	 9 ;       HGA2      CG321      CG311      CG321
   25     6     7    12	 9 ;       HGA2      CG321      CG311      CG311
   25     6     7    26	 9 ;       HGA2      CG321      CG311       HGA1
    6     7     8     9	 9 ;      CG321      CG311      CG321      CG321
    6     7     8    27	 9 ;      CG321      CG311      CG321       HGA2
    6     7     8    28	 9 ;      CG321      CG311      CG321       HGA2
   12     7     8     9	 9 ;      CG311      CG311      CG321      CG321
   12     7     8    27	 9 ;      CG311      CG311      CG321       HGA2
   12     7     8    28	 9 ;      CG311      CG311      CG321       HGA2
   26     7     8     9	 9 ;       HGA1      CG311      CG321      CG321
   26     7     8    27	 9 ;       HGA1      CG311      CG321       HGA2
   26     7     8    28	 9 ;       HGA1      CG311      CG321       HGA2
    6     7    12    11	 9 ;      CG321      CG311      CG311      CG321
    6     7    12    13	 9 ;      CG321      CG311      CG311      CG321
    6     7    12    35	 9 ;      CG321      CG311      CG311       HGA1
    8     7    12    11	 9 ;      CG321      CG311      CG311      CG321
    8     7    12    13	 9 ;      CG321      CG311      CG311      CG321
    8     7    12    35	 9 ;      CG321      CG311      CG311       HGA1
   26     7    12    11	 9 ;       HGA1      CG311      CG311      CG321
   26     7    12    13	 9 ;       HGA1      CG311      CG311      CG321
   26     7    12    35	 9 ;       HGA1      CG311      CG311       HGA1
    7     8     9    10	 9 ;      CG311      CG321      CG321      CG321
    7     8     9    29	 9 ;      CG311      CG321      CG321       HGA2
    7     8     9    30	 9 ;      CG311      CG321      CG321       HGA2
   27     8     9    10	 9 ;       HGA2      CG321      CG321      CG321
   27     8     9    29	 9 ;       HGA2      CG321      CG321       HGA2
   27     8     9    30	 9 ;       HGA2      CG321      CG321       HGA2
   28     8     9    10	 9 ;       HGA2      CG321      CG321      CG321
   28     8     9    29	 9 ;       HGA2      CG321      CG321       HGA2
   28     8     9    30	 9 ;       HGA2      CG321      CG321       HGA2
    8     9    10    11	 9 ;      CG321      CG321      CG321      CG321
    8     9    10    31	 9 ;      CG321      CG321      CG321       HGA2
    8     9    10    32	 9 ;      CG321      CG321      CG321       HGA2
   29     9    10    11	 9 ;       HGA2      CG321      CG321      CG321
   29     9    10    31	 9 ;       HGA2      CG321      CG321       HGA2
   29     9    10    32	 9 ;       HGA2      CG321      CG321       HGA2
   30     9    10    11	 9 ;       HGA2      CG321      CG321      CG321
   30     9    10    31	 9 ;       HGA2      CG321      CG321       HGA2
   30     9    10    32	 9 ;       HGA2      CG321      CG321       HGA2
    9    10    11    12	 9 ;      CG321      CG321      CG321      CG311
    9    10    11    33	 9 ;      CG321      CG321      CG321       HGA2
    9    10    11    34	 9 ;      CG321      CG321      CG321       HGA2
   31    10    11    12	 9 ;       HGA2      CG321      CG321      CG311
   31    10    11    33	 9 ;       HGA2      CG321      CG321       HGA2
   31    10    11    34	 9 ;       HGA2      CG321      CG321       HGA2
   32    10    11    12	 9 ;       HGA2      CG321      CG321      CG311
   32    10    11    33	 9 ;       HGA2      CG321      CG321       HGA2
   32    10    11    34	 9 ;       HGA2      CG321      CG321       HGA2
   10    11    12     7	 9 ;      CG321      CG321      CG311      CG311
   10    11    12    13	 9 ;      CG321      CG321      CG311      CG321
   10    11    12    35	 9 ;      CG321      CG321      CG311       HGA1
   33    11    12     7	 9 ;       HGA2      CG321      CG311      CG311
   33    11    12    13	 9 ;       HGA2      CG321      CG311      CG321
   33    11    12    35	 9 ;       HGA2      CG321      CG311       HGA1
   34    11    12     7	 9 ;       HGA2      CG321      CG311      CG311
   34    11    12    13	 9 ;       HGA2      CG321      CG311      CG321
   34    11    12    35	 9 ;       HGA2      CG321      CG311       HGA1
    7    12    13     4	 9 ;      CG311      CG311      CG321      CG311
    7    12    13    36	 9 ;      CG311      CG311      CG321       HGA2
    7    12    13    37	 9 ;      CG311      CG311      CG321       HGA2
   11    12    13     4	 9 ;      CG321      CG311      CG321      CG311
   11    12    13    36	 9 ;      CG321      CG311      CG321       HGA2
   11    12    13    37	 9 ;      CG321      CG311      CG321       HGA2
   35    12    13     4	 9 ;       HGA1      CG311      CG321      CG311
   35    12    13    36	 9 ;       HGA1      CG311      CG321       HGA2
   35    12    13    37	 9 ;       HGA1      CG311      CG321       HGA2
  130    38    67    68	 9 ;       HGP1      NG2S1      CG2O1     CG2R61
  130    38    67    99	 9 ;       HGP1      NG2S1      CG2O1      OG2D1
   66    38    67    68	 9 ;      CG311      NG2S1      CG2O1     CG2R61
   66    38    67    99	 9 ;      CG311      NG2S1      CG2O1      OG2D1
   67    38    66    65	 9 ;      CG2O1      NG2S1      CG311      CG311
   67    38    66    74	 9 ;      CG2O1      NG2S1      CG311     CG2R61
   67    38    66   129	 9 ;      CG2O1      NG2S1      CG311       HGA1
  130    38    66    65	 9 ;       HGP1      NG2S1      CG311      CG311
  130    38    66    74	 9 ;       HGP1      NG2S1      CG311     CG2R61
  130    38    66   129	 9 ;       HGP1      NG2S1      CG311       HGA1
  100    39    40    86	 9 ;       HGA3      CG331      CG2O2      OG2D1
  100    39    40    87	 9 ;       HGA3      CG331      CG2O2      OG302
  101    39    40    86	 9 ;       HGA3      CG331      CG2O2      OG2D1
  101    39    40    87	 9 ;       HGA3      CG331      CG2O2      OG302
  102    39    40    86	 9 ;       HGA3      CG331      CG2O2      OG2D1
  102    39    40    87	 9 ;       HGA3      CG331      CG2O2      OG302
   39    40    87    41	 9 ;      CG331      CG2O2      OG302      CG311
   86    40    87    41	 9 ;      OG2D1      CG2O2      OG302      CG311
   82    41    42    43	 9 ;      CG2D1      CG311      CG2O5      CG301
   82    41    42    88	 9 ;      CG2D1      CG311      CG2O5      OG2D3
  103    41    42    43	 9 ;       HGA1      CG311      CG2O5      CG301
  103    41    42    88	 9 ;       HGA1      CG311      CG2O5      OG2D3
   87    41    42    43	 9 ;      OG302      CG311      CG2O5      CG301
   87    41    42    88	 9 ;      OG302      CG311      CG2O5      OG2D3
   42    41    82    80	 9 ;      CG2O5      CG311      CG2D1      CG2D1
   42    41    82    83	 9 ;      CG2O5      CG311      CG2D1      CG301
  103    41    82    80	 9 ;       HGA1      CG311      CG2D1      CG2D1
  103    41    82    83	 9 ;       HGA1      CG311      CG2D1      CG301
   87    41    82    80	 9 ;      OG302      CG311      CG2D1      CG2D1
   87    41    82    83	 9 ;      OG302      CG311      CG2D1      CG301
   42    41    87    40	 9 ;      CG2O5      CG311      OG302      CG2O2
   82    41    87    40	 9 ;      CG2D1      CG311      OG302      CG2O2
  103    41    87    40	 9 ;       HGA1      CG311      OG302      CG2O2
   41    42    43    44	 9 ;      CG311      CG2O5      CG301      CG331
   41    42    43    45	 9 ;      CG311      CG2O5      CG301      CG311
   41    42    43    52	 9 ;      CG311      CG2O5      CG301      CG311
   88    42    43    44	 9 ;      OG2D3      CG2O5      CG301      CG331
   88    42    43    45	 9 ;      OG2D3      CG2O5      CG301      CG311
   88    42    43    52	 9 ;      OG2D3      CG2O5      CG301      CG311
   42    43    44   104	 9 ;      CG2O5      CG301      CG331       HGA3
   42    43    44   105	 9 ;      CG2O5      CG301      CG331       HGA3
   42    43    44   106	 9 ;      CG2O5      CG301      CG331       HGA3
   45    43    44   104	 9 ;      CG311      CG301      CG331       HGA3
   45    43    44   105	 9 ;      CG311      CG301      CG331       HGA3
   45    43    44   106	 9 ;      CG311      CG301      CG331       HGA3
   52    43    44   104	 9 ;      CG311      CG301      CG331       HGA3
   52    43    44   105	 9 ;      CG311      CG301      CG331       HGA3
   52    43    44   106	 9 ;      CG311      CG301      CG331       HGA3
   42    43    45    46	 9 ;      CG2O5      CG301      CG311      CG321
   42    43    45    89	 9 ;      CG2O5      CG301      CG311      OG311
   42    43    45   107	 9 ;      CG2O5      CG301      CG311       HGA1
   44    43    45    46	 9 ;      CG331      CG301      CG311      CG321
   44    43    45    89	 9 ;      CG331      CG301      CG311      OG311
   44    43    45   107	 9 ;      CG331      CG301      CG311       HGA1
   52    43    45    46	 9 ;      CG311      CG301      CG311      CG321
   52    43    45    89	 9 ;      CG311      CG301      CG311      OG311
   52    43    45   107	 9 ;      CG311      CG301      CG311       HGA1
   42    43    52    49	 9 ;      CG2O5      CG301      CG311     CG3RC1
   42    43    52    53	 9 ;      CG2O5      CG301      CG311      CG311
   42    43    52   117	 9 ;      CG2O5      CG301      CG311       HGA1
   44    43    52    49	 9 ;      CG331      CG301      CG311     CG3RC1
   44    43    52    53	 9 ;      CG331      CG301      CG311      CG311
   44    43    52   117	 9 ;      CG331      CG301      CG311       HGA1
   45    43    52    49	 9 ;      CG311      CG301      CG311     CG3RC1
   45    43    52    53	 9 ;      CG311      CG301      CG311      CG311
   45    43    52   117	 9 ;      CG311      CG301      CG311       HGA1
   43    45    46    47	 9 ;      CG301      CG311      CG321     CG3RC1
   43    45    46   109	 9 ;      CG301      CG311      CG321       HGA2
   43    45    46   110	 9 ;      CG301      CG311      CG321       HGA2
   89    45    46    47	 9 ;      OG311      CG311      CG321     CG3RC1
   89    45    46   109	 9 ;      OG311      CG311      CG321       HGA2
   89    45    46   110	 9 ;      OG311      CG311      CG321       HGA2
  107    45    46    47	 9 ;       HGA1      CG311      CG321     CG3RC1
  107    45    46   109	 9 ;       HGA1      CG311      CG321       HGA2
  107    45    46   110	 9 ;       HGA1      CG311      CG321       HGA2
   43    45    89   108	 9 ;      CG301      CG311      OG311       HGP1
   46    45    89   108	 9 ;      CG321      CG311      OG311       HGP1
  107    45    89   108	 9 ;       HGA1      CG311      OG311       HGP1
   45    46    47    49	 9 ;      CG311      CG321     CG3RC1     CG3RC1
   45    46    47    90	 9 ;      CG311      CG321     CG3RC1     OG3C51
   45    46    47   111	 9 ;      CG311      CG321     CG3RC1       HGA1
  109    46    47    49	 9 ;       HGA2      CG321     CG3RC1     CG3RC1
  109    46    47    90	 9 ;       HGA2      CG321     CG3RC1     OG3C51
  109    46    47   111	 9 ;       HGA2      CG321     CG3RC1       HGA1
  110    46    47    49	 9 ;       HGA2      CG321     CG3RC1     CG3RC1
  110    46    47    90	 9 ;       HGA2      CG321     CG3RC1     OG3C51
  110    46    47   111	 9 ;       HGA2      CG321     CG3RC1       HGA1
   46    47    49    48	 9 ;      CG321     CG3RC1     CG3RC1     CG3C41
   46    47    49    52	 9 ;      CG321     CG3RC1     CG3RC1      CG311
   46    47    49    91	 9 ;      CG321     CG3RC1     CG3RC1      OG302
   90    47    49    48	 9 ;     OG3C51     CG3RC1     CG3RC1     CG3C41
   90    47    49    52	 9 ;     OG3C51     CG3RC1     CG3RC1      CG311
   90    47    49    91	 9 ;     OG3C51     CG3RC1     CG3RC1      OG302
  111    47    49    48	 9 ;       HGA1     CG3RC1     CG3RC1     CG3C41
  111    47    49    52	 9 ;       HGA1     CG3RC1     CG3RC1      CG311
  111    47    49    91	 9 ;       HGA1     CG3RC1     CG3RC1      OG302
   46    47    90    48	 9 ;      CG321     CG3RC1     OG3C51     CG3C41
   49    47    90    48	 9 ;     CG3RC1     CG3RC1     OG3C51     CG3C41
  111    47    90    48	 9 ;       HGA1     CG3RC1     OG3C51     CG3C41
  112    48    49    47	 9 ;       HGA2     CG3C41     CG3RC1     CG3RC1
  112    48    49    52	 9 ;       HGA2     CG3C41     CG3RC1      CG311
  112    48    49    91	 9 ;       HGA2     CG3C41     CG3RC1      OG302
  113    48    49    47	 9 ;       HGA2     CG3C41     CG3RC1     CG3RC1
  113    48    49    52	 9 ;       HGA2     CG3C41     CG3RC1      CG311
  113    48    49    91	 9 ;       HGA2     CG3C41     CG3RC1      OG302
   90    48    49    47	 9 ;     OG3C51     CG3C41     CG3RC1     CG3RC1
   90    48    49    52	 9 ;     OG3C51     CG3C41     CG3RC1      CG311
   90    48    49    91	 9 ;     OG3C51     CG3C41     CG3RC1      OG302
   49    48    90    47	 9 ;     CG3RC1     CG3C41     OG3C51     CG3RC1
  112    48    90    47	 9 ;       HGA2     CG3C41     OG3C51     CG3RC1
  113    48    90    47	 9 ;       HGA2     CG3C41     OG3C51     CG3RC1
   47    49    52    43	 9 ;     CG3RC1     CG3RC1      CG311      CG301
   47    49    52    53	 9 ;     CG3RC1     CG3RC1      CG311      CG311
   47    49    52   117	 9 ;     CG3RC1     CG3RC1      CG311       HGA1
   48    49    52    43	 9 ;     CG3C41     CG3RC1      CG311      CG301
   48    49    52    53	 9 ;     CG3C41     CG3RC1      CG311      CG311
   48    49    52   117	 9 ;     CG3C41     CG3RC1      CG311       HGA1
   91    49    52    43	 9 ;      OG302     CG3RC1      CG311      CG301
   91    49    52    53	 9 ;      OG302     CG3RC1      CG311      CG311
   91    49    52   117	 9 ;      OG302     CG3RC1      CG311       HGA1
   47    49    91    50	 9 ;     CG3RC1     CG3RC1      OG302      CG2O2
   48    49    91    50	 9 ;     CG3C41     CG3RC1      OG302      CG2O2
   52    49    91    50	 9 ;      CG311     CG3RC1      OG302      CG2O2
   92    50    51   114	 9 ;      OG2D1      CG2O2      CG331       HGA3
   92    50    51   115	 9 ;      OG2D1      CG2O2      CG331       HGA3
   92    50    51   116	 9 ;      OG2D1      CG2O2      CG331       HGA3
   91    50    51   114	 9 ;      OG302      CG2O2      CG331       HGA3
   91    50    51   115	 9 ;      OG302      CG2O2      CG331       HGA3
   91    50    51   116	 9 ;      OG302      CG2O2      CG331       HGA3
   51    50    91    49	 9 ;      CG331      CG2O2      OG302     CG3RC1
   92    50    91    49	 9 ;      OG2D1      CG2O2      OG302     CG3RC1
   43    52    53    61	 9 ;      CG301      CG311      CG311      CG301
   43    52    53    93	 9 ;      CG301      CG311      CG311      OG302
   43    52    53   118	 9 ;      CG301      CG311      CG311       HGA1
   49    52    53    61	 9 ;     CG3RC1      CG311      CG311      CG301
   49    52    53    93	 9 ;     CG3RC1      CG311      CG311      OG302
   49    52    53   118	 9 ;     CG3RC1      CG311      CG311       HGA1
  117    52    53    61	 9 ;       HGA1      CG311      CG311      CG301
  117    52    53    93	 9 ;       HGA1      CG311      CG311      OG302
  117    52    53   118	 9 ;       HGA1      CG311      CG311       HGA1
   52    53    61    62	 9 ;      CG311      CG311      CG301      CG321
   52    53    61    83	 9 ;      CG311      CG311      CG301      CG301
   52    53    61    95	 9 ;      CG311      CG311      CG301      OG311
   93    53    61    62	 9 ;      OG302      CG311      CG301      CG321
   93    53    61    83	 9 ;      OG302      CG311      CG301      CG301
   93    53    61    95	 9 ;      OG302      CG311      CG301      OG311
  118    53    61    62	 9 ;       HGA1      CG311      CG301      CG321
  118    53    61    83	 9 ;       HGA1      CG311      CG301      CG301
  118    53    61    95	 9 ;       HGA1      CG311      CG301      OG311
   52    53    93    54	 9 ;      CG311      CG311      OG302      CG2O2
   61    53    93    54	 9 ;      CG301      CG311      OG302      CG2O2
  118    53    93    54	 9 ;       HGA1      CG311      OG302      CG2O2
   94    54    55    56	 9 ;      OG2D1      CG2O2     CG2R61     CG2R61
   94    54    55    60	 9 ;      OG2D1      CG2O2     CG2R61     CG2R61
   93    54    55    56	 9 ;      OG302      CG2O2     CG2R61     CG2R61
   93    54    55    60	 9 ;      OG302      CG2O2     CG2R61     CG2R61
   55    54    93    53	 9 ;     CG2R61      CG2O2      OG302      CG311
   94    54    93    53	 9 ;      OG2D1      CG2O2      OG302      CG311
   54    55    56    57	 9 ;      CG2O2     CG2R61     CG2R61     CG2R61
   54    55    56   119	 9 ;      CG2O2     CG2R61     CG2R61      HGR61
   60    55    56    57	 9 ;     CG2R61     CG2R61     CG2R61     CG2R61
   60    55    56   119	 9 ;     CG2R61     CG2R61     CG2R61      HGR61
   54    55    60    59	 9 ;      CG2O2     CG2R61     CG2R61     CG2R61
   54    55    60   123	 9 ;      CG2O2     CG2R61     CG2R61      HGR61
   56    55    60    59	 9 ;     CG2R61     CG2R61     CG2R61     CG2R61
   56    55    60   123	 9 ;     CG2R61     CG2R61     CG2R61      HGR61
   55    56    57    58	 9 ;     CG2R61     CG2R61     CG2R61     CG2R61
   55    56    57   120	 9 ;     CG2R61     CG2R61     CG2R61      HGR61
  119    56    57    58	 9 ;      HGR61     CG2R61     CG2R61     CG2R61
  119    56    57   120	 9 ;      HGR61     CG2R61     CG2R61      HGR61
   56    57    58    59	 9 ;     CG2R61     CG2R61     CG2R61     CG2R61
   56    57    58   121	 9 ;     CG2R61     CG2R61     CG2R61      HGR61
  120    57    58    59	 9 ;      HGR61     CG2R61     CG2R61     CG2R61
  120    57    58   121	 9 ;      HGR61     CG2R61     CG2R61      HGR61
   57    58    59    60	 9 ;     CG2R61     CG2R61     CG2R61     CG2R61
   57    58    59   122	 9 ;     CG2R61     CG2R61     CG2R61      HGR61
  121    58    59    60	 9 ;      HGR61     CG2R61     CG2R61     CG2R61
  121    58    59   122	 9 ;      HGR61     CG2R61     CG2R61      HGR61
   58    59    60    55	 9 ;     CG2R61     CG2R61     CG2R61     CG2R61
   58    59    60   123	 9 ;     CG2R61     CG2R61     CG2R61      HGR61
  122    59    60    55	 9 ;      HGR61     CG2R61     CG2R61     CG2R61
  122    59    60   123	 9 ;      HGR61     CG2R61     CG2R61      HGR61
   53    61    62    63	 9 ;      CG311      CG301      CG321      CG311
   53    61    62   125	 9 ;      CG311      CG301      CG321       HGA2
   53    61    62   126	 9 ;      CG311      CG301      CG321       HGA2
   83    61    62    63	 9 ;      CG301      CG301      CG321      CG311
   83    61    62   125	 9 ;      CG301      CG301      CG321       HGA2
   83    61    62   126	 9 ;      CG301      CG301      CG321       HGA2
   95    61    62    63	 9 ;      OG311      CG301      CG321      CG311
   95    61    62   125	 9 ;      OG311      CG301      CG321       HGA2
   95    61    62   126	 9 ;      OG311      CG301      CG321       HGA2
   53    61    83    82	 9 ;      CG311      CG301      CG301      CG2D1
   53    61    83    84	 9 ;      CG311      CG301      CG301      CG331
   53    61    83    85	 9 ;      CG311      CG301      CG301      CG331
   62    61    83    82	 9 ;      CG321      CG301      CG301      CG2D1
   62    61    83    84	 9 ;      CG321      CG301      CG301      CG331
   62    61    83    85	 9 ;      CG321      CG301      CG301      CG331
   95    61    83    82	 9 ;      OG311      CG301      CG301      CG2D1
   95    61    83    84	 9 ;      OG311      CG301      CG301      CG331
   95    61    83    85	 9 ;      OG311      CG301      CG301      CG331
   53    61    95   124	 9 ;      CG311      CG301      OG311       HGP1
   62    61    95   124	 9 ;      CG321      CG301      OG311       HGP1
   83    61    95   124	 9 ;      CG301      CG301      OG311       HGP1
   61    62    63    80	 9 ;      CG301      CG321      CG311      CG2D1
   61    62    63    96	 9 ;      CG301      CG321      CG311      OG302
   61    62    63   127	 9 ;      CG301      CG321      CG311       HGA1
  125    62    63    80	 9 ;       HGA2      CG321      CG311      CG2D1
  125    62    63    96	 9 ;       HGA2      CG321      CG311      OG302
  125    62    63   127	 9 ;       HGA2      CG321      CG311       HGA1
  126    62    63    80	 9 ;       HGA2      CG321      CG311      CG2D1
  126    62    63    96	 9 ;       HGA2      CG321      CG311      OG302
  126    62    63   127	 9 ;       HGA2      CG321      CG311       HGA1
   62    63    80    81	 9 ;      CG321      CG311      CG2D1      CG331
   62    63    80    82	 9 ;      CG321      CG311      CG2D1      CG2D1
   96    63    80    81	 9 ;      OG302      CG311      CG2D1      CG331
   96    63    80    82	 9 ;      OG302      CG311      CG2D1      CG2D1
  127    63    80    81	 9 ;       HGA1      CG311      CG2D1      CG331
  127    63    80    82	 9 ;       HGA1      CG311      CG2D1      CG2D1
   62    63    96    64	 9 ;      CG321      CG311      OG302      CG2O2
   80    63    96    64	 9 ;      CG2D1      CG311      OG302      CG2O2
  127    63    96    64	 9 ;       HGA1      CG311      OG302      CG2O2
   97    64    65    66	 9 ;      OG2D1      CG2O2      CG311      CG311
   97    64    65    98	 9 ;      OG2D1      CG2O2      CG311      OG301
   97    64    65   128	 9 ;      OG2D1      CG2O2      CG311       HGA1
   96    64    65    66	 9 ;      OG302      CG2O2      CG311      CG311
   96    64    65    98	 9 ;      OG302      CG2O2      CG311      OG301
   96    64    65   128	 9 ;      OG302      CG2O2      CG311       HGA1
   65    64    96    63	 9 ;      CG311      CG2O2      OG302      CG311
   97    64    96    63	 9 ;      OG2D1      CG2O2      OG302      CG311
   64    65    66    38	 9 ;      CG2O2      CG311      CG311      NG2S1
   64    65    66    74	 9 ;      CG2O2      CG311      CG311     CG2R61
   64    65    66   129	 9 ;      CG2O2      CG311      CG311       HGA1
   98    65    66    38	 9 ;      OG301      CG311      CG311      NG2S1
   98    65    66    74	 9 ;      OG301      CG311      CG311     CG2R61
   98    65    66   129	 9 ;      OG301      CG311      CG311       HGA1
  128    65    66    38	 9 ;       HGA1      CG311      CG311      NG2S1
  128    65    66    74	 9 ;       HGA1      CG311      CG311     CG2R61
  128    65    66   129	 9 ;       HGA1      CG311      CG311       HGA1
   64    65    98     1	 9 ;      CG2O2      CG311      OG301      CG301
   66    65    98     1	 9 ;      CG311      CG311      OG301      CG301
  128    65    98     1	 9 ;       HGA1      CG311      OG301      CG301
   65    66    74    75	 9 ;      CG311      CG311     CG2R61     CG2R61
   65    66    74    79	 9 ;      CG311      CG311     CG2R61     CG2R61
   38    66    74    75	 9 ;      NG2S1      CG311     CG2R61     CG2R61
   38    66    74    79	 9 ;      NG2S1      CG311     CG2R61     CG2R61
  129    66    74    75	 9 ;       HGA1      CG311     CG2R61     CG2R61
  129    66    74    79	 9 ;       HGA1      CG311     CG2R61     CG2R61
   38    67    68    69	 9 ;      NG2S1      CG2O1     CG2R61     CG2R61
   38    67    68    73	 9 ;      NG2S1      CG2O1     CG2R61     CG2R61
   99    67    68    69	 9 ;      OG2D1      CG2O1     CG2R61     CG2R61
   99    67    68    73	 9 ;      OG2D1      CG2O1     CG2R61     CG2R61
   67    68    69    70	 9 ;      CG2O1     CG2R61     CG2R61     CG2R61
   67    68    69   131	 9 ;      CG2O1     CG2R61     CG2R61      HGR61
   73    68    69    70	 9 ;     CG2R61     CG2R61     CG2R61     CG2R61
   73    68    69   131	 9 ;     CG2R61     CG2R61     CG2R61      HGR61
   67    68    73    72	 9 ;      CG2O1     CG2R61     CG2R61     CG2R61
   67    68    73   135	 9 ;      CG2O1     CG2R61     CG2R61      HGR61
   69    68    73    72	 9 ;     CG2R61     CG2R61     CG2R61     CG2R61
   69    68    73   135	 9 ;     CG2R61     CG2R61     CG2R61      HGR61
   68    69    70    71	 9 ;     CG2R61     CG2R61     CG2R61     CG2R61
   68    69    70   132	 9 ;     CG2R61     CG2R61     CG2R61      HGR61
  131    69    70    71	 9 ;      HGR61     CG2R61     CG2R61     CG2R61
  131    69    70   132	 9 ;      HGR61     CG2R61     CG2R61      HGR61
   69    70    71    72	 9 ;     CG2R61     CG2R61     CG2R61     CG2R61
   69    70    71   133	 9 ;     CG2R61     CG2R61     CG2R61      HGR61
  132    70    71    72	 9 ;      HGR61     CG2R61     CG2R61     CG2R61
  132    70    71   133	 9 ;      HGR61     CG2R61     CG2R61      HGR61
   70    71    72    73	 9 ;     CG2R61     CG2R61     CG2R61     CG2R61
   70    71    72   134	 9 ;     CG2R61     CG2R61     CG2R61      HGR61
  133    71    72    73	 9 ;      HGR61     CG2R61     CG2R61     CG2R61
  133    71    72   134	 9 ;      HGR61     CG2R61     CG2R61      HGR61
   71    72    73    68	 9 ;     CG2R61     CG2R61     CG2R61     CG2R61
   71    72    73   135	 9 ;     CG2R61     CG2R61     CG2R61      HGR61
  134    72    73    68	 9 ;      HGR61     CG2R61     CG2R61     CG2R61
  134    72    73   135	 9 ;      HGR61     CG2R61     CG2R61      HGR61
   66    74    75    76	 9 ;      CG311     CG2R61     CG2R61     CG2R61
   66    74    75   136	 9 ;      CG311     CG2R61     CG2R61      HGR61
   79    74    75    76	 9 ;     CG2R61     CG2R61     CG2R61     CG2R61
   79    74    75   136	 9 ;     CG2R61     CG2R61     CG2R61      HGR61
   66    74    79    78	 9 ;      CG311     CG2R61     CG2R61     CG2R61
   66    74    79   140	 9 ;      CG311     CG2R61     CG2R61      HGR61
   75    74    79    78	 9 ;     CG2R61     CG2R61     CG2R61     CG2R61
   75    74    79   140	 9 ;     CG2R61     CG2R61     CG2R61      HGR61
   74    75    76    77	 9 ;     CG2R61     CG2R61     CG2R61     CG2R61
   74    75    76   137	 9 ;     CG2R61     CG2R61     CG2R61      HGR61
  136    75    76    77	 9 ;      HGR61     CG2R61     CG2R61     CG2R61
  136    75    76   137	 9 ;      HGR61     CG2R61     CG2R61      HGR61
   75    76    77    78	 9 ;     CG2R61     CG2R61     CG2R61     CG2R61
   75    76    77   138	 9 ;     CG2R61     CG2R61     CG2R61      HGR61
  137    76    77    78	 9 ;      HGR61     CG2R61     CG2R61     CG2R61
  137    76    77   138	 9 ;      HGR61     CG2R61     CG2R61      HGR61
   76    77    78    79	 9 ;     CG2R61     CG2R61     CG2R61     CG2R61
   76    77    78   139	 9 ;     CG2R61     CG2R61     CG2R61      HGR61
  138    77    78    79	 9 ;      HGR61     CG2R61     CG2R61     CG2R61
  138    77    78   139	 9 ;      HGR61     CG2R61     CG2R61      HGR61
   77    78    79    74	 9 ;     CG2R61     CG2R61     CG2R61     CG2R61
   77    78    79   140	 9 ;     CG2R61     CG2R61     CG2R61      HGR61
  139    78    79    74	 9 ;      HGR61     CG2R61     CG2R61     CG2R61
  139    78    79   140	 9 ;      HGR61     CG2R61     CG2R61      HGR61
   63    80    81   141	 9 ;      CG311      CG2D1      CG331       HGA3
   63    80    81   142	 9 ;      CG311      CG2D1      CG331       HGA3
   63    80    81   143	 9 ;      CG311      CG2D1      CG331       HGA3
   82    80    81   141	 9 ;      CG2D1      CG2D1      CG331       HGA3
   82    80    81   142	 9 ;      CG2D1      CG2D1      CG331       HGA3
   82    80    81   143	 9 ;      CG2D1      CG2D1      CG331       HGA3
   63    80    82    41	 9 ;      CG311      CG2D1      CG2D1      CG311
   63    80    82    83	 9 ;      CG311      CG2D1      CG2D1      CG301
   81    80    82    41	 9 ;      CG331      CG2D1      CG2D1      CG311
   81    80    82    83	 9 ;      CG331      CG2D1      CG2D1      CG301
   41    82    83    61	 9 ;      CG311      CG2D1      CG301      CG301
   41    82    83    84	 9 ;      CG311      CG2D1      CG301      CG331
   41    82    83    85	 9 ;      CG311      CG2D1      CG301      CG331
   80    82    83    61	 9 ;      CG2D1      CG2D1      CG301      CG301
   80    82    83    84	 9 ;      CG2D1      CG2D1      CG301      CG331
   80    82    83    85	 9 ;      CG2D1      CG2D1      CG301      CG331
   61    83    84   144	 9 ;      CG301      CG301      CG331       HGA3
   61    83    84   145	 9 ;      CG301      CG301      CG331       HGA3
   61    83    84   146	 9 ;      CG301      CG301      CG331       HGA3
   82    83    84   144	 9 ;      CG2D1      CG301      CG331       HGA3
   82    83    84   145	 9 ;      CG2D1      CG301      CG331       HGA3
   82    83    84   146	 9 ;      CG2D1      CG301      CG331       HGA3
   85    83    84   144	 9 ;      CG331      CG301      CG331       HGA3
   85    83    84   145	 9 ;      CG331      CG301      CG331       HGA3
   85    83    84   146	 9 ;      CG331      CG301      CG331       HGA3
   61    83    85   147	 9 ;      CG301      CG301      CG331       HGA3
   61    83    85   148	 9 ;      CG301      CG301      CG331       HGA3
   61    83    85   149	 9 ;      CG301      CG301      CG331       HGA3
   82    83    85   147	 9 ;      CG2D1      CG301      CG331       HGA3
   82    83    85   148	 9 ;      CG2D1      CG301      CG331       HGA3
   82    83    85   149	 9 ;      CG2D1      CG301      CG331       HGA3
   84    83    85   147	 9 ;      CG331      CG301      CG331       HGA3
   84    83    85   148	 9 ;      CG331      CG301      CG331       HGA3
   84    83    85   149	 9 ;      CG331      CG301      CG331       HGA3

[ dihedrals ]
;	ai	  aj	ak	  al funct			  c0			c1			  c2			c3
   40    39    86    87	 2
   42    43    41    88	 2
   50    51    92    91	 2
   54    55    94    93	 2
   64    65    97    96	 2
   67    68    38    99	 2

