; Created by cgenff_charmm2gmx.py

[ moleculetype ]
; Name			   nrexcl
FUL				 3

[ atoms ]
;	 nr		  type	resnr residue  atom   cgnr	   charge		mass  typeB    chargeB		massB
; residue	 1 FUL rtp FUL q	qsum
     1      CG2O6      1    FUD     C1      1      0.027     12.011   ;
     2      CG321      1    FUD     C2      2      0.140     12.011   ;
     3     CG2R61      1    FUD     C3      3      0.013     12.011   ;
     4     CG2R61      1    FUD     C4      4     -0.118     12.011   ;
     5     CG2R61      1    FUD     C5      5     -0.108     12.011   ;
     6     CG2R61      1    FUD     C6      6      0.238     12.011   ;
     7      CG301      1    FUD     C7      7      0.383     12.011   ;
     8      CG321      1    FUD     C8      8      0.036     12.011   ;
     9      CG321      1    FUD     C9      9     -0.009     12.011   ;
    10      CG321      1    FUD    C10     10     -0.009     12.011   ;
    11      CG321      1    FUD    C11     11     -0.180     12.011   ;
    12      CG321      1    FUD    C12     12     -0.180     12.011   ;
    13      CG321      1    FUD    C13     13     -0.180     12.011   ;
    14      CG321      1    FUD    C14     14     -0.180     12.011   ;
    15      CG321      1    FUD    C15     15     -0.180     12.011   ;
    16      CG321      1    FUD    C16     16     -0.180     12.011   ;
    17      CG321      1    FUD    C17     17     -0.180     12.011   ;
    18      CG321      1    FUD    C18     18     -0.180     12.011   ;
    19      CG321      1    FUD    C19     19     -0.180     12.011   ;
    20      CG321      1    FUD    C20     20     -0.180     12.011   ;
    21      CG321      1    FUD    C21     21     -0.180     12.011   ;
    22      CG321      1    FUD    C22     22     -0.180     12.011   ;
    23      CG321      1    FUD    C23     23     -0.180     12.011   ;
    24      CG321      1    FUD    C24     24     -0.179     12.011   ;
    25      CG321      1    FUD    C25     25     -0.181     12.011   ;
    26      CG321      1    FUD    C26     26     -0.177     12.011   ;
    27      CG331      1    FUD    C27     27     -0.273     12.011   ;
    28      CG331      1    FUD    C28     28     -0.274     12.011   ;
    29      CG331      1    FUD    C29     29     -0.274     12.011   ;
    30     CG2R61      1    FUD    C30     30     -0.108     12.011   ;
    31     CG2R61      1    FUD    C31     31     -0.118     12.011   ;
    32      OG2D1      1    FUD     O1     32     -0.395     15.999   ;
    33      OG302      1    FUD     O2     33     -0.134     15.999   ;
    34      OG301      1    FUD     O3     34     -0.426     15.999   ;
    35      OG301      1    FUD     O4     35     -0.403     15.999   ;
    36      OG301      1    FUD     O5     36     -0.342     15.999   ;
    37       HGA2      1    FUD     H1     37      0.090      1.008   ;
    38       HGA2      1    FUD     H2     38      0.090      1.008   ;
    39      HGR61      1    FUD     H3     39      0.115      1.008   ;
    40      HGR61      1    FUD     H4     40      0.115      1.008   ;
    41       HGA2      1    FUD     H5     41      0.090      1.008   ;
    42       HGA2      1    FUD     H6     42      0.090      1.008   ;
    43       HGA2      1    FUD     H7     43      0.090      1.008   ;
    44       HGA2      1    FUD     H8     44      0.090      1.008   ;
    45       HGA2      1    FUD     H9     45      0.090      1.008   ;
    46       HGA2      1    FUD    H10     46      0.090      1.008   ;
    47       HGA2      1    FUD    H11     47      0.090      1.008   ;
    48       HGA2      1    FUD    H12     48      0.090      1.008   ;
    49       HGA2      1    FUD    H13     49      0.090      1.008   ;
    50       HGA2      1    FUD    H14     50      0.090      1.008   ;
    51       HGA2      1    FUD    H15     51      0.090      1.008   ;
    52       HGA2      1    FUD    H16     52      0.090      1.008   ;
    53       HGA2      1    FUD    H17     53      0.090      1.008   ;
    54       HGA2      1    FUD    H18     54      0.090      1.008   ;
    55       HGA2      1    FUD    H19     55      0.090      1.008   ;
    56       HGA2      1    FUD    H20     56      0.090      1.008   ;
    57       HGA2      1    FUD    H21     57      0.090      1.008   ;
    58       HGA2      1    FUD    H22     58      0.090      1.008   ;
    59       HGA2      1    FUD    H23     59      0.090      1.008   ;
    60       HGA2      1    FUD    H24     60      0.090      1.008   ;
    61       HGA2      1    FUD    H25     61      0.090      1.008   ;
    62       HGA2      1    FUD    H26     62      0.090      1.008   ;
    63       HGA2      1    FUD    H27     63      0.090      1.008   ;
    64       HGA2      1    FUD    H28     64      0.090      1.008   ;
    65       HGA2      1    FUD    H29     65      0.090      1.008   ;
    66       HGA2      1    FUD    H30     66      0.090      1.008   ;
    67       HGA2      1    FUD    H31     67      0.090      1.008   ;
    68       HGA2      1    FUD    H32     68      0.090      1.008   ;
    69       HGA2      1    FUD    H33     69      0.090      1.008   ;
    70       HGA2      1    FUD    H34     70      0.090      1.008   ;
    71       HGA2      1    FUD    H35     71      0.090      1.008   ;
    72       HGA2      1    FUD    H36     72      0.090      1.008   ;
    73       HGA2      1    FUD    H37     73      0.090      1.008   ;
    74       HGA2      1    FUD    H38     74      0.090      1.008   ;
    75       HGA2      1    FUD    H39     75      0.090      1.008   ;
    76       HGA2      1    FUD    H40     76      0.090      1.008   ;
    77       HGA2      1    FUD    H41     77      0.090      1.008   ;
    78       HGA2      1    FUD    H42     78      0.090      1.008   ;
    79       HGA3      1    FUD    H43     79      0.090      1.008   ;
    80       HGA3      1    FUD    H44     80      0.090      1.008   ;
    81       HGA3      1    FUD    H45     81      0.090      1.008   ;
    82       HGA3      1    FUD    H46     82      0.090      1.008   ;
    83       HGA3      1    FUD    H47     83      0.090      1.008   ;
    84       HGA3      1    FUD    H48     84      0.090      1.008   ;
    85       HGA3      1    FUD    H49     85      0.090      1.008   ;
    86       HGA3      1    FUD    H50     86      0.090      1.008   ;
    87       HGA3      1    FUD    H51     87      0.090      1.008   ;
    88      HGR61      1    FUD    H52     88      0.115      1.008   ;
    89      HGR61      1    FUD    H53     89      0.115      1.008   ;
    90      CG331      1    FUL    C32     90     -0.271     12.011   ;
    91     CG3RC1      1    FUL    C33     91      0.009     12.011   ;
    92      CG321      1    FUL    C34     92     -0.189     12.011   ;
    93      CG321      1    FUL    C35     93     -0.180     12.011   ;
    94      CG311      1    FUL    C36     94     -0.085     12.011   ;
    95     CG2R61      1    FUL    C37     95      0.007     12.011   ;
    96     CG2R61      1    FUL    C38     96     -0.003     12.011   ;
    97      CG321      1    FUL    C39     97     -0.190     12.011   ;
    98      CG311      1    FUL    C40     98     -0.089     12.011   ;
    99      CG321      1    FUL    C41     99     -0.197     12.011   ;
   100      CG321      1    FUL    C42    100     -0.192     12.011   ;
   101      CG321      1    FUL    C43    101     -0.157     12.011   ;
   102      CG321      1    FUL    C44    102     -0.180     12.011   ;
   103      CG321      1    FUL    C45    103     -0.180     12.011   ;
   104      CG321      1    FUL    C46    104     -0.180     12.011   ;
   105      CG321      1    FUL    C47    105     -0.180     12.011   ;
   106      CG321      1    FUL    C48    106     -0.189     12.011   ;
   107      CG321      1    FUL    C49    107     -0.059     12.011   ;
   108      CG321      1    FUL    C50    108     -0.059     12.011   ;
   109      CG321      1    FUL    C51    109     -0.181     12.011   ;
   110      CG321      1    FUL    C52    110     -0.066     12.011   ;
   111      CG312      1    FUL    C53    111      0.340     12.011   ;
   112      CG302      1    FUL    C54    112      0.332     12.011   ;
   113      CG311      1    FUL    C55    113     -0.094     12.011   ;
   114     CG3RC1      1    FUL    C56    114     -0.101     12.011   ;
   115     CG3C52      1    FUL    C57    115     -0.179     12.011   ;
   116     CG3C52      1    FUL    C58    116     -0.179     12.011   ;
   117     CG3C51      1    FUL    C59    117      0.191     12.011   ;
   118     CG2R61      1    FUL    C60    118     -0.116     12.011   ;
   119     CG2R61      1    FUL    C61    119      0.115     12.011   ;
   120     CG2R61      1    FUL    C62    120     -0.113     12.011   ;
   121     CG2R61      1    FUL    C63    121     -0.106     12.011   ;
   122      OG2P1      1    FUL     O6    122     -0.549     15.999   ;
   123      OG302      1    FUL     O7    123     -0.112     15.999   ;
   124      OG311      1    FUL     O8    124     -0.533     15.999   ;
   125       FGA3      1    FUL     F1    125     -0.140     18.998   ;
   126       FGA3      1    FUL     F2    126     -0.140     18.998   ;
   127       FGA3      1    FUL     F3    127     -0.140     18.998   ;
   128       FGA2      1    FUL     F4    128     -0.187     18.998   ;
   129       FGA2      1    FUL     F5    129     -0.187     18.998   ;
   130      SG3O3      1    FUL      S    130      0.325     32.060   ;
   131       HGA3      1    FUL    H54    131      0.090      1.008   ;
   132       HGA3      1    FUL    H55    132      0.090      1.008   ;
   133       HGA3      1    FUL    H56    133      0.090      1.008   ;
   134       HGA2      1    FUL    H57    134      0.090      1.008   ;
   135       HGA2      1    FUL    H58    135      0.090      1.008   ;
   136       HGA2      1    FUL    H59    136      0.090      1.008   ;
   137       HGA2      1    FUL    H60    137      0.090      1.008   ;
   138       HGA1      1    FUL    H61    138      0.090      1.008   ;
   139       HGA2      1    FUL    H62    139      0.090      1.008   ;
   140       HGA2      1    FUL    H63    140      0.090      1.008   ;
   141       HGA1      1    FUL    H64    141      0.090      1.008   ;
   142       HGA2      1    FUL    H65    142      0.090      1.008   ;
   143       HGA2      1    FUL    H66    143      0.090      1.008   ;
   144       HGA2      1    FUL    H67    144      0.090      1.008   ;
   145       HGA2      1    FUL    H68    145      0.090      1.008   ;
   146       HGA2      1    FUL    H69    146      0.090      1.008   ;
   147       HGA2      1    FUL    H70    147      0.090      1.008   ;
   148       HGA2      1    FUL    H71    148      0.090      1.008   ;
   149       HGA2      1    FUL    H72    149      0.090      1.008   ;
   150       HGA2      1    FUL    H73    150      0.090      1.008   ;
   151       HGA2      1    FUL    H74    151      0.090      1.008   ;
   152       HGA2      1    FUL    H75    152      0.090      1.008   ;
   153       HGA2      1    FUL    H76    153      0.090      1.008   ;
   154       HGA2      1    FUL    H77    154      0.090      1.008   ;
   155       HGA2      1    FUL    H78    155      0.090      1.008   ;
   156       HGA2      1    FUL    H79    156      0.090      1.008   ;
   157       HGA2      1    FUL    H80    157      0.090      1.008   ;
   158       HGA2      1    FUL    H81    158      0.090      1.008   ;
   159       HGA2      1    FUL    H82    159      0.090      1.008   ;
   160       HGA2      1    FUL    H83    160      0.090      1.008   ;
   161       HGA2      1    FUL    H84    161      0.090      1.008   ;
   162       HGA2      1    FUL    H85    162      0.090      1.008   ;
   163       HGA2      1    FUL    H86    163      0.090      1.008   ;
   164       HGA2      1    FUL    H87    164      0.090      1.008   ;
   165       HGA2      1    FUL    H88    165      0.090      1.008   ;
   166       HGA1      1    FUL    H89    166      0.090      1.008   ;
   167       HGA1      1    FUL    H90    167      0.090      1.008   ;
   168       HGA2      1    FUL    H91    168      0.090      1.008   ;
   169       HGA2      1    FUL    H92    169      0.090      1.008   ;
   170       HGA2      1    FUL    H93    170      0.090      1.008   ;
   171       HGA2      1    FUL    H94    171      0.090      1.008   ;
   172       HGA1      1    FUL    H95    172      0.090      1.008   ;
   173      HGR61      1    FUL    H96    173      0.115      1.008   ;
   174       HGP1      1    FUL    H97    174      0.420      1.008   ;
   175      HGR61      1    FUL    H98    175      0.115      1.008   ;
   176      HGR61      1    FUL    H99    176      0.115      1.008   ;

[ bonds ]
;	ai	  aj funct			  c0			c1			  c2			c3
    1    32	 1 ;       CG2O6      OG2D1
    1    33	 1 ;       CG2O6      OG302
    1   123	 1 ;       CG2O6      OG302
    2     3	 1 ;       CG321     CG2R61
    2    37	 1 ;       CG321       HGA2
    2    38	 1 ;       CG321       HGA2
    2    33	 1 ;       CG321      OG302
    3     4	 1 ;      CG2R61     CG2R61
    3    31	 1 ;      CG2R61     CG2R61
    4     5	 1 ;      CG2R61     CG2R61
    4    39	 1 ;      CG2R61      HGR61
    5     6	 1 ;      CG2R61     CG2R61
    5    40	 1 ;      CG2R61      HGR61
    6    30	 1 ;      CG2R61     CG2R61
    6    34	 1 ;      CG2R61      OG301
    7    28	 1 ;       CG301      CG331
    7    29	 1 ;       CG301      CG331
    7    35	 1 ;       CG301      OG301
    7    34	 1 ;       CG301      OG301
    8     9	 1 ;       CG321      CG321
    8    41	 1 ;       CG321       HGA2
    8    42	 1 ;       CG321       HGA2
    8    35	 1 ;       CG321      OG301
    9    36	 1 ;       CG321      OG301
    9    43	 1 ;       CG321       HGA2
    9    44	 1 ;       CG321       HGA2
   10    11	 1 ;       CG321      CG321
   10    45	 1 ;       CG321       HGA2
   10    46	 1 ;       CG321       HGA2
   10    36	 1 ;       CG321      OG301
   11    12	 1 ;       CG321      CG321
   11    47	 1 ;       CG321       HGA2
   11    48	 1 ;       CG321       HGA2
   12    13	 1 ;       CG321      CG321
   12    49	 1 ;       CG321       HGA2
   12    50	 1 ;       CG321       HGA2
   13    14	 1 ;       CG321      CG321
   13    51	 1 ;       CG321       HGA2
   13    52	 1 ;       CG321       HGA2
   14    15	 1 ;       CG321      CG321
   14    53	 1 ;       CG321       HGA2
   14    54	 1 ;       CG321       HGA2
   15    16	 1 ;       CG321      CG321
   15    55	 1 ;       CG321       HGA2
   15    56	 1 ;       CG321       HGA2
   16    17	 1 ;       CG321      CG321
   16    57	 1 ;       CG321       HGA2
   16    58	 1 ;       CG321       HGA2
   17    18	 1 ;       CG321      CG321
   17    59	 1 ;       CG321       HGA2
   17    60	 1 ;       CG321       HGA2
   18    19	 1 ;       CG321      CG321
   18    61	 1 ;       CG321       HGA2
   18    62	 1 ;       CG321       HGA2
   19    20	 1 ;       CG321      CG321
   19    63	 1 ;       CG321       HGA2
   19    64	 1 ;       CG321       HGA2
   20    21	 1 ;       CG321      CG321
   20    65	 1 ;       CG321       HGA2
   20    66	 1 ;       CG321       HGA2
   21    22	 1 ;       CG321      CG321
   21    67	 1 ;       CG321       HGA2
   21    68	 1 ;       CG321       HGA2
   22    23	 1 ;       CG321      CG321
   22    69	 1 ;       CG321       HGA2
   22    70	 1 ;       CG321       HGA2
   23    24	 1 ;       CG321      CG321
   23    71	 1 ;       CG321       HGA2
   23    72	 1 ;       CG321       HGA2
   24    25	 1 ;       CG321      CG321
   24    73	 1 ;       CG321       HGA2
   24    74	 1 ;       CG321       HGA2
   25    26	 1 ;       CG321      CG321
   25    75	 1 ;       CG321       HGA2
   25    76	 1 ;       CG321       HGA2
   26    27	 1 ;       CG321      CG331
   26    77	 1 ;       CG321       HGA2
   26    78	 1 ;       CG321       HGA2
   27    79	 1 ;       CG331       HGA3
   27    80	 1 ;       CG331       HGA3
   27    81	 1 ;       CG331       HGA3
   28    82	 1 ;       CG331       HGA3
   28    83	 1 ;       CG331       HGA3
   28    84	 1 ;       CG331       HGA3
   29    85	 1 ;       CG331       HGA3
   29    86	 1 ;       CG331       HGA3
   29    87	 1 ;       CG331       HGA3
   30    31	 1 ;      CG2R61     CG2R61
   30    88	 1 ;      CG2R61      HGR61
   31    89	 1 ;      CG2R61      HGR61
   90    91	 1 ;       CG331     CG3RC1
   90   131	 1 ;       CG331       HGA3
   90   132	 1 ;       CG331       HGA3
   90   133	 1 ;       CG331       HGA3
   91    92	 1 ;      CG3RC1      CG321
   91   114	 1 ;      CG3RC1     CG3RC1
   91   117	 1 ;      CG3RC1     CG3C51
   92    93	 1 ;       CG321      CG321
   92   134	 1 ;       CG321       HGA2
   92   135	 1 ;       CG321       HGA2
   93    94	 1 ;       CG321      CG311
   93   136	 1 ;       CG321       HGA2
   93   137	 1 ;       CG321       HGA2
   94    95	 1 ;       CG311     CG2R61
   94   113	 1 ;       CG311      CG311
   94   138	 1 ;       CG311       HGA1
   95    96	 1 ;      CG2R61     CG2R61
   95   121	 1 ;      CG2R61     CG2R61
   96    97	 1 ;      CG2R61      CG321
   96   118	 1 ;      CG2R61     CG2R61
   97    98	 1 ;       CG321      CG311
   97   139	 1 ;       CG321       HGA2
   97   140	 1 ;       CG321       HGA2
   98    99	 1 ;       CG311      CG321
   98   113	 1 ;       CG311      CG311
   98   141	 1 ;       CG311       HGA1
   99   100	 1 ;       CG321      CG321
   99   142	 1 ;       CG321       HGA2
   99   143	 1 ;       CG321       HGA2
  100   101	 1 ;       CG321      CG321
  100   144	 1 ;       CG321       HGA2
  100   145	 1 ;       CG321       HGA2
  101   102	 1 ;       CG321      CG321
  101   146	 1 ;       CG321       HGA2
  101   147	 1 ;       CG321       HGA2
  102   103	 1 ;       CG321      CG321
  102   148	 1 ;       CG321       HGA2
  102   149	 1 ;       CG321       HGA2
  103   104	 1 ;       CG321      CG321
  103   150	 1 ;       CG321       HGA2
  103   151	 1 ;       CG321       HGA2
  104   105	 1 ;       CG321      CG321
  104   152	 1 ;       CG321       HGA2
  104   153	 1 ;       CG321       HGA2
  105   106	 1 ;       CG321      CG321
  105   154	 1 ;       CG321       HGA2
  105   155	 1 ;       CG321       HGA2
  106   107	 1 ;       CG321      CG321
  106   156	 1 ;       CG321       HGA2
  106   157	 1 ;       CG321       HGA2
  107   130	 1 ;       CG321      SG3O3
  107   158	 1 ;       CG321       HGA2
  107   159	 1 ;       CG321       HGA2
  108   109	 1 ;       CG321      CG321
  108   160	 1 ;       CG321       HGA2
  108   161	 1 ;       CG321       HGA2
  108   130	 1 ;       CG321      SG3O3
  109   110	 1 ;       CG321      CG321
  109   162	 1 ;       CG321       HGA2
  109   163	 1 ;       CG321       HGA2
  110   111	 1 ;       CG321      CG312
  110   164	 1 ;       CG321       HGA2
  110   165	 1 ;       CG321       HGA2
  111   112	 1 ;       CG312      CG302
  111   128	 1 ;       CG312       FGA2
  111   129	 1 ;       CG312       FGA2
  112   125	 1 ;       CG302       FGA3
  112   126	 1 ;       CG302       FGA3
  112   127	 1 ;       CG302       FGA3
  113   114	 1 ;       CG311     CG3RC1
  113   166	 1 ;       CG311       HGA1
  114   115	 1 ;      CG3RC1     CG3C52
  114   167	 1 ;      CG3RC1       HGA1
  115   116	 1 ;      CG3C52     CG3C52
  115   168	 1 ;      CG3C52       HGA2
  115   169	 1 ;      CG3C52       HGA2
  116   117	 1 ;      CG3C52     CG3C51
  116   170	 1 ;      CG3C52       HGA2
  116   171	 1 ;      CG3C52       HGA2
  117   123	 1 ;      CG3C51      OG302
  117   172	 1 ;      CG3C51       HGA1
  118   119	 1 ;      CG2R61     CG2R61
  118   173	 1 ;      CG2R61      HGR61
  119   120	 1 ;      CG2R61     CG2R61
  119   124	 1 ;      CG2R61      OG311
  120   121	 1 ;      CG2R61     CG2R61
  120   175	 1 ;      CG2R61      HGR61
  121   176	 1 ;      CG2R61      HGR61
  122   130	 1 ;       OG2P1      SG3O3
  124   174	 1 ;       OG311       HGP1

[ pairs ]
;	ai	  aj funct			  c0			c1			  c2			c3
    1     3	 1
    1    37	 1
    1    38	 1
    1    91	 1
    1   116	 1
    1   172	 1
    2    32	 1
    2   123	 1
    2     5	 1
    2    39	 1
    2    30	 1
    2    89	 1
    3     6	 1
    3    40	 1
    3    88	 1
    4    37	 1
    4    38	 1
    4    33	 1
    4    30	 1
    4    89	 1
    4    34	 1
    5    31	 1
    5    88	 1
    5     7	 1
    6    39	 1
    6    28	 1
    6    29	 1
    6    35	 1
    6    89	 1
    7    30	 1
    7     9	 1
    7    41	 1
    7    42	 1
    8    28	 1
    8    29	 1
    8    34	 1
    8    10	 1
    9    11	 1
    9    45	 1
    9    46	 1
   10    43	 1
   10    44	 1
   10    13	 1
   10    49	 1
   10    50	 1
   11    14	 1
   11    51	 1
   11    52	 1
   12    45	 1
   12    46	 1
   12    36	 1
   12    15	 1
   12    53	 1
   12    54	 1
   13    47	 1
   13    48	 1
   13    16	 1
   13    55	 1
   13    56	 1
   14    49	 1
   14    50	 1
   14    17	 1
   14    57	 1
   14    58	 1
   15    51	 1
   15    52	 1
   15    18	 1
   15    59	 1
   15    60	 1
   16    53	 1
   16    54	 1
   16    19	 1
   16    61	 1
   16    62	 1
   17    55	 1
   17    56	 1
   17    20	 1
   17    63	 1
   17    64	 1
   18    57	 1
   18    58	 1
   18    21	 1
   18    65	 1
   18    66	 1
   19    59	 1
   19    60	 1
   19    22	 1
   19    67	 1
   19    68	 1
   20    61	 1
   20    62	 1
   20    23	 1
   20    69	 1
   20    70	 1
   21    63	 1
   21    64	 1
   21    24	 1
   21    71	 1
   21    72	 1
   22    65	 1
   22    66	 1
   22    25	 1
   22    73	 1
   22    74	 1
   23    67	 1
   23    68	 1
   23    26	 1
   23    75	 1
   23    76	 1
   24    69	 1
   24    70	 1
   24    27	 1
   24    77	 1
   24    78	 1
   25    71	 1
   25    72	 1
   25    79	 1
   25    80	 1
   25    81	 1
   26    73	 1
   26    74	 1
   27    75	 1
   27    76	 1
   28    85	 1
   28    86	 1
   28    87	 1
   29    82	 1
   29    83	 1
   29    84	 1
   30    40	 1
   31    37	 1
   31    38	 1
   31    33	 1
   31    39	 1
   31    34	 1
   32   117	 1
   33   117	 1
   34    40	 1
   34    88	 1
   34    82	 1
   34    83	 1
   34    84	 1
   34    85	 1
   34    86	 1
   34    87	 1
   35    82	 1
   35    83	 1
   35    84	 1
   35    85	 1
   35    86	 1
   35    87	 1
   35    36	 1
   35    43	 1
   35    44	 1
   36    41	 1
   36    42	 1
   36    47	 1
   36    48	 1
   39    40	 1
   41    43	 1
   41    44	 1
   42    43	 1
   42    44	 1
   45    47	 1
   45    48	 1
   46    47	 1
   46    48	 1
   47    49	 1
   47    50	 1
   48    49	 1
   48    50	 1
   49    51	 1
   49    52	 1
   50    51	 1
   50    52	 1
   51    53	 1
   51    54	 1
   52    53	 1
   52    54	 1
   53    55	 1
   53    56	 1
   54    55	 1
   54    56	 1
   55    57	 1
   55    58	 1
   56    57	 1
   56    58	 1
   57    59	 1
   57    60	 1
   58    59	 1
   58    60	 1
   59    61	 1
   59    62	 1
   60    61	 1
   60    62	 1
   61    63	 1
   61    64	 1
   62    63	 1
   62    64	 1
   63    65	 1
   63    66	 1
   64    65	 1
   64    66	 1
   65    67	 1
   65    68	 1
   66    67	 1
   66    68	 1
   67    69	 1
   67    70	 1
   68    69	 1
   68    70	 1
   69    71	 1
   69    72	 1
   70    71	 1
   70    72	 1
   71    73	 1
   71    74	 1
   72    73	 1
   72    74	 1
   73    75	 1
   73    76	 1
   74    75	 1
   74    76	 1
   75    77	 1
   75    78	 1
   76    77	 1
   76    78	 1
   77    79	 1
   77    80	 1
   77    81	 1
   78    79	 1
   78    80	 1
   78    81	 1
   88    89	 1
   90    93	 1
   90   134	 1
   90   135	 1
   90   113	 1
   90   115	 1
   90   167	 1
   90   116	 1
   90   123	 1
   90   172	 1
   91    94	 1
   91   136	 1
   91   137	 1
   91    98	 1
   91   166	 1
   91   168	 1
   91   169	 1
   91   170	 1
   91   171	 1
   92   131	 1
   92   132	 1
   92   133	 1
   92   113	 1
   92   115	 1
   92   167	 1
   92   116	 1
   92   123	 1
   92   172	 1
   92    95	 1
   92   138	 1
   93   114	 1
   93   117	 1
   93    96	 1
   93   121	 1
   93    98	 1
   93   166	 1
   94   134	 1
   94   135	 1
   94    97	 1
   94   118	 1
   94   120	 1
   94   176	 1
   94    99	 1
   94   141	 1
   94   115	 1
   94   167	 1
   95   136	 1
   95   137	 1
   95    98	 1
   95   114	 1
   95   166	 1
   95   139	 1
   95   140	 1
   95   119	 1
   95   173	 1
   95   175	 1
   96   113	 1
   96   138	 1
   96   120	 1
   96   176	 1
   96    99	 1
   96   141	 1
   96   124	 1
   97   121	 1
   97   119	 1
   97   173	 1
   97   100	 1
   97   142	 1
   97   143	 1
   97   114	 1
   97   166	 1
   98   138	 1
   98   118	 1
   98   101	 1
   98   144	 1
   98   145	 1
   98   115	 1
   98   167	 1
   99   139	 1
   99   140	 1
   99   114	 1
   99   166	 1
   99   102	 1
   99   146	 1
   99   147	 1
  100   113	 1
  100   141	 1
  100   103	 1
  100   148	 1
  100   149	 1
  101   142	 1
  101   143	 1
  101   104	 1
  101   150	 1
  101   151	 1
  102   144	 1
  102   145	 1
  102   105	 1
  102   152	 1
  102   153	 1
  103   146	 1
  103   147	 1
  103   106	 1
  103   154	 1
  103   155	 1
  104   148	 1
  104   149	 1
  104   107	 1
  104   156	 1
  104   157	 1
  105   150	 1
  105   151	 1
  105   130	 1
  105   158	 1
  105   159	 1
  106   152	 1
  106   153	 1
  106   108	 1
  106   122	 1
  107   154	 1
  107   155	 1
  107   109	 1
  107   160	 1
  107   161	 1
  108   158	 1
  108   159	 1
  108   111	 1
  108   164	 1
  108   165	 1
  109   122	 1
  109   112	 1
  109   128	 1
  109   129	 1
  110   160	 1
  110   161	 1
  110   130	 1
  110   125	 1
  110   126	 1
  110   127	 1
  111   162	 1
  111   163	 1
  112   164	 1
  112   165	 1
  113   117	 1
  113   136	 1
  113   137	 1
  113   121	 1
  113   139	 1
  113   140	 1
  113   142	 1
  113   143	 1
  113   116	 1
  113   168	 1
  113   169	 1
  114   131	 1
  114   132	 1
  114   133	 1
  114   134	 1
  114   135	 1
  114   123	 1
  114   172	 1
  114   138	 1
  114   141	 1
  114   170	 1
  114   171	 1
  115   166	 1
  115   123	 1
  115   172	 1
  116   167	 1
  117   131	 1
  117   132	 1
  117   133	 1
  117   134	 1
  117   135	 1
  117   167	 1
  117   168	 1
  117   169	 1
  118   121	 1
  118   139	 1
  118   140	 1
  118   175	 1
  118   174	 1
  119   176	 1
  120   173	 1
  120   174	 1
  121   138	 1
  121   124	 1
  122   158	 1
  122   159	 1
  122   160	 1
  122   161	 1
  123   170	 1
  123   171	 1
  124   173	 1
  124   175	 1
  125   128	 1
  125   129	 1
  126   128	 1
  126   129	 1
  127   128	 1
  127   129	 1
  128   164	 1
  128   165	 1
  129   164	 1
  129   165	 1
  130   156	 1
  130   157	 1
  130   162	 1
  130   163	 1
  134   136	 1
  134   137	 1
  135   136	 1
  135   137	 1
  136   138	 1
  137   138	 1
  138   166	 1
  139   141	 1
  140   141	 1
  141   142	 1
  141   143	 1
  141   166	 1
  142   144	 1
  142   145	 1
  143   144	 1
  143   145	 1
  144   146	 1
  144   147	 1
  145   146	 1
  145   147	 1
  146   148	 1
  146   149	 1
  147   148	 1
  147   149	 1
  148   150	 1
  148   151	 1
  149   150	 1
  149   151	 1
  150   152	 1
  150   153	 1
  151   152	 1
  151   153	 1
  152   154	 1
  152   155	 1
  153   154	 1
  153   155	 1
  154   156	 1
  154   157	 1
  155   156	 1
  155   157	 1
  156   158	 1
  156   159	 1
  157   158	 1
  157   159	 1
  160   162	 1
  160   163	 1
  161   162	 1
  161   163	 1
  162   164	 1
  162   165	 1
  163   164	 1
  163   165	 1
  166   167	 1
  167   168	 1
  167   169	 1
  168   170	 1
  168   171	 1
  169   170	 1
  169   171	 1
  170   172	 1
  171   172	 1
  175   176	 1

[ angles ]
;	ai	  aj	ak funct			c0			  c1			c2			  c3
   32     1    33	5 ;      OG2D1      CG2O6      OG302
   32     1   123	5 ;      OG2D1      CG2O6      OG302
   33     1   123	5 ;      OG302      CG2O6      OG302
    3     2    37	5 ;     CG2R61      CG321       HGA2
    3     2    38	5 ;     CG2R61      CG321       HGA2
    3     2    33	5 ;     CG2R61      CG321      OG302
   37     2    38	5 ;       HGA2      CG321       HGA2
   37     2    33	5 ;       HGA2      CG321      OG302
   38     2    33	5 ;       HGA2      CG321      OG302
    2     3     4	5 ;      CG321     CG2R61     CG2R61
    2     3    31	5 ;      CG321     CG2R61     CG2R61
    4     3    31	5 ;     CG2R61     CG2R61     CG2R61
    3     4     5	5 ;     CG2R61     CG2R61     CG2R61
    3     4    39	5 ;     CG2R61     CG2R61      HGR61
    5     4    39	5 ;     CG2R61     CG2R61      HGR61
    4     5     6	5 ;     CG2R61     CG2R61     CG2R61
    4     5    40	5 ;     CG2R61     CG2R61      HGR61
    6     5    40	5 ;     CG2R61     CG2R61      HGR61
    5     6    30	5 ;     CG2R61     CG2R61     CG2R61
    5     6    34	5 ;     CG2R61     CG2R61      OG301
   30     6    34	5 ;     CG2R61     CG2R61      OG301
   28     7    29	5 ;      CG331      CG301      CG331
   28     7    35	5 ;      CG331      CG301      OG301
   28     7    34	5 ;      CG331      CG301      OG301
   29     7    35	5 ;      CG331      CG301      OG301
   29     7    34	5 ;      CG331      CG301      OG301
   35     7    34	5 ;      OG301      CG301      OG301
    9     8    41	5 ;      CG321      CG321       HGA2
    9     8    42	5 ;      CG321      CG321       HGA2
    9     8    35	5 ;      CG321      CG321      OG301
   41     8    42	5 ;       HGA2      CG321       HGA2
   41     8    35	5 ;       HGA2      CG321      OG301
   42     8    35	5 ;       HGA2      CG321      OG301
    8     9    36	5 ;      CG321      CG321      OG301
    8     9    43	5 ;      CG321      CG321       HGA2
    8     9    44	5 ;      CG321      CG321       HGA2
   36     9    43	5 ;      OG301      CG321       HGA2
   36     9    44	5 ;      OG301      CG321       HGA2
   43     9    44	5 ;       HGA2      CG321       HGA2
   11    10    45	5 ;      CG321      CG321       HGA2
   11    10    46	5 ;      CG321      CG321       HGA2
   11    10    36	5 ;      CG321      CG321      OG301
   45    10    46	5 ;       HGA2      CG321       HGA2
   45    10    36	5 ;       HGA2      CG321      OG301
   46    10    36	5 ;       HGA2      CG321      OG301
   10    11    12	5 ;      CG321      CG321      CG321
   10    11    47	5 ;      CG321      CG321       HGA2
   10    11    48	5 ;      CG321      CG321       HGA2
   12    11    47	5 ;      CG321      CG321       HGA2
   12    11    48	5 ;      CG321      CG321       HGA2
   47    11    48	5 ;       HGA2      CG321       HGA2
   11    12    13	5 ;      CG321      CG321      CG321
   11    12    49	5 ;      CG321      CG321       HGA2
   11    12    50	5 ;      CG321      CG321       HGA2
   13    12    49	5 ;      CG321      CG321       HGA2
   13    12    50	5 ;      CG321      CG321       HGA2
   49    12    50	5 ;       HGA2      CG321       HGA2
   12    13    14	5 ;      CG321      CG321      CG321
   12    13    51	5 ;      CG321      CG321       HGA2
   12    13    52	5 ;      CG321      CG321       HGA2
   14    13    51	5 ;      CG321      CG321       HGA2
   14    13    52	5 ;      CG321      CG321       HGA2
   51    13    52	5 ;       HGA2      CG321       HGA2
   13    14    15	5 ;      CG321      CG321      CG321
   13    14    53	5 ;      CG321      CG321       HGA2
   13    14    54	5 ;      CG321      CG321       HGA2
   15    14    53	5 ;      CG321      CG321       HGA2
   15    14    54	5 ;      CG321      CG321       HGA2
   53    14    54	5 ;       HGA2      CG321       HGA2
   14    15    16	5 ;      CG321      CG321      CG321
   14    15    55	5 ;      CG321      CG321       HGA2
   14    15    56	5 ;      CG321      CG321       HGA2
   16    15    55	5 ;      CG321      CG321       HGA2
   16    15    56	5 ;      CG321      CG321       HGA2
   55    15    56	5 ;       HGA2      CG321       HGA2
   15    16    17	5 ;      CG321      CG321      CG321
   15    16    57	5 ;      CG321      CG321       HGA2
   15    16    58	5 ;      CG321      CG321       HGA2
   17    16    57	5 ;      CG321      CG321       HGA2
   17    16    58	5 ;      CG321      CG321       HGA2
   57    16    58	5 ;       HGA2      CG321       HGA2
   16    17    18	5 ;      CG321      CG321      CG321
   16    17    59	5 ;      CG321      CG321       HGA2
   16    17    60	5 ;      CG321      CG321       HGA2
   18    17    59	5 ;      CG321      CG321       HGA2
   18    17    60	5 ;      CG321      CG321       HGA2
   59    17    60	5 ;       HGA2      CG321       HGA2
   17    18    19	5 ;      CG321      CG321      CG321
   17    18    61	5 ;      CG321      CG321       HGA2
   17    18    62	5 ;      CG321      CG321       HGA2
   19    18    61	5 ;      CG321      CG321       HGA2
   19    18    62	5 ;      CG321      CG321       HGA2
   61    18    62	5 ;       HGA2      CG321       HGA2
   18    19    20	5 ;      CG321      CG321      CG321
   18    19    63	5 ;      CG321      CG321       HGA2
   18    19    64	5 ;      CG321      CG321       HGA2
   20    19    63	5 ;      CG321      CG321       HGA2
   20    19    64	5 ;      CG321      CG321       HGA2
   63    19    64	5 ;       HGA2      CG321       HGA2
   19    20    21	5 ;      CG321      CG321      CG321
   19    20    65	5 ;      CG321      CG321       HGA2
   19    20    66	5 ;      CG321      CG321       HGA2
   21    20    65	5 ;      CG321      CG321       HGA2
   21    20    66	5 ;      CG321      CG321       HGA2
   65    20    66	5 ;       HGA2      CG321       HGA2
   20    21    22	5 ;      CG321      CG321      CG321
   20    21    67	5 ;      CG321      CG321       HGA2
   20    21    68	5 ;      CG321      CG321       HGA2
   22    21    67	5 ;      CG321      CG321       HGA2
   22    21    68	5 ;      CG321      CG321       HGA2
   67    21    68	5 ;       HGA2      CG321       HGA2
   21    22    23	5 ;      CG321      CG321      CG321
   21    22    69	5 ;      CG321      CG321       HGA2
   21    22    70	5 ;      CG321      CG321       HGA2
   23    22    69	5 ;      CG321      CG321       HGA2
   23    22    70	5 ;      CG321      CG321       HGA2
   69    22    70	5 ;       HGA2      CG321       HGA2
   22    23    24	5 ;      CG321      CG321      CG321
   22    23    71	5 ;      CG321      CG321       HGA2
   22    23    72	5 ;      CG321      CG321       HGA2
   24    23    71	5 ;      CG321      CG321       HGA2
   24    23    72	5 ;      CG321      CG321       HGA2
   71    23    72	5 ;       HGA2      CG321       HGA2
   23    24    25	5 ;      CG321      CG321      CG321
   23    24    73	5 ;      CG321      CG321       HGA2
   23    24    74	5 ;      CG321      CG321       HGA2
   25    24    73	5 ;      CG321      CG321       HGA2
   25    24    74	5 ;      CG321      CG321       HGA2
   73    24    74	5 ;       HGA2      CG321       HGA2
   24    25    26	5 ;      CG321      CG321      CG321
   24    25    75	5 ;      CG321      CG321       HGA2
   24    25    76	5 ;      CG321      CG321       HGA2
   26    25    75	5 ;      CG321      CG321       HGA2
   26    25    76	5 ;      CG321      CG321       HGA2
   75    25    76	5 ;       HGA2      CG321       HGA2
   25    26    27	5 ;      CG321      CG321      CG331
   25    26    77	5 ;      CG321      CG321       HGA2
   25    26    78	5 ;      CG321      CG321       HGA2
   27    26    77	5 ;      CG331      CG321       HGA2
   27    26    78	5 ;      CG331      CG321       HGA2
   77    26    78	5 ;       HGA2      CG321       HGA2
   26    27    79	5 ;      CG321      CG331       HGA3
   26    27    80	5 ;      CG321      CG331       HGA3
   26    27    81	5 ;      CG321      CG331       HGA3
   79    27    80	5 ;       HGA3      CG331       HGA3
   79    27    81	5 ;       HGA3      CG331       HGA3
   80    27    81	5 ;       HGA3      CG331       HGA3
    7    28    82	5 ;      CG301      CG331       HGA3
    7    28    83	5 ;      CG301      CG331       HGA3
    7    28    84	5 ;      CG301      CG331       HGA3
   82    28    83	5 ;       HGA3      CG331       HGA3
   82    28    84	5 ;       HGA3      CG331       HGA3
   83    28    84	5 ;       HGA3      CG331       HGA3
    7    29    85	5 ;      CG301      CG331       HGA3
    7    29    86	5 ;      CG301      CG331       HGA3
    7    29    87	5 ;      CG301      CG331       HGA3
   85    29    86	5 ;       HGA3      CG331       HGA3
   85    29    87	5 ;       HGA3      CG331       HGA3
   86    29    87	5 ;       HGA3      CG331       HGA3
    6    30    31	5 ;     CG2R61     CG2R61     CG2R61
    6    30    88	5 ;     CG2R61     CG2R61      HGR61
   31    30    88	5 ;     CG2R61     CG2R61      HGR61
    3    31    30	5 ;     CG2R61     CG2R61     CG2R61
    3    31    89	5 ;     CG2R61     CG2R61      HGR61
   30    31    89	5 ;     CG2R61     CG2R61      HGR61
    1    33     2	5 ;      CG2O6      OG302      CG321
    6    34     7	5 ;     CG2R61      OG301      CG301
    7    35     8	5 ;      CG301      OG301      CG321
    9    36    10	5 ;      CG321      OG301      CG321
   91    90   131	5 ;     CG3RC1      CG331       HGA3
   91    90   132	5 ;     CG3RC1      CG331       HGA3
   91    90   133	5 ;     CG3RC1      CG331       HGA3
  131    90   132	5 ;       HGA3      CG331       HGA3
  131    90   133	5 ;       HGA3      CG331       HGA3
  132    90   133	5 ;       HGA3      CG331       HGA3
   90    91    92	5 ;      CG331     CG3RC1      CG321
   90    91   114	5 ;      CG331     CG3RC1     CG3RC1
   90    91   117	5 ;      CG331     CG3RC1     CG3C51
   92    91   114	5 ;      CG321     CG3RC1     CG3RC1
   92    91   117	5 ;      CG321     CG3RC1     CG3C51
  114    91   117	5 ;     CG3RC1     CG3RC1     CG3C51
   91    92    93	5 ;     CG3RC1      CG321      CG321
   91    92   134	5 ;     CG3RC1      CG321       HGA2
   91    92   135	5 ;     CG3RC1      CG321       HGA2
   93    92   134	5 ;      CG321      CG321       HGA2
   93    92   135	5 ;      CG321      CG321       HGA2
  134    92   135	5 ;       HGA2      CG321       HGA2
   92    93    94	5 ;      CG321      CG321      CG311
   92    93   136	5 ;      CG321      CG321       HGA2
   92    93   137	5 ;      CG321      CG321       HGA2
   94    93   136	5 ;      CG311      CG321       HGA2
   94    93   137	5 ;      CG311      CG321       HGA2
  136    93   137	5 ;       HGA2      CG321       HGA2
   93    94    95	5 ;      CG321      CG311     CG2R61
   93    94   113	5 ;      CG321      CG311      CG311
   93    94   138	5 ;      CG321      CG311       HGA1
   95    94   113	5 ;     CG2R61      CG311      CG311
   95    94   138	5 ;     CG2R61      CG311       HGA1
  113    94   138	5 ;      CG311      CG311       HGA1
   94    95    96	5 ;      CG311     CG2R61     CG2R61
   94    95   121	5 ;      CG311     CG2R61     CG2R61
   96    95   121	5 ;     CG2R61     CG2R61     CG2R61
   95    96    97	5 ;     CG2R61     CG2R61      CG321
   95    96   118	5 ;     CG2R61     CG2R61     CG2R61
   97    96   118	5 ;      CG321     CG2R61     CG2R61
   96    97    98	5 ;     CG2R61      CG321      CG311
   96    97   139	5 ;     CG2R61      CG321       HGA2
   96    97   140	5 ;     CG2R61      CG321       HGA2
   98    97   139	5 ;      CG311      CG321       HGA2
   98    97   140	5 ;      CG311      CG321       HGA2
  139    97   140	5 ;       HGA2      CG321       HGA2
   97    98    99	5 ;      CG321      CG311      CG321
   97    98   113	5 ;      CG321      CG311      CG311
   97    98   141	5 ;      CG321      CG311       HGA1
   99    98   113	5 ;      CG321      CG311      CG311
   99    98   141	5 ;      CG321      CG311       HGA1
  113    98   141	5 ;      CG311      CG311       HGA1
   98    99   100	5 ;      CG311      CG321      CG321
   98    99   142	5 ;      CG311      CG321       HGA2
   98    99   143	5 ;      CG311      CG321       HGA2
  100    99   142	5 ;      CG321      CG321       HGA2
  100    99   143	5 ;      CG321      CG321       HGA2
  142    99   143	5 ;       HGA2      CG321       HGA2
   99   100   101	5 ;      CG321      CG321      CG321
   99   100   144	5 ;      CG321      CG321       HGA2
   99   100   145	5 ;      CG321      CG321       HGA2
  101   100   144	5 ;      CG321      CG321       HGA2
  101   100   145	5 ;      CG321      CG321       HGA2
  144   100   145	5 ;       HGA2      CG321       HGA2
  100   101   102	5 ;      CG321      CG321      CG321
  100   101   146	5 ;      CG321      CG321       HGA2
  100   101   147	5 ;      CG321      CG321       HGA2
  102   101   146	5 ;      CG321      CG321       HGA2
  102   101   147	5 ;      CG321      CG321       HGA2
  146   101   147	5 ;       HGA2      CG321       HGA2
  101   102   103	5 ;      CG321      CG321      CG321
  101   102   148	5 ;      CG321      CG321       HGA2
  101   102   149	5 ;      CG321      CG321       HGA2
  103   102   148	5 ;      CG321      CG321       HGA2
  103   102   149	5 ;      CG321      CG321       HGA2
  148   102   149	5 ;       HGA2      CG321       HGA2
  102   103   104	5 ;      CG321      CG321      CG321
  102   103   150	5 ;      CG321      CG321       HGA2
  102   103   151	5 ;      CG321      CG321       HGA2
  104   103   150	5 ;      CG321      CG321       HGA2
  104   103   151	5 ;      CG321      CG321       HGA2
  150   103   151	5 ;       HGA2      CG321       HGA2
  103   104   105	5 ;      CG321      CG321      CG321
  103   104   152	5 ;      CG321      CG321       HGA2
  103   104   153	5 ;      CG321      CG321       HGA2
  105   104   152	5 ;      CG321      CG321       HGA2
  105   104   153	5 ;      CG321      CG321       HGA2
  152   104   153	5 ;       HGA2      CG321       HGA2
  104   105   106	5 ;      CG321      CG321      CG321
  104   105   154	5 ;      CG321      CG321       HGA2
  104   105   155	5 ;      CG321      CG321       HGA2
  106   105   154	5 ;      CG321      CG321       HGA2
  106   105   155	5 ;      CG321      CG321       HGA2
  154   105   155	5 ;       HGA2      CG321       HGA2
  105   106   107	5 ;      CG321      CG321      CG321
  105   106   156	5 ;      CG321      CG321       HGA2
  105   106   157	5 ;      CG321      CG321       HGA2
  107   106   156	5 ;      CG321      CG321       HGA2
  107   106   157	5 ;      CG321      CG321       HGA2
  156   106   157	5 ;       HGA2      CG321       HGA2
  106   107   130	5 ;      CG321      CG321      SG3O3
  106   107   158	5 ;      CG321      CG321       HGA2
  106   107   159	5 ;      CG321      CG321       HGA2
  130   107   158	5 ;      SG3O3      CG321       HGA2
  130   107   159	5 ;      SG3O3      CG321       HGA2
  158   107   159	5 ;       HGA2      CG321       HGA2
  109   108   160	5 ;      CG321      CG321       HGA2
  109   108   161	5 ;      CG321      CG321       HGA2
  109   108   130	5 ;      CG321      CG321      SG3O3
  160   108   161	5 ;       HGA2      CG321       HGA2
  160   108   130	5 ;       HGA2      CG321      SG3O3
  161   108   130	5 ;       HGA2      CG321      SG3O3
  108   109   110	5 ;      CG321      CG321      CG321
  108   109   162	5 ;      CG321      CG321       HGA2
  108   109   163	5 ;      CG321      CG321       HGA2
  110   109   162	5 ;      CG321      CG321       HGA2
  110   109   163	5 ;      CG321      CG321       HGA2
  162   109   163	5 ;       HGA2      CG321       HGA2
  109   110   111	5 ;      CG321      CG321      CG312
  109   110   164	5 ;      CG321      CG321       HGA2
  109   110   165	5 ;      CG321      CG321       HGA2
  111   110   164	5 ;      CG312      CG321       HGA2
  111   110   165	5 ;      CG312      CG321       HGA2
  164   110   165	5 ;       HGA2      CG321       HGA2
  110   111   112	5 ;      CG321      CG312      CG302
  110   111   128	5 ;      CG321      CG312       FGA2
  110   111   129	5 ;      CG321      CG312       FGA2
  112   111   128	5 ;      CG302      CG312       FGA2
  112   111   129	5 ;      CG302      CG312       FGA2
  128   111   129	5 ;       FGA2      CG312       FGA2
  111   112   125	5 ;      CG312      CG302       FGA3
  111   112   126	5 ;      CG312      CG302       FGA3
  111   112   127	5 ;      CG312      CG302       FGA3
  125   112   126	5 ;       FGA3      CG302       FGA3
  125   112   127	5 ;       FGA3      CG302       FGA3
  126   112   127	5 ;       FGA3      CG302       FGA3
   94   113    98	5 ;      CG311      CG311      CG311
   94   113   114	5 ;      CG311      CG311     CG3RC1
   94   113   166	5 ;      CG311      CG311       HGA1
   98   113   114	5 ;      CG311      CG311     CG3RC1
   98   113   166	5 ;      CG311      CG311       HGA1
  114   113   166	5 ;     CG3RC1      CG311       HGA1
   91   114   113	5 ;     CG3RC1     CG3RC1      CG311
   91   114   115	5 ;     CG3RC1     CG3RC1     CG3C52
   91   114   167	5 ;     CG3RC1     CG3RC1       HGA1
  113   114   115	5 ;      CG311     CG3RC1     CG3C52
  113   114   167	5 ;      CG311     CG3RC1       HGA1
  115   114   167	5 ;     CG3C52     CG3RC1       HGA1
  114   115   116	5 ;     CG3RC1     CG3C52     CG3C52
  114   115   168	5 ;     CG3RC1     CG3C52       HGA2
  114   115   169	5 ;     CG3RC1     CG3C52       HGA2
  116   115   168	5 ;     CG3C52     CG3C52       HGA2
  116   115   169	5 ;     CG3C52     CG3C52       HGA2
  168   115   169	5 ;       HGA2     CG3C52       HGA2
  115   116   117	5 ;     CG3C52     CG3C52     CG3C51
  115   116   170	5 ;     CG3C52     CG3C52       HGA2
  115   116   171	5 ;     CG3C52     CG3C52       HGA2
  117   116   170	5 ;     CG3C51     CG3C52       HGA2
  117   116   171	5 ;     CG3C51     CG3C52       HGA2
  170   116   171	5 ;       HGA2     CG3C52       HGA2
   91   117   116	5 ;     CG3RC1     CG3C51     CG3C52
   91   117   123	5 ;     CG3RC1     CG3C51      OG302
   91   117   172	5 ;     CG3RC1     CG3C51       HGA1
  116   117   123	5 ;     CG3C52     CG3C51      OG302
  116   117   172	5 ;     CG3C52     CG3C51       HGA1
  123   117   172	5 ;      OG302     CG3C51       HGA1
   96   118   119	5 ;     CG2R61     CG2R61     CG2R61
   96   118   173	5 ;     CG2R61     CG2R61      HGR61
  119   118   173	5 ;     CG2R61     CG2R61      HGR61
  118   119   120	5 ;     CG2R61     CG2R61     CG2R61
  118   119   124	5 ;     CG2R61     CG2R61      OG311
  120   119   124	5 ;     CG2R61     CG2R61      OG311
  119   120   121	5 ;     CG2R61     CG2R61     CG2R61
  119   120   175	5 ;     CG2R61     CG2R61      HGR61
  121   120   175	5 ;     CG2R61     CG2R61      HGR61
   95   121   120	5 ;     CG2R61     CG2R61     CG2R61
   95   121   176	5 ;     CG2R61     CG2R61      HGR61
  120   121   176	5 ;     CG2R61     CG2R61      HGR61
  117   123     1	5 ;     CG3C51      OG302      CG2O6
  119   124   174	5 ;     CG2R61      OG311       HGP1
  107   130   108	5 ;      CG321      SG3O3      CG321
  107   130   122	5 ;      CG321      SG3O3      OG2P1
  108   130   122	5 ;      CG321      SG3O3      OG2P1

[ dihedrals ]
;	ai	  aj	ak	  al funct			  c0			c1			  c2			c3			  c4			c5
   32     1    33     2	 9 ;      OG2D1      CG2O6      OG302      CG321
  123     1    33     2	 9 ;      OG302      CG2O6      OG302      CG321
   32     1   123   117	 9 ;      OG2D1      CG2O6      OG302     CG3C51
   33     1   123   117	 9 ;      OG302      CG2O6      OG302     CG3C51
   37     2     3     4	 9 ;       HGA2      CG321     CG2R61     CG2R61
   37     2     3    31	 9 ;       HGA2      CG321     CG2R61     CG2R61
   38     2     3     4	 9 ;       HGA2      CG321     CG2R61     CG2R61
   38     2     3    31	 9 ;       HGA2      CG321     CG2R61     CG2R61
   33     2     3     4	 9 ;      OG302      CG321     CG2R61     CG2R61
   33     2     3    31	 9 ;      OG302      CG321     CG2R61     CG2R61
    3     2    33     1	 9 ;     CG2R61      CG321      OG302      CG2O6
   37     2    33     1	 9 ;       HGA2      CG321      OG302      CG2O6
   38     2    33     1	 9 ;       HGA2      CG321      OG302      CG2O6
    2     3     4     5	 9 ;      CG321     CG2R61     CG2R61     CG2R61
    2     3     4    39	 9 ;      CG321     CG2R61     CG2R61      HGR61
   31     3     4     5	 9 ;     CG2R61     CG2R61     CG2R61     CG2R61
   31     3     4    39	 9 ;     CG2R61     CG2R61     CG2R61      HGR61
    2     3    31    30	 9 ;      CG321     CG2R61     CG2R61     CG2R61
    2     3    31    89	 9 ;      CG321     CG2R61     CG2R61      HGR61
    4     3    31    30	 9 ;     CG2R61     CG2R61     CG2R61     CG2R61
    4     3    31    89	 9 ;     CG2R61     CG2R61     CG2R61      HGR61
    3     4     5     6	 9 ;     CG2R61     CG2R61     CG2R61     CG2R61
    3     4     5    40	 9 ;     CG2R61     CG2R61     CG2R61      HGR61
   39     4     5     6	 9 ;      HGR61     CG2R61     CG2R61     CG2R61
   39     4     5    40	 9 ;      HGR61     CG2R61     CG2R61      HGR61
    4     5     6    30	 9 ;     CG2R61     CG2R61     CG2R61     CG2R61
    4     5     6    34	 9 ;     CG2R61     CG2R61     CG2R61      OG301
   40     5     6    30	 9 ;      HGR61     CG2R61     CG2R61     CG2R61
   40     5     6    34	 9 ;      HGR61     CG2R61     CG2R61      OG301
    5     6    30    31	 9 ;     CG2R61     CG2R61     CG2R61     CG2R61
    5     6    30    88	 9 ;     CG2R61     CG2R61     CG2R61      HGR61
   34     6    30    31	 9 ;      OG301     CG2R61     CG2R61     CG2R61
   34     6    30    88	 9 ;      OG301     CG2R61     CG2R61      HGR61
    5     6    34     7	 9 ;     CG2R61     CG2R61      OG301      CG301
   30     6    34     7	 9 ;     CG2R61     CG2R61      OG301      CG301
   29     7    28    82	 9 ;      CG331      CG301      CG331       HGA3
   29     7    28    83	 9 ;      CG331      CG301      CG331       HGA3
   29     7    28    84	 9 ;      CG331      CG301      CG331       HGA3
   35     7    28    82	 9 ;      OG301      CG301      CG331       HGA3
   35     7    28    83	 9 ;      OG301      CG301      CG331       HGA3
   35     7    28    84	 9 ;      OG301      CG301      CG331       HGA3
   34     7    28    82	 9 ;      OG301      CG301      CG331       HGA3
   34     7    28    83	 9 ;      OG301      CG301      CG331       HGA3
   34     7    28    84	 9 ;      OG301      CG301      CG331       HGA3
   28     7    29    85	 9 ;      CG331      CG301      CG331       HGA3
   28     7    29    86	 9 ;      CG331      CG301      CG331       HGA3
   28     7    29    87	 9 ;      CG331      CG301      CG331       HGA3
   35     7    29    85	 9 ;      OG301      CG301      CG331       HGA3
   35     7    29    86	 9 ;      OG301      CG301      CG331       HGA3
   35     7    29    87	 9 ;      OG301      CG301      CG331       HGA3
   34     7    29    85	 9 ;      OG301      CG301      CG331       HGA3
   34     7    29    86	 9 ;      OG301      CG301      CG331       HGA3
   34     7    29    87	 9 ;      OG301      CG301      CG331       HGA3
   28     7    35     8	 9 ;      CG331      CG301      OG301      CG321
   29     7    35     8	 9 ;      CG331      CG301      OG301      CG321
   34     7    35     8	 9 ;      OG301      CG301      OG301      CG321
   28     7    34     6	 9 ;      CG331      CG301      OG301     CG2R61
   29     7    34     6	 9 ;      CG331      CG301      OG301     CG2R61
   35     7    34     6	 9 ;      OG301      CG301      OG301     CG2R61
   41     8     9    36	 9 ;       HGA2      CG321      CG321      OG301
   41     8     9    43	 9 ;       HGA2      CG321      CG321       HGA2
   41     8     9    44	 9 ;       HGA2      CG321      CG321       HGA2
   42     8     9    36	 9 ;       HGA2      CG321      CG321      OG301
   42     8     9    43	 9 ;       HGA2      CG321      CG321       HGA2
   42     8     9    44	 9 ;       HGA2      CG321      CG321       HGA2
   35     8     9    36	 9 ;      OG301      CG321      CG321      OG301
   35     8     9    43	 9 ;      OG301      CG321      CG321       HGA2
   35     8     9    44	 9 ;      OG301      CG321      CG321       HGA2
    9     8    35     7	 9 ;      CG321      CG321      OG301      CG301
   41     8    35     7	 9 ;       HGA2      CG321      OG301      CG301
   42     8    35     7	 9 ;       HGA2      CG321      OG301      CG301
    8     9    36    10	 9 ;      CG321      CG321      OG301      CG321
   43     9    36    10	 9 ;       HGA2      CG321      OG301      CG321
   44     9    36    10	 9 ;       HGA2      CG321      OG301      CG321
   45    10    11    12	 9 ;       HGA2      CG321      CG321      CG321
   45    10    11    47	 9 ;       HGA2      CG321      CG321       HGA2
   45    10    11    48	 9 ;       HGA2      CG321      CG321       HGA2
   46    10    11    12	 9 ;       HGA2      CG321      CG321      CG321
   46    10    11    47	 9 ;       HGA2      CG321      CG321       HGA2
   46    10    11    48	 9 ;       HGA2      CG321      CG321       HGA2
   36    10    11    12	 9 ;      OG301      CG321      CG321      CG321
   36    10    11    47	 9 ;      OG301      CG321      CG321       HGA2
   36    10    11    48	 9 ;      OG301      CG321      CG321       HGA2
   11    10    36     9	 9 ;      CG321      CG321      OG301      CG321
   45    10    36     9	 9 ;       HGA2      CG321      OG301      CG321
   46    10    36     9	 9 ;       HGA2      CG321      OG301      CG321
   10    11    12    13	 9 ;      CG321      CG321      CG321      CG321
   10    11    12    49	 9 ;      CG321      CG321      CG321       HGA2
   10    11    12    50	 9 ;      CG321      CG321      CG321       HGA2
   47    11    12    13	 9 ;       HGA2      CG321      CG321      CG321
   47    11    12    49	 9 ;       HGA2      CG321      CG321       HGA2
   47    11    12    50	 9 ;       HGA2      CG321      CG321       HGA2
   48    11    12    13	 9 ;       HGA2      CG321      CG321      CG321
   48    11    12    49	 9 ;       HGA2      CG321      CG321       HGA2
   48    11    12    50	 9 ;       HGA2      CG321      CG321       HGA2
   11    12    13    14	 9 ;      CG321      CG321      CG321      CG321
   11    12    13    51	 9 ;      CG321      CG321      CG321       HGA2
   11    12    13    52	 9 ;      CG321      CG321      CG321       HGA2
   49    12    13    14	 9 ;       HGA2      CG321      CG321      CG321
   49    12    13    51	 9 ;       HGA2      CG321      CG321       HGA2
   49    12    13    52	 9 ;       HGA2      CG321      CG321       HGA2
   50    12    13    14	 9 ;       HGA2      CG321      CG321      CG321
   50    12    13    51	 9 ;       HGA2      CG321      CG321       HGA2
   50    12    13    52	 9 ;       HGA2      CG321      CG321       HGA2
   12    13    14    15	 9 ;      CG321      CG321      CG321      CG321
   12    13    14    53	 9 ;      CG321      CG321      CG321       HGA2
   12    13    14    54	 9 ;      CG321      CG321      CG321       HGA2
   51    13    14    15	 9 ;       HGA2      CG321      CG321      CG321
   51    13    14    53	 9 ;       HGA2      CG321      CG321       HGA2
   51    13    14    54	 9 ;       HGA2      CG321      CG321       HGA2
   52    13    14    15	 9 ;       HGA2      CG321      CG321      CG321
   52    13    14    53	 9 ;       HGA2      CG321      CG321       HGA2
   52    13    14    54	 9 ;       HGA2      CG321      CG321       HGA2
   13    14    15    16	 9 ;      CG321      CG321      CG321      CG321
   13    14    15    55	 9 ;      CG321      CG321      CG321       HGA2
   13    14    15    56	 9 ;      CG321      CG321      CG321       HGA2
   53    14    15    16	 9 ;       HGA2      CG321      CG321      CG321
   53    14    15    55	 9 ;       HGA2      CG321      CG321       HGA2
   53    14    15    56	 9 ;       HGA2      CG321      CG321       HGA2
   54    14    15    16	 9 ;       HGA2      CG321      CG321      CG321
   54    14    15    55	 9 ;       HGA2      CG321      CG321       HGA2
   54    14    15    56	 9 ;       HGA2      CG321      CG321       HGA2
   14    15    16    17	 9 ;      CG321      CG321      CG321      CG321
   14    15    16    57	 9 ;      CG321      CG321      CG321       HGA2
   14    15    16    58	 9 ;      CG321      CG321      CG321       HGA2
   55    15    16    17	 9 ;       HGA2      CG321      CG321      CG321
   55    15    16    57	 9 ;       HGA2      CG321      CG321       HGA2
   55    15    16    58	 9 ;       HGA2      CG321      CG321       HGA2
   56    15    16    17	 9 ;       HGA2      CG321      CG321      CG321
   56    15    16    57	 9 ;       HGA2      CG321      CG321       HGA2
   56    15    16    58	 9 ;       HGA2      CG321      CG321       HGA2
   15    16    17    18	 9 ;      CG321      CG321      CG321      CG321
   15    16    17    59	 9 ;      CG321      CG321      CG321       HGA2
   15    16    17    60	 9 ;      CG321      CG321      CG321       HGA2
   57    16    17    18	 9 ;       HGA2      CG321      CG321      CG321
   57    16    17    59	 9 ;       HGA2      CG321      CG321       HGA2
   57    16    17    60	 9 ;       HGA2      CG321      CG321       HGA2
   58    16    17    18	 9 ;       HGA2      CG321      CG321      CG321
   58    16    17    59	 9 ;       HGA2      CG321      CG321       HGA2
   58    16    17    60	 9 ;       HGA2      CG321      CG321       HGA2
   16    17    18    19	 9 ;      CG321      CG321      CG321      CG321
   16    17    18    61	 9 ;      CG321      CG321      CG321       HGA2
   16    17    18    62	 9 ;      CG321      CG321      CG321       HGA2
   59    17    18    19	 9 ;       HGA2      CG321      CG321      CG321
   59    17    18    61	 9 ;       HGA2      CG321      CG321       HGA2
   59    17    18    62	 9 ;       HGA2      CG321      CG321       HGA2
   60    17    18    19	 9 ;       HGA2      CG321      CG321      CG321
   60    17    18    61	 9 ;       HGA2      CG321      CG321       HGA2
   60    17    18    62	 9 ;       HGA2      CG321      CG321       HGA2
   17    18    19    20	 9 ;      CG321      CG321      CG321      CG321
   17    18    19    63	 9 ;      CG321      CG321      CG321       HGA2
   17    18    19    64	 9 ;      CG321      CG321      CG321       HGA2
   61    18    19    20	 9 ;       HGA2      CG321      CG321      CG321
   61    18    19    63	 9 ;       HGA2      CG321      CG321       HGA2
   61    18    19    64	 9 ;       HGA2      CG321      CG321       HGA2
   62    18    19    20	 9 ;       HGA2      CG321      CG321      CG321
   62    18    19    63	 9 ;       HGA2      CG321      CG321       HGA2
   62    18    19    64	 9 ;       HGA2      CG321      CG321       HGA2
   18    19    20    21	 9 ;      CG321      CG321      CG321      CG321
   18    19    20    65	 9 ;      CG321      CG321      CG321       HGA2
   18    19    20    66	 9 ;      CG321      CG321      CG321       HGA2
   63    19    20    21	 9 ;       HGA2      CG321      CG321      CG321
   63    19    20    65	 9 ;       HGA2      CG321      CG321       HGA2
   63    19    20    66	 9 ;       HGA2      CG321      CG321       HGA2
   64    19    20    21	 9 ;       HGA2      CG321      CG321      CG321
   64    19    20    65	 9 ;       HGA2      CG321      CG321       HGA2
   64    19    20    66	 9 ;       HGA2      CG321      CG321       HGA2
   19    20    21    22	 9 ;      CG321      CG321      CG321      CG321
   19    20    21    67	 9 ;      CG321      CG321      CG321       HGA2
   19    20    21    68	 9 ;      CG321      CG321      CG321       HGA2
   65    20    21    22	 9 ;       HGA2      CG321      CG321      CG321
   65    20    21    67	 9 ;       HGA2      CG321      CG321       HGA2
   65    20    21    68	 9 ;       HGA2      CG321      CG321       HGA2
   66    20    21    22	 9 ;       HGA2      CG321      CG321      CG321
   66    20    21    67	 9 ;       HGA2      CG321      CG321       HGA2
   66    20    21    68	 9 ;       HGA2      CG321      CG321       HGA2
   20    21    22    23	 9 ;      CG321      CG321      CG321      CG321
   20    21    22    69	 9 ;      CG321      CG321      CG321       HGA2
   20    21    22    70	 9 ;      CG321      CG321      CG321       HGA2
   67    21    22    23	 9 ;       HGA2      CG321      CG321      CG321
   67    21    22    69	 9 ;       HGA2      CG321      CG321       HGA2
   67    21    22    70	 9 ;       HGA2      CG321      CG321       HGA2
   68    21    22    23	 9 ;       HGA2      CG321      CG321      CG321
   68    21    22    69	 9 ;       HGA2      CG321      CG321       HGA2
   68    21    22    70	 9 ;       HGA2      CG321      CG321       HGA2
   21    22    23    24	 9 ;      CG321      CG321      CG321      CG321
   21    22    23    71	 9 ;      CG321      CG321      CG321       HGA2
   21    22    23    72	 9 ;      CG321      CG321      CG321       HGA2
   69    22    23    24	 9 ;       HGA2      CG321      CG321      CG321
   69    22    23    71	 9 ;       HGA2      CG321      CG321       HGA2
   69    22    23    72	 9 ;       HGA2      CG321      CG321       HGA2
   70    22    23    24	 9 ;       HGA2      CG321      CG321      CG321
   70    22    23    71	 9 ;       HGA2      CG321      CG321       HGA2
   70    22    23    72	 9 ;       HGA2      CG321      CG321       HGA2
   22    23    24    25	 9 ;      CG321      CG321      CG321      CG321
   22    23    24    73	 9 ;      CG321      CG321      CG321       HGA2
   22    23    24    74	 9 ;      CG321      CG321      CG321       HGA2
   71    23    24    25	 9 ;       HGA2      CG321      CG321      CG321
   71    23    24    73	 9 ;       HGA2      CG321      CG321       HGA2
   71    23    24    74	 9 ;       HGA2      CG321      CG321       HGA2
   72    23    24    25	 9 ;       HGA2      CG321      CG321      CG321
   72    23    24    73	 9 ;       HGA2      CG321      CG321       HGA2
   72    23    24    74	 9 ;       HGA2      CG321      CG321       HGA2
   23    24    25    26	 9 ;      CG321      CG321      CG321      CG321
   23    24    25    75	 9 ;      CG321      CG321      CG321       HGA2
   23    24    25    76	 9 ;      CG321      CG321      CG321       HGA2
   73    24    25    26	 9 ;       HGA2      CG321      CG321      CG321
   73    24    25    75	 9 ;       HGA2      CG321      CG321       HGA2
   73    24    25    76	 9 ;       HGA2      CG321      CG321       HGA2
   74    24    25    26	 9 ;       HGA2      CG321      CG321      CG321
   74    24    25    75	 9 ;       HGA2      CG321      CG321       HGA2
   74    24    25    76	 9 ;       HGA2      CG321      CG321       HGA2
   24    25    26    27	 9 ;      CG321      CG321      CG321      CG331
   24    25    26    77	 9 ;      CG321      CG321      CG321       HGA2
   24    25    26    78	 9 ;      CG321      CG321      CG321       HGA2
   75    25    26    27	 9 ;       HGA2      CG321      CG321      CG331
   75    25    26    77	 9 ;       HGA2      CG321      CG321       HGA2
   75    25    26    78	 9 ;       HGA2      CG321      CG321       HGA2
   76    25    26    27	 9 ;       HGA2      CG321      CG321      CG331
   76    25    26    77	 9 ;       HGA2      CG321      CG321       HGA2
   76    25    26    78	 9 ;       HGA2      CG321      CG321       HGA2
   25    26    27    79	 9 ;      CG321      CG321      CG331       HGA3
   25    26    27    80	 9 ;      CG321      CG321      CG331       HGA3
   25    26    27    81	 9 ;      CG321      CG321      CG331       HGA3
   77    26    27    79	 9 ;       HGA2      CG321      CG331       HGA3
   77    26    27    80	 9 ;       HGA2      CG321      CG331       HGA3
   77    26    27    81	 9 ;       HGA2      CG321      CG331       HGA3
   78    26    27    79	 9 ;       HGA2      CG321      CG331       HGA3
   78    26    27    80	 9 ;       HGA2      CG321      CG331       HGA3
   78    26    27    81	 9 ;       HGA2      CG321      CG331       HGA3
    6    30    31     3	 9 ;     CG2R61     CG2R61     CG2R61     CG2R61
    6    30    31    89	 9 ;     CG2R61     CG2R61     CG2R61      HGR61
   88    30    31     3	 9 ;      HGR61     CG2R61     CG2R61     CG2R61
   88    30    31    89	 9 ;      HGR61     CG2R61     CG2R61      HGR61
  131    90    91    92	 9 ;       HGA3      CG331     CG3RC1      CG321
  131    90    91   114	 9 ;       HGA3      CG331     CG3RC1     CG3RC1
  131    90    91   117	 9 ;       HGA3      CG331     CG3RC1     CG3C51
  132    90    91    92	 9 ;       HGA3      CG331     CG3RC1      CG321
  132    90    91   114	 9 ;       HGA3      CG331     CG3RC1     CG3RC1
  132    90    91   117	 9 ;       HGA3      CG331     CG3RC1     CG3C51
  133    90    91    92	 9 ;       HGA3      CG331     CG3RC1      CG321
  133    90    91   114	 9 ;       HGA3      CG331     CG3RC1     CG3RC1
  133    90    91   117	 9 ;       HGA3      CG331     CG3RC1     CG3C51
   90    91    92    93	 9 ;      CG331     CG3RC1      CG321      CG321
   90    91    92   134	 9 ;      CG331     CG3RC1      CG321       HGA2
   90    91    92   135	 9 ;      CG331     CG3RC1      CG321       HGA2
  114    91    92    93	 9 ;     CG3RC1     CG3RC1      CG321      CG321
  114    91    92   134	 9 ;     CG3RC1     CG3RC1      CG321       HGA2
  114    91    92   135	 9 ;     CG3RC1     CG3RC1      CG321       HGA2
  117    91    92    93	 9 ;     CG3C51     CG3RC1      CG321      CG321
  117    91    92   134	 9 ;     CG3C51     CG3RC1      CG321       HGA2
  117    91    92   135	 9 ;     CG3C51     CG3RC1      CG321       HGA2
   90    91   114   113	 9 ;      CG331     CG3RC1     CG3RC1      CG311
   90    91   114   115	 9 ;      CG331     CG3RC1     CG3RC1     CG3C52
   90    91   114   167	 9 ;      CG331     CG3RC1     CG3RC1       HGA1
   92    91   114   113	 9 ;      CG321     CG3RC1     CG3RC1      CG311
   92    91   114   115	 9 ;      CG321     CG3RC1     CG3RC1     CG3C52
   92    91   114   167	 9 ;      CG321     CG3RC1     CG3RC1       HGA1
  117    91   114   113	 9 ;     CG3C51     CG3RC1     CG3RC1      CG311
  117    91   114   115	 9 ;     CG3C51     CG3RC1     CG3RC1     CG3C52
  117    91   114   167	 9 ;     CG3C51     CG3RC1     CG3RC1       HGA1
   90    91   117   116	 9 ;      CG331     CG3RC1     CG3C51     CG3C52
   90    91   117   123	 9 ;      CG331     CG3RC1     CG3C51      OG302
   90    91   117   172	 9 ;      CG331     CG3RC1     CG3C51       HGA1
   92    91   117   116	 9 ;      CG321     CG3RC1     CG3C51     CG3C52
   92    91   117   123	 9 ;      CG321     CG3RC1     CG3C51      OG302
   92    91   117   172	 9 ;      CG321     CG3RC1     CG3C51       HGA1
  114    91   117   116	 9 ;     CG3RC1     CG3RC1     CG3C51     CG3C52
  114    91   117   123	 9 ;     CG3RC1     CG3RC1     CG3C51      OG302
  114    91   117   172	 9 ;     CG3RC1     CG3RC1     CG3C51       HGA1
   91    92    93    94	 9 ;     CG3RC1      CG321      CG321      CG311
   91    92    93   136	 9 ;     CG3RC1      CG321      CG321       HGA2
   91    92    93   137	 9 ;     CG3RC1      CG321      CG321       HGA2
  134    92    93    94	 9 ;       HGA2      CG321      CG321      CG311
  134    92    93   136	 9 ;       HGA2      CG321      CG321       HGA2
  134    92    93   137	 9 ;       HGA2      CG321      CG321       HGA2
  135    92    93    94	 9 ;       HGA2      CG321      CG321      CG311
  135    92    93   136	 9 ;       HGA2      CG321      CG321       HGA2
  135    92    93   137	 9 ;       HGA2      CG321      CG321       HGA2
   92    93    94    95	 9 ;      CG321      CG321      CG311     CG2R61
   92    93    94   113	 9 ;      CG321      CG321      CG311      CG311
   92    93    94   138	 9 ;      CG321      CG321      CG311       HGA1
  136    93    94    95	 9 ;       HGA2      CG321      CG311     CG2R61
  136    93    94   113	 9 ;       HGA2      CG321      CG311      CG311
  136    93    94   138	 9 ;       HGA2      CG321      CG311       HGA1
  137    93    94    95	 9 ;       HGA2      CG321      CG311     CG2R61
  137    93    94   113	 9 ;       HGA2      CG321      CG311      CG311
  137    93    94   138	 9 ;       HGA2      CG321      CG311       HGA1
   93    94    95    96	 9 ;      CG321      CG311     CG2R61     CG2R61
   93    94    95   121	 9 ;      CG321      CG311     CG2R61     CG2R61
  113    94    95    96	 9 ;      CG311      CG311     CG2R61     CG2R61
  113    94    95   121	 9 ;      CG311      CG311     CG2R61     CG2R61
  138    94    95    96	 9 ;       HGA1      CG311     CG2R61     CG2R61
  138    94    95   121	 9 ;       HGA1      CG311     CG2R61     CG2R61
   93    94   113    98	 9 ;      CG321      CG311      CG311      CG311
   93    94   113   114	 9 ;      CG321      CG311      CG311     CG3RC1
   93    94   113   166	 9 ;      CG321      CG311      CG311       HGA1
   95    94   113    98	 9 ;     CG2R61      CG311      CG311      CG311
   95    94   113   114	 9 ;     CG2R61      CG311      CG311     CG3RC1
   95    94   113   166	 9 ;     CG2R61      CG311      CG311       HGA1
  138    94   113    98	 9 ;       HGA1      CG311      CG311      CG311
  138    94   113   114	 9 ;       HGA1      CG311      CG311     CG3RC1
  138    94   113   166	 9 ;       HGA1      CG311      CG311       HGA1
   94    95    96    97	 9 ;      CG311     CG2R61     CG2R61      CG321
   94    95    96   118	 9 ;      CG311     CG2R61     CG2R61     CG2R61
  121    95    96    97	 9 ;     CG2R61     CG2R61     CG2R61      CG321
  121    95    96   118	 9 ;     CG2R61     CG2R61     CG2R61     CG2R61
   94    95   121   120	 9 ;      CG311     CG2R61     CG2R61     CG2R61
   94    95   121   176	 9 ;      CG311     CG2R61     CG2R61      HGR61
   96    95   121   120	 9 ;     CG2R61     CG2R61     CG2R61     CG2R61
   96    95   121   176	 9 ;     CG2R61     CG2R61     CG2R61      HGR61
   95    96    97    98	 9 ;     CG2R61     CG2R61      CG321      CG311
   95    96    97   139	 9 ;     CG2R61     CG2R61      CG321       HGA2
   95    96    97   140	 9 ;     CG2R61     CG2R61      CG321       HGA2
  118    96    97    98	 9 ;     CG2R61     CG2R61      CG321      CG311
  118    96    97   139	 9 ;     CG2R61     CG2R61      CG321       HGA2
  118    96    97   140	 9 ;     CG2R61     CG2R61      CG321       HGA2
   95    96   118   119	 9 ;     CG2R61     CG2R61     CG2R61     CG2R61
   95    96   118   173	 9 ;     CG2R61     CG2R61     CG2R61      HGR61
   97    96   118   119	 9 ;      CG321     CG2R61     CG2R61     CG2R61
   97    96   118   173	 9 ;      CG321     CG2R61     CG2R61      HGR61
   96    97    98    99	 9 ;     CG2R61      CG321      CG311      CG321
   96    97    98   113	 9 ;     CG2R61      CG321      CG311      CG311
   96    97    98   141	 9 ;     CG2R61      CG321      CG311       HGA1
  139    97    98    99	 9 ;       HGA2      CG321      CG311      CG321
  139    97    98   113	 9 ;       HGA2      CG321      CG311      CG311
  139    97    98   141	 9 ;       HGA2      CG321      CG311       HGA1
  140    97    98    99	 9 ;       HGA2      CG321      CG311      CG321
  140    97    98   113	 9 ;       HGA2      CG321      CG311      CG311
  140    97    98   141	 9 ;       HGA2      CG321      CG311       HGA1
   97    98    99   100	 9 ;      CG321      CG311      CG321      CG321
   97    98    99   142	 9 ;      CG321      CG311      CG321       HGA2
   97    98    99   143	 9 ;      CG321      CG311      CG321       HGA2
  113    98    99   100	 9 ;      CG311      CG311      CG321      CG321
  113    98    99   142	 9 ;      CG311      CG311      CG321       HGA2
  113    98    99   143	 9 ;      CG311      CG311      CG321       HGA2
  141    98    99   100	 9 ;       HGA1      CG311      CG321      CG321
  141    98    99   142	 9 ;       HGA1      CG311      CG321       HGA2
  141    98    99   143	 9 ;       HGA1      CG311      CG321       HGA2
   97    98   113    94	 9 ;      CG321      CG311      CG311      CG311
   97    98   113   114	 9 ;      CG321      CG311      CG311     CG3RC1
   97    98   113   166	 9 ;      CG321      CG311      CG311       HGA1
   99    98   113    94	 9 ;      CG321      CG311      CG311      CG311
   99    98   113   114	 9 ;      CG321      CG311      CG311     CG3RC1
   99    98   113   166	 9 ;      CG321      CG311      CG311       HGA1
  141    98   113    94	 9 ;       HGA1      CG311      CG311      CG311
  141    98   113   114	 9 ;       HGA1      CG311      CG311     CG3RC1
  141    98   113   166	 9 ;       HGA1      CG311      CG311       HGA1
   98    99   100   101	 9 ;      CG311      CG321      CG321      CG321
   98    99   100   144	 9 ;      CG311      CG321      CG321       HGA2
   98    99   100   145	 9 ;      CG311      CG321      CG321       HGA2
  142    99   100   101	 9 ;       HGA2      CG321      CG321      CG321
  142    99   100   144	 9 ;       HGA2      CG321      CG321       HGA2
  142    99   100   145	 9 ;       HGA2      CG321      CG321       HGA2
  143    99   100   101	 9 ;       HGA2      CG321      CG321      CG321
  143    99   100   144	 9 ;       HGA2      CG321      CG321       HGA2
  143    99   100   145	 9 ;       HGA2      CG321      CG321       HGA2
   99   100   101   102	 9 ;      CG321      CG321      CG321      CG321
   99   100   101   146	 9 ;      CG321      CG321      CG321       HGA2
   99   100   101   147	 9 ;      CG321      CG321      CG321       HGA2
  144   100   101   102	 9 ;       HGA2      CG321      CG321      CG321
  144   100   101   146	 9 ;       HGA2      CG321      CG321       HGA2
  144   100   101   147	 9 ;       HGA2      CG321      CG321       HGA2
  145   100   101   102	 9 ;       HGA2      CG321      CG321      CG321
  145   100   101   146	 9 ;       HGA2      CG321      CG321       HGA2
  145   100   101   147	 9 ;       HGA2      CG321      CG321       HGA2
  100   101   102   103	 9 ;      CG321      CG321      CG321      CG321
  100   101   102   148	 9 ;      CG321      CG321      CG321       HGA2
  100   101   102   149	 9 ;      CG321      CG321      CG321       HGA2
  146   101   102   103	 9 ;       HGA2      CG321      CG321      CG321
  146   101   102   148	 9 ;       HGA2      CG321      CG321       HGA2
  146   101   102   149	 9 ;       HGA2      CG321      CG321       HGA2
  147   101   102   103	 9 ;       HGA2      CG321      CG321      CG321
  147   101   102   148	 9 ;       HGA2      CG321      CG321       HGA2
  147   101   102   149	 9 ;       HGA2      CG321      CG321       HGA2
  101   102   103   104	 9 ;      CG321      CG321      CG321      CG321
  101   102   103   150	 9 ;      CG321      CG321      CG321       HGA2
  101   102   103   151	 9 ;      CG321      CG321      CG321       HGA2
  148   102   103   104	 9 ;       HGA2      CG321      CG321      CG321
  148   102   103   150	 9 ;       HGA2      CG321      CG321       HGA2
  148   102   103   151	 9 ;       HGA2      CG321      CG321       HGA2
  149   102   103   104	 9 ;       HGA2      CG321      CG321      CG321
  149   102   103   150	 9 ;       HGA2      CG321      CG321       HGA2
  149   102   103   151	 9 ;       HGA2      CG321      CG321       HGA2
  102   103   104   105	 9 ;      CG321      CG321      CG321      CG321
  102   103   104   152	 9 ;      CG321      CG321      CG321       HGA2
  102   103   104   153	 9 ;      CG321      CG321      CG321       HGA2
  150   103   104   105	 9 ;       HGA2      CG321      CG321      CG321
  150   103   104   152	 9 ;       HGA2      CG321      CG321       HGA2
  150   103   104   153	 9 ;       HGA2      CG321      CG321       HGA2
  151   103   104   105	 9 ;       HGA2      CG321      CG321      CG321
  151   103   104   152	 9 ;       HGA2      CG321      CG321       HGA2
  151   103   104   153	 9 ;       HGA2      CG321      CG321       HGA2
  103   104   105   106	 9 ;      CG321      CG321      CG321      CG321
  103   104   105   154	 9 ;      CG321      CG321      CG321       HGA2
  103   104   105   155	 9 ;      CG321      CG321      CG321       HGA2
  152   104   105   106	 9 ;       HGA2      CG321      CG321      CG321
  152   104   105   154	 9 ;       HGA2      CG321      CG321       HGA2
  152   104   105   155	 9 ;       HGA2      CG321      CG321       HGA2
  153   104   105   106	 9 ;       HGA2      CG321      CG321      CG321
  153   104   105   154	 9 ;       HGA2      CG321      CG321       HGA2
  153   104   105   155	 9 ;       HGA2      CG321      CG321       HGA2
  104   105   106   107	 9 ;      CG321      CG321      CG321      CG321
  104   105   106   156	 9 ;      CG321      CG321      CG321       HGA2
  104   105   106   157	 9 ;      CG321      CG321      CG321       HGA2
  154   105   106   107	 9 ;       HGA2      CG321      CG321      CG321
  154   105   106   156	 9 ;       HGA2      CG321      CG321       HGA2
  154   105   106   157	 9 ;       HGA2      CG321      CG321       HGA2
  155   105   106   107	 9 ;       HGA2      CG321      CG321      CG321
  155   105   106   156	 9 ;       HGA2      CG321      CG321       HGA2
  155   105   106   157	 9 ;       HGA2      CG321      CG321       HGA2
  105   106   107   130	 9 ;      CG321      CG321      CG321      SG3O3
  105   106   107   158	 9 ;      CG321      CG321      CG321       HGA2
  105   106   107   159	 9 ;      CG321      CG321      CG321       HGA2
  156   106   107   130	 9 ;       HGA2      CG321      CG321      SG3O3
  156   106   107   158	 9 ;       HGA2      CG321      CG321       HGA2
  156   106   107   159	 9 ;       HGA2      CG321      CG321       HGA2
  157   106   107   130	 9 ;       HGA2      CG321      CG321      SG3O3
  157   106   107   158	 9 ;       HGA2      CG321      CG321       HGA2
  157   106   107   159	 9 ;       HGA2      CG321      CG321       HGA2
  106   107   130   108	 9 ;      CG321      CG321      SG3O3      CG321
  106   107   130   122	 9 ;      CG321      CG321      SG3O3      OG2P1
  158   107   130   108	 9 ;       HGA2      CG321      SG3O3      CG321
  158   107   130   122	 9 ;       HGA2      CG321      SG3O3      OG2P1
  159   107   130   108	 9 ;       HGA2      CG321      SG3O3      CG321
  159   107   130   122	 9 ;       HGA2      CG321      SG3O3      OG2P1
  160   108   109   110	 9 ;       HGA2      CG321      CG321      CG321
  160   108   109   162	 9 ;       HGA2      CG321      CG321       HGA2
  160   108   109   163	 9 ;       HGA2      CG321      CG321       HGA2
  161   108   109   110	 9 ;       HGA2      CG321      CG321      CG321
  161   108   109   162	 9 ;       HGA2      CG321      CG321       HGA2
  161   108   109   163	 9 ;       HGA2      CG321      CG321       HGA2
  130   108   109   110	 9 ;      SG3O3      CG321      CG321      CG321
  130   108   109   162	 9 ;      SG3O3      CG321      CG321       HGA2
  130   108   109   163	 9 ;      SG3O3      CG321      CG321       HGA2
  109   108   130   107	 9 ;      CG321      CG321      SG3O3      CG321
  109   108   130   122	 9 ;      CG321      CG321      SG3O3      OG2P1
  160   108   130   107	 9 ;       HGA2      CG321      SG3O3      CG321
  160   108   130   122	 9 ;       HGA2      CG321      SG3O3      OG2P1
  161   108   130   107	 9 ;       HGA2      CG321      SG3O3      CG321
  161   108   130   122	 9 ;       HGA2      CG321      SG3O3      OG2P1
  108   109   110   111	 9 ;      CG321      CG321      CG321      CG312
  108   109   110   164	 9 ;      CG321      CG321      CG321       HGA2
  108   109   110   165	 9 ;      CG321      CG321      CG321       HGA2
  162   109   110   111	 9 ;       HGA2      CG321      CG321      CG312
  162   109   110   164	 9 ;       HGA2      CG321      CG321       HGA2
  162   109   110   165	 9 ;       HGA2      CG321      CG321       HGA2
  163   109   110   111	 9 ;       HGA2      CG321      CG321      CG312
  163   109   110   164	 9 ;       HGA2      CG321      CG321       HGA2
  163   109   110   165	 9 ;       HGA2      CG321      CG321       HGA2
  109   110   111   112	 9 ;      CG321      CG321      CG312      CG302
  109   110   111   128	 9 ;      CG321      CG321      CG312       FGA2
  109   110   111   129	 9 ;      CG321      CG321      CG312       FGA2
  164   110   111   112	 9 ;       HGA2      CG321      CG312      CG302
  164   110   111   128	 9 ;       HGA2      CG321      CG312       FGA2
  164   110   111   129	 9 ;       HGA2      CG321      CG312       FGA2
  165   110   111   112	 9 ;       HGA2      CG321      CG312      CG302
  165   110   111   128	 9 ;       HGA2      CG321      CG312       FGA2
  165   110   111   129	 9 ;       HGA2      CG321      CG312       FGA2
  110   111   112   125	 9 ;      CG321      CG312      CG302       FGA3
  110   111   112   126	 9 ;      CG321      CG312      CG302       FGA3
  110   111   112   127	 9 ;      CG321      CG312      CG302       FGA3
  128   111   112   125	 9 ;       FGA2      CG312      CG302       FGA3
  128   111   112   126	 9 ;       FGA2      CG312      CG302       FGA3
  128   111   112   127	 9 ;       FGA2      CG312      CG302       FGA3
  129   111   112   125	 9 ;       FGA2      CG312      CG302       FGA3
  129   111   112   126	 9 ;       FGA2      CG312      CG302       FGA3
  129   111   112   127	 9 ;       FGA2      CG312      CG302       FGA3
   94   113   114    91	 9 ;      CG311      CG311     CG3RC1     CG3RC1
   94   113   114   115	 9 ;      CG311      CG311     CG3RC1     CG3C52
   94   113   114   167	 9 ;      CG311      CG311     CG3RC1       HGA1
   98   113   114    91	 9 ;      CG311      CG311     CG3RC1     CG3RC1
   98   113   114   115	 9 ;      CG311      CG311     CG3RC1     CG3C52
   98   113   114   167	 9 ;      CG311      CG311     CG3RC1       HGA1
  166   113   114    91	 9 ;       HGA1      CG311     CG3RC1     CG3RC1
  166   113   114   115	 9 ;       HGA1      CG311     CG3RC1     CG3C52
  166   113   114   167	 9 ;       HGA1      CG311     CG3RC1       HGA1
   91   114   115   116	 9 ;     CG3RC1     CG3RC1     CG3C52     CG3C52
   91   114   115   168	 9 ;     CG3RC1     CG3RC1     CG3C52       HGA2
   91   114   115   169	 9 ;     CG3RC1     CG3RC1     CG3C52       HGA2
  113   114   115   116	 9 ;      CG311     CG3RC1     CG3C52     CG3C52
  113   114   115   168	 9 ;      CG311     CG3RC1     CG3C52       HGA2
  113   114   115   169	 9 ;      CG311     CG3RC1     CG3C52       HGA2
  167   114   115   116	 9 ;       HGA1     CG3RC1     CG3C52     CG3C52
  167   114   115   168	 9 ;       HGA1     CG3RC1     CG3C52       HGA2
  167   114   115   169	 9 ;       HGA1     CG3RC1     CG3C52       HGA2
  114   115   116   117	 9 ;     CG3RC1     CG3C52     CG3C52     CG3C51
  114   115   116   170	 9 ;     CG3RC1     CG3C52     CG3C52       HGA2
  114   115   116   171	 9 ;     CG3RC1     CG3C52     CG3C52       HGA2
  168   115   116   117	 9 ;       HGA2     CG3C52     CG3C52     CG3C51
  168   115   116   170	 9 ;       HGA2     CG3C52     CG3C52       HGA2
  168   115   116   171	 9 ;       HGA2     CG3C52     CG3C52       HGA2
  169   115   116   117	 9 ;       HGA2     CG3C52     CG3C52     CG3C51
  169   115   116   170	 9 ;       HGA2     CG3C52     CG3C52       HGA2
  169   115   116   171	 9 ;       HGA2     CG3C52     CG3C52       HGA2
  115   116   117    91	 9 ;     CG3C52     CG3C52     CG3C51     CG3RC1
  115   116   117   123	 9 ;     CG3C52     CG3C52     CG3C51      OG302
  115   116   117   172	 9 ;     CG3C52     CG3C52     CG3C51       HGA1
  170   116   117    91	 9 ;       HGA2     CG3C52     CG3C51     CG3RC1
  170   116   117   123	 9 ;       HGA2     CG3C52     CG3C51      OG302
  170   116   117   172	 9 ;       HGA2     CG3C52     CG3C51       HGA1
  171   116   117    91	 9 ;       HGA2     CG3C52     CG3C51     CG3RC1
  171   116   117   123	 9 ;       HGA2     CG3C52     CG3C51      OG302
  171   116   117   172	 9 ;       HGA2     CG3C52     CG3C51       HGA1
   91   117   123     1	 9 ;     CG3RC1     CG3C51      OG302      CG2O6
  116   117   123     1	 9 ;     CG3C52     CG3C51      OG302      CG2O6
  172   117   123     1	 9 ;       HGA1     CG3C51      OG302      CG2O6
   96   118   119   120	 9 ;     CG2R61     CG2R61     CG2R61     CG2R61
   96   118   119   124	 9 ;     CG2R61     CG2R61     CG2R61      OG311
  173   118   119   120	 9 ;      HGR61     CG2R61     CG2R61     CG2R61
  173   118   119   124	 9 ;      HGR61     CG2R61     CG2R61      OG311
  118   119   120   121	 9 ;     CG2R61     CG2R61     CG2R61     CG2R61
  118   119   120   175	 9 ;     CG2R61     CG2R61     CG2R61      HGR61
  124   119   120   121	 9 ;      OG311     CG2R61     CG2R61     CG2R61
  124   119   120   175	 9 ;      OG311     CG2R61     CG2R61      HGR61
  118   119   124   174	 9 ;     CG2R61     CG2R61      OG311       HGP1
  120   119   124   174	 9 ;     CG2R61     CG2R61      OG311       HGP1
  119   120   121    95	 9 ;     CG2R61     CG2R61     CG2R61     CG2R61
  119   120   121   176	 9 ;     CG2R61     CG2R61     CG2R61      HGR61
  175   120   121    95	 9 ;      HGR61     CG2R61     CG2R61     CG2R61
  175   120   121   176	 9 ;      HGR61     CG2R61     CG2R61      HGR61

[ dihedrals ]
;	ai	  aj	ak	  al funct			  c0			c1			  c2			c3
    1   123    33    32	 2

