; Created by cgenff_charmm2gmx.py

[ moleculetype ]
; Name			   nrexcl
PTX				 3

[ atoms ]
;	 nr		  type	resnr residue  atom   cgnr	   charge		mass  typeB    chargeB		massB
; residue	 1 PTX rtp PTX q	qsum
     1      CG331      1    PTL     C1      1     -0.091     12.011   ;
     2      CG301      1    PTL     C2      2      0.263     12.011   ;
     3      CG331      1    PTL     C3      3     -0.269     12.011   ;
     4     CG2R61      1    PTL     C4      4      0.085     12.011   ;
     5     CG2R61      1    PTL     C5      5     -0.110     12.011   ;
     6     CG2R61      1    PTL     C6      6     -0.115     12.011   ;
     7     CG2R61      1    PTL     C7      7     -0.115     12.011   ;
     8     CG2R61      1    PTL     C8      8     -0.115     12.011   ;
     9     CG2R61      1    PTL     C9      9     -0.110     12.011   ;
    10      OG301      1    PTL     O1     10     -0.356     15.999   ;
    11       HGA3      1    PTL     H1     11      0.090      1.008   ;
    12       HGA3      1    PTL     H2     12      0.090      1.008   ;
    13       HGA3      1    PTL     H3     13      0.090      1.008   ;
    14       HGA3      1    PTL     H4     14      0.090      1.008   ;
    15       HGA3      1    PTL     H5     15      0.090      1.008   ;
    16       HGA3      1    PTL     H6     16      0.090      1.008   ;
    17      HGR61      1    PTL     H7     17      0.115      1.008   ;
    18      HGR61      1    PTL     H8     18      0.115      1.008   ;
    19      HGR61      1    PTL     H9     19      0.115      1.008   ;
    20      HGR61      1    PTL    H10     20      0.115      1.008   ;
    21      HGR61      1    PTL    H11     21      0.115      1.008   ;
    22      NG2S1      1    PTX      N     22     -0.404     14.007   ;
    23      CG311      1    PTX    C10     23      0.182     12.011   ;
    24      CG2O2      1    PTX    C11     24      0.850     12.011   ;
    25      CG311      1    PTX    C12     25      0.272     12.011   ;
    26      CG321      1    PTX    C13     26     -0.212     12.011   ;
    27      CG301      1    PTX    C14     27      0.186     12.011   ;
    28      CG311      1    PTX    C15     28      0.133     12.011   ;
    29      CG2O2      1    PTX    C16     29      0.459     12.011   ;
    30     CG2R61      1    PTX    C17     30      0.086     12.011   ;
    31     CG2R61      1    PTX    C18     31     -0.110     12.011   ;
    32     CG2R61      1    PTX    C19     32     -0.114     12.011   ;
    33     CG2R61      1    PTX    C20     33     -0.115     12.011   ;
    34     CG2R61      1    PTX    C21     34     -0.114     12.011   ;
    35     CG2R61      1    PTX    C22     35     -0.110     12.011   ;
    36      CG311      1    PTX    C23     36     -0.074     12.011   ;
    37      CG301      1    PTX    C24     37      0.081     12.011   ;
    38      CG331      1    PTX    C25     38     -0.263     12.011   ;
    39      CG2O5      1    PTX    C26     39      0.297     12.011   ;
    40      CG311      1    PTX    C27     40      0.432     12.011   ;
    41      CG2O2      1    PTX    C28     41      0.834     12.011   ;
    42      CG331      1    PTX    C29     42     -0.311     12.011   ;
    43      CG2D1      1    PTX    C30     43     -0.113     12.011   ;
    44      CG2D1      1    PTX    C31     44     -0.153     12.011   ;
    45      CG331      1    PTX    C32     45     -0.265     12.011   ;
    46      CG301      1    PTX    C33     46      0.016     12.011   ;
    47      CG331      1    PTX    C34     47     -0.269     12.011   ;
    48      CG331      1    PTX    C35     48     -0.269     12.011   ;
    49      CG311      1    PTX    C36     49      0.166     12.011   ;
    50      CG321      1    PTX    C37     50     -0.201     12.011   ;
    51     CG3RC1      1    PTX    C38     51      0.015     12.011   ;
    52     CG3C41      1    PTX    C39     52     -0.106     12.011   ;
    53     CG3RC1      1    PTX    C40     53      0.366     12.011   ;
    54      CG2O2      1    PTX    C41     54      0.885     12.011   ;
    55      CG331      1    PTX    C42     55     -0.313     12.011   ;
    56      CG311      1    PTX    C43     56      0.127     12.011   ;
    57      CG2O1      1    PTX    C44     57      0.341     12.011   ;
    58     CG2R61      1    PTX    C45     58     -0.137     12.011   ;
    59     CG2R61      1    PTX    C46     59     -0.024     12.011   ;
    60     CG2R61      1    PTX    C47     60     -0.109     12.011   ;
    61     CG2R61      1    PTX    C48     61     -0.115     12.011   ;
    62     CG2R61      1    PTX    C49     62     -0.109     12.011   ;
    63     CG2R61      1    PTX    C50     63     -0.024     12.011   ;
    64     CG2R61      1    PTX    C51     64     -0.040     12.011   ;
    65     CG2R61      1    PTX    C52     65     -0.106     12.011   ;
    66     CG2R61      1    PTX    C53     66     -0.115     12.011   ;
    67     CG2R61      1    PTX    C54     67     -0.115     12.011   ;
    68     CG2R61      1    PTX    C55     68     -0.115     12.011   ;
    69     CG2R61      1    PTX    C56     69     -0.106     12.011   ;
    70      OG301      1    PTX     O2     70     -0.480     15.999   ;
    71      OG2D1      1    PTX     O3     71     -0.623     15.999   ;
    72      OG302      1    PTX     O4     72     -0.432     15.999   ;
    73      OG311      1    PTX     O5     73     -0.460     15.999   ;
    74      OG302      1    PTX     O6     74     -0.310     15.999   ;
    75      OG2D1      1    PTX     O7     75     -0.496     15.999   ;
    76      OG2D3      1    PTX     O8     76     -0.515     15.999   ;
    77      OG302      1    PTX     O9     77     -0.427     15.999   ;
    78      OG2D1      1    PTX    O10     78     -0.625     15.999   ;
    79      OG311      1    PTX    O11     79     -0.642     15.999   ;
    80     OG3C51      1    PTX    O12     80     -0.343     15.999   ;
    81      OG302      1    PTX    O13     81     -0.422     15.999   ;
    82      OG2D1      1    PTX    O14     82     -0.617     15.999   ;
    83      OG2D1      1    PTX    O15     83     -0.458     15.999   ;
    84       HGA1      1    PTX    H12     84      0.090      1.008   ;
    85       HGA1      1    PTX    H13     85      0.090      1.008   ;
    86       HGA2      1    PTX    H14     86      0.090      1.008   ;
    87       HGA2      1    PTX    H15     87      0.090      1.008   ;
    88       HGP1      1    PTX    H16     88      0.292      1.008   ;
    89       HGA1      1    PTX    H17     89      0.090      1.008   ;
    90      HGR61      1    PTX    H18     90      0.115      1.008   ;
    91      HGR61      1    PTX    H19     91      0.115      1.008   ;
    92      HGR61      1    PTX    H20     92      0.115      1.008   ;
    93      HGR61      1    PTX    H21     93      0.115      1.008   ;
    94      HGR61      1    PTX    H22     94      0.115      1.008   ;
    95       HGA1      1    PTX    H23     95      0.090      1.008   ;
    96       HGA3      1    PTX    H24     96      0.090      1.008   ;
    97       HGA3      1    PTX    H25     97      0.090      1.008   ;
    98       HGA3      1    PTX    H26     98      0.090      1.008   ;
    99       HGA1      1    PTX    H27     99      0.090      1.008   ;
   100       HGA3      1    PTX    H28    100      0.090      1.008   ;
   101       HGA3      1    PTX    H29    101      0.090      1.008   ;
   102       HGA3      1    PTX    H30    102      0.090      1.008   ;
   103       HGA3      1    PTX    H31    103      0.090      1.008   ;
   104       HGA3      1    PTX    H32    104      0.090      1.008   ;
   105       HGA3      1    PTX    H33    105      0.090      1.008   ;
   106       HGA3      1    PTX    H34    106      0.090      1.008   ;
   107       HGA3      1    PTX    H35    107      0.090      1.008   ;
   108       HGA3      1    PTX    H36    108      0.090      1.008   ;
   109       HGA3      1    PTX    H37    109      0.090      1.008   ;
   110       HGA3      1    PTX    H38    110      0.090      1.008   ;
   111       HGA3      1    PTX    H39    111      0.090      1.008   ;
   112       HGA1      1    PTX    H40    112      0.090      1.008   ;
   113       HGP1      1    PTX    H41    113      0.400      1.008   ;
   114       HGA2      1    PTX    H42    114      0.090      1.008   ;
   115       HGA2      1    PTX    H43    115      0.090      1.008   ;
   116       HGA1      1    PTX    H44    116      0.090      1.008   ;
   117       HGA2      1    PTX    H45    117      0.090      1.008   ;
   118       HGA2      1    PTX    H46    118      0.090      1.008   ;
   119       HGA3      1    PTX    H47    119      0.090      1.008   ;
   120       HGA3      1    PTX    H48    120      0.090      1.008   ;
   121       HGA3      1    PTX    H49    121      0.090      1.008   ;
   122       HGA1      1    PTX    H50    122      0.090      1.008   ;
   123       HGP1      1    PTX    H51    123      0.274      1.008   ;
   124      HGR61      1    PTX    H52    124      0.115      1.008   ;
   125      HGR61      1    PTX    H53    125      0.115      1.008   ;
   126      HGR61      1    PTX    H54    126      0.115      1.008   ;
   127      HGR61      1    PTX    H55    127      0.115      1.008   ;
   128      HGR61      1    PTX    H56    128      0.115      1.008   ;
   129      HGR61      1    PTX    H57    129      0.115      1.008   ;
   130      HGR61      1    PTX    H58    130      0.115      1.008   ;
   131      HGR61      1    PTX    H59    131      0.115      1.008   ;
   132      HGR61      1    PTX    H60    132      0.115      1.008   ;
   133      HGR61      1    PTX    H61    133      0.115      1.008   ;

[ bonds ]
;	ai	  aj funct			  c0			c1			  c2			c3
    1    10	 1 ;       CG331      OG301
    1    11	 1 ;       CG331       HGA3
    1    12	 1 ;       CG331       HGA3
    1    13	 1 ;       CG331       HGA3
    2     3	 1 ;       CG301      CG331
    2     4	 1 ;       CG301     CG2R61
    2    70	 1 ;       CG301      OG301
    2    10	 1 ;       CG301      OG301
    3    14	 1 ;       CG331       HGA3
    3    15	 1 ;       CG331       HGA3
    3    16	 1 ;       CG331       HGA3
    4     5	 1 ;      CG2R61     CG2R61
    4     9	 1 ;      CG2R61     CG2R61
    5     6	 1 ;      CG2R61     CG2R61
    5    17	 1 ;      CG2R61      HGR61
    6     7	 1 ;      CG2R61     CG2R61
    6    18	 1 ;      CG2R61      HGR61
    7     8	 1 ;      CG2R61     CG2R61
    7    19	 1 ;      CG2R61      HGR61
    8     9	 1 ;      CG2R61     CG2R61
    8    20	 1 ;      CG2R61      HGR61
    9    21	 1 ;      CG2R61      HGR61
   22    57	 1 ;       NG2S1      CG2O1
   22   123	 1 ;       NG2S1       HGP1
   22    56	 1 ;       NG2S1      CG311
   23    24	 1 ;       CG311      CG2O2
   23    56	 1 ;       CG311      CG311
   23    84	 1 ;       CG311       HGA1
   23    70	 1 ;       CG311      OG301
   24    71	 1 ;       CG2O2      OG2D1
   24    72	 1 ;       CG2O2      OG302
   25    26	 1 ;       CG311      CG321
   25    44	 1 ;       CG311      CG2D1
   25    85	 1 ;       CG311       HGA1
   25    72	 1 ;       CG311      OG302
   26    27	 1 ;       CG321      CG301
   26    86	 1 ;       CG321       HGA2
   26    87	 1 ;       CG321       HGA2
   27    28	 1 ;       CG301      CG311
   27    46	 1 ;       CG301      CG301
   27    73	 1 ;       CG301      OG311
   28    36	 1 ;       CG311      CG311
   28    74	 1 ;       CG311      OG302
   28    89	 1 ;       CG311       HGA1
   29    30	 1 ;       CG2O2     CG2R61
   29    75	 1 ;       CG2O2      OG2D1
   29    74	 1 ;       CG2O2      OG302
   30    31	 1 ;      CG2R61     CG2R61
   30    35	 1 ;      CG2R61     CG2R61
   31    32	 1 ;      CG2R61     CG2R61
   31    90	 1 ;      CG2R61      HGR61
   32    33	 1 ;      CG2R61     CG2R61
   32    91	 1 ;      CG2R61      HGR61
   33    34	 1 ;      CG2R61     CG2R61
   33    92	 1 ;      CG2R61      HGR61
   34    35	 1 ;      CG2R61     CG2R61
   34    93	 1 ;      CG2R61      HGR61
   35    94	 1 ;      CG2R61      HGR61
   36    37	 1 ;       CG311      CG301
   36    53	 1 ;       CG311     CG3RC1
   36    95	 1 ;       CG311       HGA1
   37    38	 1 ;       CG301      CG331
   37    39	 1 ;       CG301      CG2O5
   37    49	 1 ;       CG301      CG311
   38    96	 1 ;       CG331       HGA3
   38    97	 1 ;       CG331       HGA3
   38    98	 1 ;       CG331       HGA3
   39    40	 1 ;       CG2O5      CG311
   39    76	 1 ;       CG2O5      OG2D3
   40    43	 1 ;       CG311      CG2D1
   40    77	 1 ;       CG311      OG302
   40    99	 1 ;       CG311       HGA1
   41    42	 1 ;       CG2O2      CG331
   41    78	 1 ;       CG2O2      OG2D1
   41    77	 1 ;       CG2O2      OG302
   42   100	 1 ;       CG331       HGA3
   42   101	 1 ;       CG331       HGA3
   42   102	 1 ;       CG331       HGA3
   43    44	 1 ;       CG2D1      CG2D1
   43    46	 1 ;       CG2D1      CG301
   44    45	 1 ;       CG2D1      CG331
   45   103	 1 ;       CG331       HGA3
   45   104	 1 ;       CG331       HGA3
   45   105	 1 ;       CG331       HGA3
   46    47	 1 ;       CG301      CG331
   46    48	 1 ;       CG301      CG331
   47   106	 1 ;       CG331       HGA3
   47   107	 1 ;       CG331       HGA3
   47   108	 1 ;       CG331       HGA3
   48   109	 1 ;       CG331       HGA3
   48   110	 1 ;       CG331       HGA3
   48   111	 1 ;       CG331       HGA3
   49    50	 1 ;       CG311      CG321
   49    79	 1 ;       CG311      OG311
   49   112	 1 ;       CG311       HGA1
   50    51	 1 ;       CG321     CG3RC1
   50   114	 1 ;       CG321       HGA2
   50   115	 1 ;       CG321       HGA2
   51    53	 1 ;      CG3RC1     CG3RC1
   51    80	 1 ;      CG3RC1     OG3C51
   51   116	 1 ;      CG3RC1       HGA1
   52    53	 1 ;      CG3C41     CG3RC1
   52   117	 1 ;      CG3C41       HGA2
   52   118	 1 ;      CG3C41       HGA2
   52    80	 1 ;      CG3C41     OG3C51
   53    81	 1 ;      CG3RC1      OG302
   54    55	 1 ;       CG2O2      CG331
   54    82	 1 ;       CG2O2      OG2D1
   54    81	 1 ;       CG2O2      OG302
   55   119	 1 ;       CG331       HGA3
   55   120	 1 ;       CG331       HGA3
   55   121	 1 ;       CG331       HGA3
   56    64	 1 ;       CG311     CG2R61
   56   122	 1 ;       CG311       HGA1
   57    58	 1 ;       CG2O1     CG2R61
   57    83	 1 ;       CG2O1      OG2D1
   58    59	 1 ;      CG2R61     CG2R61
   58    63	 1 ;      CG2R61     CG2R61
   59    60	 1 ;      CG2R61     CG2R61
   59   124	 1 ;      CG2R61      HGR61
   60    61	 1 ;      CG2R61     CG2R61
   60   125	 1 ;      CG2R61      HGR61
   61    62	 1 ;      CG2R61     CG2R61
   61   126	 1 ;      CG2R61      HGR61
   62    63	 1 ;      CG2R61     CG2R61
   62   127	 1 ;      CG2R61      HGR61
   63   128	 1 ;      CG2R61      HGR61
   64    65	 1 ;      CG2R61     CG2R61
   64    69	 1 ;      CG2R61     CG2R61
   65    66	 1 ;      CG2R61     CG2R61
   65   129	 1 ;      CG2R61      HGR61
   66    67	 1 ;      CG2R61     CG2R61
   66   130	 1 ;      CG2R61      HGR61
   67    68	 1 ;      CG2R61     CG2R61
   67   131	 1 ;      CG2R61      HGR61
   68    69	 1 ;      CG2R61     CG2R61
   68   132	 1 ;      CG2R61      HGR61
   69   133	 1 ;      CG2R61      HGR61
   73    88	 1 ;       OG311       HGP1
   79   113	 1 ;       OG311       HGP1

[ pairs ]
;	ai	  aj funct			  c0			c1			  c2			c3
    1     3	 1
    1     4	 1
    1    70	 1
    2    11	 1
    2    12	 1
    2    13	 1
    2     6	 1
    2    17	 1
    2     8	 1
    2    21	 1
    2    24	 1
    2    56	 1
    2    84	 1
    3     5	 1
    3     9	 1
    3    23	 1
    4    14	 1
    4    15	 1
    4    16	 1
    4    23	 1
    4     7	 1
    4    18	 1
    4    20	 1
    5    70	 1
    5    10	 1
    5     8	 1
    5    21	 1
    5    19	 1
    6     9	 1
    6    20	 1
    7    17	 1
    7    21	 1
    8    18	 1
    9    70	 1
    9    10	 1
    9    17	 1
    9    19	 1
   10    14	 1
   10    15	 1
   10    16	 1
   10    23	 1
   14    70	 1
   15    70	 1
   16    70	 1
   17    18	 1
   18    19	 1
   19    20	 1
   20    21	 1
   22    24	 1
   22    84	 1
   22    70	 1
   22    65	 1
   22    69	 1
   22    59	 1
   22    63	 1
   23    57	 1
   23   123	 1
   23    25	 1
   23    65	 1
   23    69	 1
   24    64	 1
   24   122	 1
   24    26	 1
   24    44	 1
   24    85	 1
   25    71	 1
   25    28	 1
   25    46	 1
   25    73	 1
   25    40	 1
   25   103	 1
   25   104	 1
   25   105	 1
   26    43	 1
   26    45	 1
   26    36	 1
   26    74	 1
   26    89	 1
   26    47	 1
   26    48	 1
   26    88	 1
   27    44	 1
   27    85	 1
   27    72	 1
   27    37	 1
   27    53	 1
   27    95	 1
   27    29	 1
   27    40	 1
   27   106	 1
   27   107	 1
   27   108	 1
   27   109	 1
   27   110	 1
   27   111	 1
   28    86	 1
   28    87	 1
   28    43	 1
   28    47	 1
   28    48	 1
   28    88	 1
   28    30	 1
   28    75	 1
   28    38	 1
   28    39	 1
   28    49	 1
   28    51	 1
   28    52	 1
   28    81	 1
   29    36	 1
   29    89	 1
   29    32	 1
   29    90	 1
   29    34	 1
   29    94	 1
   30    33	 1
   30    91	 1
   30    93	 1
   31    75	 1
   31    74	 1
   31    34	 1
   31    94	 1
   31    92	 1
   32    35	 1
   32    93	 1
   33    90	 1
   33    94	 1
   34    91	 1
   35    75	 1
   35    74	 1
   35    90	 1
   35    92	 1
   36    46	 1
   36    73	 1
   36    96	 1
   36    97	 1
   36    98	 1
   36    40	 1
   36    76	 1
   36    50	 1
   36    79	 1
   36   112	 1
   36    80	 1
   36   116	 1
   36   117	 1
   36   118	 1
   36    54	 1
   37    74	 1
   37    89	 1
   37    51	 1
   37    52	 1
   37    81	 1
   37    43	 1
   37    77	 1
   37    99	 1
   37   114	 1
   37   115	 1
   37   113	 1
   38    53	 1
   38    95	 1
   38    40	 1
   38    76	 1
   38    50	 1
   38    79	 1
   38   112	 1
   39    53	 1
   39    95	 1
   39    96	 1
   39    97	 1
   39    98	 1
   39    50	 1
   39    79	 1
   39   112	 1
   39    44	 1
   39    46	 1
   39    41	 1
   40    49	 1
   40    42	 1
   40    78	 1
   40    45	 1
   40    47	 1
   40    48	 1
   41    43	 1
   41    99	 1
   43    85	 1
   43    72	 1
   43    73	 1
   43    76	 1
   43   103	 1
   43   104	 1
   43   105	 1
   43   106	 1
   43   107	 1
   43   108	 1
   43   109	 1
   43   110	 1
   43   111	 1
   44    86	 1
   44    87	 1
   44    77	 1
   44    99	 1
   44    47	 1
   44    48	 1
   45    85	 1
   45    72	 1
   45    46	 1
   46    86	 1
   46    87	 1
   46    74	 1
   46    89	 1
   46    88	 1
   46    77	 1
   46    99	 1
   47    73	 1
   47   109	 1
   47   110	 1
   47   111	 1
   48    73	 1
   48   106	 1
   48   107	 1
   48   108	 1
   49    53	 1
   49    95	 1
   49    96	 1
   49    97	 1
   49    98	 1
   49    76	 1
   49    80	 1
   49   116	 1
   50   113	 1
   50    52	 1
   50    81	 1
   51    95	 1
   51    79	 1
   51   112	 1
   51   117	 1
   51   118	 1
   51    54	 1
   52    95	 1
   52   116	 1
   52    54	 1
   53    74	 1
   53    89	 1
   53   114	 1
   53   115	 1
   53    55	 1
   53    82	 1
   56    58	 1
   56    83	 1
   56    71	 1
   56    72	 1
   56    66	 1
   56   129	 1
   56    68	 1
   56   133	 1
   57    64	 1
   57   122	 1
   57    60	 1
   57   124	 1
   57    62	 1
   57   128	 1
   58   123	 1
   58    61	 1
   58   125	 1
   58   127	 1
   59    83	 1
   59    62	 1
   59   128	 1
   59   126	 1
   60    63	 1
   60   127	 1
   61   124	 1
   61   128	 1
   62   125	 1
   63    83	 1
   63   124	 1
   63   126	 1
   64   123	 1
   64    84	 1
   64    70	 1
   64    67	 1
   64   130	 1
   64   132	 1
   65   122	 1
   65    68	 1
   65   133	 1
   65   131	 1
   66    69	 1
   66   132	 1
   67   129	 1
   67   133	 1
   68   130	 1
   69   122	 1
   69   129	 1
   69   131	 1
   70    71	 1
   70    72	 1
   70   122	 1
   71    84	 1
   72    84	 1
   72    86	 1
   72    87	 1
   73    86	 1
   73    87	 1
   73    74	 1
   73    89	 1
   74    95	 1
   76    77	 1
   76    99	 1
   77   100	 1
   77   101	 1
   77   102	 1
   78   100	 1
   78   101	 1
   78   102	 1
   79   114	 1
   79   115	 1
   80   114	 1
   80   115	 1
   80    81	 1
   81    95	 1
   81   116	 1
   81   117	 1
   81   118	 1
   81   119	 1
   81   120	 1
   81   121	 1
   82   119	 1
   82   120	 1
   82   121	 1
   83   123	 1
   84   122	 1
   85    86	 1
   85    87	 1
   89    95	 1
   90    91	 1
   91    92	 1
   92    93	 1
   93    94	 1
  112   114	 1
  112   115	 1
  112   113	 1
  114   116	 1
  115   116	 1
  122   123	 1
  124   125	 1
  125   126	 1
  126   127	 1
  127   128	 1
  129   130	 1
  130   131	 1
  131   132	 1
  132   133	 1

[ angles ]
;	ai	  aj	ak funct			c0			  c1			c2			  c3
   10     1    11	5 ;      OG301      CG331       HGA3
   10     1    12	5 ;      OG301      CG331       HGA3
   10     1    13	5 ;      OG301      CG331       HGA3
   11     1    12	5 ;       HGA3      CG331       HGA3
   11     1    13	5 ;       HGA3      CG331       HGA3
   12     1    13	5 ;       HGA3      CG331       HGA3
    3     2     4	5 ;      CG331      CG301     CG2R61
    3     2    70	5 ;      CG331      CG301      OG301
    3     2    10	5 ;      CG331      CG301      OG301
    4     2    70	5 ;     CG2R61      CG301      OG301
    4     2    10	5 ;     CG2R61      CG301      OG301
   70     2    10	5 ;      OG301      CG301      OG301
    2     3    14	5 ;      CG301      CG331       HGA3
    2     3    15	5 ;      CG301      CG331       HGA3
    2     3    16	5 ;      CG301      CG331       HGA3
   14     3    15	5 ;       HGA3      CG331       HGA3
   14     3    16	5 ;       HGA3      CG331       HGA3
   15     3    16	5 ;       HGA3      CG331       HGA3
    2     4     5	5 ;      CG301     CG2R61     CG2R61
    2     4     9	5 ;      CG301     CG2R61     CG2R61
    5     4     9	5 ;     CG2R61     CG2R61     CG2R61
    4     5     6	5 ;     CG2R61     CG2R61     CG2R61
    4     5    17	5 ;     CG2R61     CG2R61      HGR61
    6     5    17	5 ;     CG2R61     CG2R61      HGR61
    5     6     7	5 ;     CG2R61     CG2R61     CG2R61
    5     6    18	5 ;     CG2R61     CG2R61      HGR61
    7     6    18	5 ;     CG2R61     CG2R61      HGR61
    6     7     8	5 ;     CG2R61     CG2R61     CG2R61
    6     7    19	5 ;     CG2R61     CG2R61      HGR61
    8     7    19	5 ;     CG2R61     CG2R61      HGR61
    7     8     9	5 ;     CG2R61     CG2R61     CG2R61
    7     8    20	5 ;     CG2R61     CG2R61      HGR61
    9     8    20	5 ;     CG2R61     CG2R61      HGR61
    4     9     8	5 ;     CG2R61     CG2R61     CG2R61
    4     9    21	5 ;     CG2R61     CG2R61      HGR61
    8     9    21	5 ;     CG2R61     CG2R61      HGR61
    1    10     2	5 ;      CG331      OG301      CG301
   57    22   123	5 ;      CG2O1      NG2S1       HGP1
   57    22    56	5 ;      CG2O1      NG2S1      CG311
  123    22    56	5 ;       HGP1      NG2S1      CG311
   24    23    56	5 ;      CG2O2      CG311      CG311
   24    23    84	5 ;      CG2O2      CG311       HGA1
   24    23    70	5 ;      CG2O2      CG311      OG301
   56    23    84	5 ;      CG311      CG311       HGA1
   56    23    70	5 ;      CG311      CG311      OG301
   84    23    70	5 ;       HGA1      CG311      OG301
   23    24    71	5 ;      CG311      CG2O2      OG2D1
   23    24    72	5 ;      CG311      CG2O2      OG302
   71    24    72	5 ;      OG2D1      CG2O2      OG302
   26    25    44	5 ;      CG321      CG311      CG2D1
   26    25    85	5 ;      CG321      CG311       HGA1
   26    25    72	5 ;      CG321      CG311      OG302
   44    25    85	5 ;      CG2D1      CG311       HGA1
   44    25    72	5 ;      CG2D1      CG311      OG302
   85    25    72	5 ;       HGA1      CG311      OG302
   25    26    27	5 ;      CG311      CG321      CG301
   25    26    86	5 ;      CG311      CG321       HGA2
   25    26    87	5 ;      CG311      CG321       HGA2
   27    26    86	5 ;      CG301      CG321       HGA2
   27    26    87	5 ;      CG301      CG321       HGA2
   86    26    87	5 ;       HGA2      CG321       HGA2
   26    27    28	5 ;      CG321      CG301      CG311
   26    27    46	5 ;      CG321      CG301      CG301
   26    27    73	5 ;      CG321      CG301      OG311
   28    27    46	5 ;      CG311      CG301      CG301
   28    27    73	5 ;      CG311      CG301      OG311
   46    27    73	5 ;      CG301      CG301      OG311
   27    28    36	5 ;      CG301      CG311      CG311
   27    28    74	5 ;      CG301      CG311      OG302
   27    28    89	5 ;      CG301      CG311       HGA1
   36    28    74	5 ;      CG311      CG311      OG302
   36    28    89	5 ;      CG311      CG311       HGA1
   74    28    89	5 ;      OG302      CG311       HGA1
   30    29    75	5 ;     CG2R61      CG2O2      OG2D1
   30    29    74	5 ;     CG2R61      CG2O2      OG302
   75    29    74	5 ;      OG2D1      CG2O2      OG302
   29    30    31	5 ;      CG2O2     CG2R61     CG2R61
   29    30    35	5 ;      CG2O2     CG2R61     CG2R61
   31    30    35	5 ;     CG2R61     CG2R61     CG2R61
   30    31    32	5 ;     CG2R61     CG2R61     CG2R61
   30    31    90	5 ;     CG2R61     CG2R61      HGR61
   32    31    90	5 ;     CG2R61     CG2R61      HGR61
   31    32    33	5 ;     CG2R61     CG2R61     CG2R61
   31    32    91	5 ;     CG2R61     CG2R61      HGR61
   33    32    91	5 ;     CG2R61     CG2R61      HGR61
   32    33    34	5 ;     CG2R61     CG2R61     CG2R61
   32    33    92	5 ;     CG2R61     CG2R61      HGR61
   34    33    92	5 ;     CG2R61     CG2R61      HGR61
   33    34    35	5 ;     CG2R61     CG2R61     CG2R61
   33    34    93	5 ;     CG2R61     CG2R61      HGR61
   35    34    93	5 ;     CG2R61     CG2R61      HGR61
   30    35    34	5 ;     CG2R61     CG2R61     CG2R61
   30    35    94	5 ;     CG2R61     CG2R61      HGR61
   34    35    94	5 ;     CG2R61     CG2R61      HGR61
   28    36    37	5 ;      CG311      CG311      CG301
   28    36    53	5 ;      CG311      CG311     CG3RC1
   28    36    95	5 ;      CG311      CG311       HGA1
   37    36    53	5 ;      CG301      CG311     CG3RC1
   37    36    95	5 ;      CG301      CG311       HGA1
   53    36    95	5 ;     CG3RC1      CG311       HGA1
   36    37    38	5 ;      CG311      CG301      CG331
   36    37    39	5 ;      CG311      CG301      CG2O5
   36    37    49	5 ;      CG311      CG301      CG311
   38    37    39	5 ;      CG331      CG301      CG2O5
   38    37    49	5 ;      CG331      CG301      CG311
   39    37    49	5 ;      CG2O5      CG301      CG311
   37    38    96	5 ;      CG301      CG331       HGA3
   37    38    97	5 ;      CG301      CG331       HGA3
   37    38    98	5 ;      CG301      CG331       HGA3
   96    38    97	5 ;       HGA3      CG331       HGA3
   96    38    98	5 ;       HGA3      CG331       HGA3
   97    38    98	5 ;       HGA3      CG331       HGA3
   37    39    40	5 ;      CG301      CG2O5      CG311
   37    39    76	5 ;      CG301      CG2O5      OG2D3
   40    39    76	5 ;      CG311      CG2O5      OG2D3
   39    40    43	5 ;      CG2O5      CG311      CG2D1
   39    40    77	5 ;      CG2O5      CG311      OG302
   39    40    99	5 ;      CG2O5      CG311       HGA1
   43    40    77	5 ;      CG2D1      CG311      OG302
   43    40    99	5 ;      CG2D1      CG311       HGA1
   77    40    99	5 ;      OG302      CG311       HGA1
   42    41    78	5 ;      CG331      CG2O2      OG2D1
   42    41    77	5 ;      CG331      CG2O2      OG302
   78    41    77	5 ;      OG2D1      CG2O2      OG302
   41    42   100	5 ;      CG2O2      CG331       HGA3
   41    42   101	5 ;      CG2O2      CG331       HGA3
   41    42   102	5 ;      CG2O2      CG331       HGA3
  100    42   101	5 ;       HGA3      CG331       HGA3
  100    42   102	5 ;       HGA3      CG331       HGA3
  101    42   102	5 ;       HGA3      CG331       HGA3
   40    43    44	5 ;      CG311      CG2D1      CG2D1
   40    43    46	5 ;      CG311      CG2D1      CG301
   44    43    46	5 ;      CG2D1      CG2D1      CG301
   25    44    43	5 ;      CG311      CG2D1      CG2D1
   25    44    45	5 ;      CG311      CG2D1      CG331
   43    44    45	5 ;      CG2D1      CG2D1      CG331
   44    45   103	5 ;      CG2D1      CG331       HGA3
   44    45   104	5 ;      CG2D1      CG331       HGA3
   44    45   105	5 ;      CG2D1      CG331       HGA3
  103    45   104	5 ;       HGA3      CG331       HGA3
  103    45   105	5 ;       HGA3      CG331       HGA3
  104    45   105	5 ;       HGA3      CG331       HGA3
   27    46    43	5 ;      CG301      CG301      CG2D1
   27    46    47	5 ;      CG301      CG301      CG331
   27    46    48	5 ;      CG301      CG301      CG331
   43    46    47	5 ;      CG2D1      CG301      CG331
   43    46    48	5 ;      CG2D1      CG301      CG331
   47    46    48	5 ;      CG331      CG301      CG331
   46    47   106	5 ;      CG301      CG331       HGA3
   46    47   107	5 ;      CG301      CG331       HGA3
   46    47   108	5 ;      CG301      CG331       HGA3
  106    47   107	5 ;       HGA3      CG331       HGA3
  106    47   108	5 ;       HGA3      CG331       HGA3
  107    47   108	5 ;       HGA3      CG331       HGA3
   46    48   109	5 ;      CG301      CG331       HGA3
   46    48   110	5 ;      CG301      CG331       HGA3
   46    48   111	5 ;      CG301      CG331       HGA3
  109    48   110	5 ;       HGA3      CG331       HGA3
  109    48   111	5 ;       HGA3      CG331       HGA3
  110    48   111	5 ;       HGA3      CG331       HGA3
   37    49    50	5 ;      CG301      CG311      CG321
   37    49    79	5 ;      CG301      CG311      OG311
   37    49   112	5 ;      CG301      CG311       HGA1
   50    49    79	5 ;      CG321      CG311      OG311
   50    49   112	5 ;      CG321      CG311       HGA1
   79    49   112	5 ;      OG311      CG311       HGA1
   49    50    51	5 ;      CG311      CG321     CG3RC1
   49    50   114	5 ;      CG311      CG321       HGA2
   49    50   115	5 ;      CG311      CG321       HGA2
   51    50   114	5 ;     CG3RC1      CG321       HGA2
   51    50   115	5 ;     CG3RC1      CG321       HGA2
  114    50   115	5 ;       HGA2      CG321       HGA2
   50    51    53	5 ;      CG321     CG3RC1     CG3RC1
   50    51    80	5 ;      CG321     CG3RC1     OG3C51
   50    51   116	5 ;      CG321     CG3RC1       HGA1
   53    51    80	5 ;     CG3RC1     CG3RC1     OG3C51
   53    51   116	5 ;     CG3RC1     CG3RC1       HGA1
   80    51   116	5 ;     OG3C51     CG3RC1       HGA1
   53    52   117	5 ;     CG3RC1     CG3C41       HGA2
   53    52   118	5 ;     CG3RC1     CG3C41       HGA2
   53    52    80	5 ;     CG3RC1     CG3C41     OG3C51
  117    52   118	5 ;       HGA2     CG3C41       HGA2
  117    52    80	5 ;       HGA2     CG3C41     OG3C51
  118    52    80	5 ;       HGA2     CG3C41     OG3C51
   36    53    51	5 ;      CG311     CG3RC1     CG3RC1
   36    53    52	5 ;      CG311     CG3RC1     CG3C41
   36    53    81	5 ;      CG311     CG3RC1      OG302
   51    53    52	5 ;     CG3RC1     CG3RC1     CG3C41
   51    53    81	5 ;     CG3RC1     CG3RC1      OG302
   52    53    81	5 ;     CG3C41     CG3RC1      OG302
   55    54    82	5 ;      CG331      CG2O2      OG2D1
   55    54    81	5 ;      CG331      CG2O2      OG302
   82    54    81	5 ;      OG2D1      CG2O2      OG302
   54    55   119	5 ;      CG2O2      CG331       HGA3
   54    55   120	5 ;      CG2O2      CG331       HGA3
   54    55   121	5 ;      CG2O2      CG331       HGA3
  119    55   120	5 ;       HGA3      CG331       HGA3
  119    55   121	5 ;       HGA3      CG331       HGA3
  120    55   121	5 ;       HGA3      CG331       HGA3
   23    56    22	5 ;      CG311      CG311      NG2S1
   23    56    64	5 ;      CG311      CG311     CG2R61
   23    56   122	5 ;      CG311      CG311       HGA1
   22    56    64	5 ;      NG2S1      CG311     CG2R61
   22    56   122	5 ;      NG2S1      CG311       HGA1
   64    56   122	5 ;     CG2R61      CG311       HGA1
   22    57    58	5 ;      NG2S1      CG2O1     CG2R61
   22    57    83	5 ;      NG2S1      CG2O1      OG2D1
   58    57    83	5 ;     CG2R61      CG2O1      OG2D1
   57    58    59	5 ;      CG2O1     CG2R61     CG2R61
   57    58    63	5 ;      CG2O1     CG2R61     CG2R61
   59    58    63	5 ;     CG2R61     CG2R61     CG2R61
   58    59    60	5 ;     CG2R61     CG2R61     CG2R61
   58    59   124	5 ;     CG2R61     CG2R61      HGR61
   60    59   124	5 ;     CG2R61     CG2R61      HGR61
   59    60    61	5 ;     CG2R61     CG2R61     CG2R61
   59    60   125	5 ;     CG2R61     CG2R61      HGR61
   61    60   125	5 ;     CG2R61     CG2R61      HGR61
   60    61    62	5 ;     CG2R61     CG2R61     CG2R61
   60    61   126	5 ;     CG2R61     CG2R61      HGR61
   62    61   126	5 ;     CG2R61     CG2R61      HGR61
   61    62    63	5 ;     CG2R61     CG2R61     CG2R61
   61    62   127	5 ;     CG2R61     CG2R61      HGR61
   63    62   127	5 ;     CG2R61     CG2R61      HGR61
   58    63    62	5 ;     CG2R61     CG2R61     CG2R61
   58    63   128	5 ;     CG2R61     CG2R61      HGR61
   62    63   128	5 ;     CG2R61     CG2R61      HGR61
   56    64    65	5 ;      CG311     CG2R61     CG2R61
   56    64    69	5 ;      CG311     CG2R61     CG2R61
   65    64    69	5 ;     CG2R61     CG2R61     CG2R61
   64    65    66	5 ;     CG2R61     CG2R61     CG2R61
   64    65   129	5 ;     CG2R61     CG2R61      HGR61
   66    65   129	5 ;     CG2R61     CG2R61      HGR61
   65    66    67	5 ;     CG2R61     CG2R61     CG2R61
   65    66   130	5 ;     CG2R61     CG2R61      HGR61
   67    66   130	5 ;     CG2R61     CG2R61      HGR61
   66    67    68	5 ;     CG2R61     CG2R61     CG2R61
   66    67   131	5 ;     CG2R61     CG2R61      HGR61
   68    67   131	5 ;     CG2R61     CG2R61      HGR61
   67    68    69	5 ;     CG2R61     CG2R61     CG2R61
   67    68   132	5 ;     CG2R61     CG2R61      HGR61
   69    68   132	5 ;     CG2R61     CG2R61      HGR61
   64    69    68	5 ;     CG2R61     CG2R61     CG2R61
   64    69   133	5 ;     CG2R61     CG2R61      HGR61
   68    69   133	5 ;     CG2R61     CG2R61      HGR61
    2    70    23	5 ;      CG301      OG301      CG311
   24    72    25	5 ;      CG2O2      OG302      CG311
   27    73    88	5 ;      CG301      OG311       HGP1
   28    74    29	5 ;      CG311      OG302      CG2O2
   40    77    41	5 ;      CG311      OG302      CG2O2
   49    79   113	5 ;      CG311      OG311       HGP1
   51    80    52	5 ;     CG3RC1     OG3C51     CG3C41
   53    81    54	5 ;     CG3RC1      OG302      CG2O2

[ dihedrals ]
;	ai	  aj	ak	  al funct			  c0			c1			  c2			c3			  c4			c5
   11     1    10     2	 9 ;       HGA3      CG331      OG301      CG301
   12     1    10     2	 9 ;       HGA3      CG331      OG301      CG301
   13     1    10     2	 9 ;       HGA3      CG331      OG301      CG301
    4     2     3    14	 9 ;     CG2R61      CG301      CG331       HGA3
    4     2     3    15	 9 ;     CG2R61      CG301      CG331       HGA3
    4     2     3    16	 9 ;     CG2R61      CG301      CG331       HGA3
   70     2     3    14	 9 ;      OG301      CG301      CG331       HGA3
   70     2     3    15	 9 ;      OG301      CG301      CG331       HGA3
   70     2     3    16	 9 ;      OG301      CG301      CG331       HGA3
   10     2     3    14	 9 ;      OG301      CG301      CG331       HGA3
   10     2     3    15	 9 ;      OG301      CG301      CG331       HGA3
   10     2     3    16	 9 ;      OG301      CG301      CG331       HGA3
    3     2     4     5	 9 ;      CG331      CG301     CG2R61     CG2R61
    3     2     4     9	 9 ;      CG331      CG301     CG2R61     CG2R61
   70     2     4     5	 9 ;      OG301      CG301     CG2R61     CG2R61
   70     2     4     9	 9 ;      OG301      CG301     CG2R61     CG2R61
   10     2     4     5	 9 ;      OG301      CG301     CG2R61     CG2R61
   10     2     4     9	 9 ;      OG301      CG301     CG2R61     CG2R61
    3     2    70    23	 9 ;      CG331      CG301      OG301      CG311
    4     2    70    23	 9 ;     CG2R61      CG301      OG301      CG311
   10     2    70    23	 9 ;      OG301      CG301      OG301      CG311
    3     2    10     1	 9 ;      CG331      CG301      OG301      CG331
    4     2    10     1	 9 ;     CG2R61      CG301      OG301      CG331
   70     2    10     1	 9 ;      OG301      CG301      OG301      CG331
    2     4     5     6	 9 ;      CG301     CG2R61     CG2R61     CG2R61
    2     4     5    17	 9 ;      CG301     CG2R61     CG2R61      HGR61
    9     4     5     6	 9 ;     CG2R61     CG2R61     CG2R61     CG2R61
    9     4     5    17	 9 ;     CG2R61     CG2R61     CG2R61      HGR61
    2     4     9     8	 9 ;      CG301     CG2R61     CG2R61     CG2R61
    2     4     9    21	 9 ;      CG301     CG2R61     CG2R61      HGR61
    5     4     9     8	 9 ;     CG2R61     CG2R61     CG2R61     CG2R61
    5     4     9    21	 9 ;     CG2R61     CG2R61     CG2R61      HGR61
    4     5     6     7	 9 ;     CG2R61     CG2R61     CG2R61     CG2R61
    4     5     6    18	 9 ;     CG2R61     CG2R61     CG2R61      HGR61
   17     5     6     7	 9 ;      HGR61     CG2R61     CG2R61     CG2R61
   17     5     6    18	 9 ;      HGR61     CG2R61     CG2R61      HGR61
    5     6     7     8	 9 ;     CG2R61     CG2R61     CG2R61     CG2R61
    5     6     7    19	 9 ;     CG2R61     CG2R61     CG2R61      HGR61
   18     6     7     8	 9 ;      HGR61     CG2R61     CG2R61     CG2R61
   18     6     7    19	 9 ;      HGR61     CG2R61     CG2R61      HGR61
    6     7     8     9	 9 ;     CG2R61     CG2R61     CG2R61     CG2R61
    6     7     8    20	 9 ;     CG2R61     CG2R61     CG2R61      HGR61
   19     7     8     9	 9 ;      HGR61     CG2R61     CG2R61     CG2R61
   19     7     8    20	 9 ;      HGR61     CG2R61     CG2R61      HGR61
    7     8     9     4	 9 ;     CG2R61     CG2R61     CG2R61     CG2R61
    7     8     9    21	 9 ;     CG2R61     CG2R61     CG2R61      HGR61
   20     8     9     4	 9 ;      HGR61     CG2R61     CG2R61     CG2R61
   20     8     9    21	 9 ;      HGR61     CG2R61     CG2R61      HGR61
  123    22    57    58	 9 ;       HGP1      NG2S1      CG2O1     CG2R61
  123    22    57    83	 9 ;       HGP1      NG2S1      CG2O1      OG2D1
   56    22    57    58	 9 ;      CG311      NG2S1      CG2O1     CG2R61
   56    22    57    83	 9 ;      CG311      NG2S1      CG2O1      OG2D1
   57    22    56    23	 9 ;      CG2O1      NG2S1      CG311      CG311
   57    22    56    64	 9 ;      CG2O1      NG2S1      CG311     CG2R61
   57    22    56   122	 9 ;      CG2O1      NG2S1      CG311       HGA1
  123    22    56    23	 9 ;       HGP1      NG2S1      CG311      CG311
  123    22    56    64	 9 ;       HGP1      NG2S1      CG311     CG2R61
  123    22    56   122	 9 ;       HGP1      NG2S1      CG311       HGA1
   56    23    24    71	 9 ;      CG311      CG311      CG2O2      OG2D1
   56    23    24    72	 9 ;      CG311      CG311      CG2O2      OG302
   84    23    24    71	 9 ;       HGA1      CG311      CG2O2      OG2D1
   84    23    24    72	 9 ;       HGA1      CG311      CG2O2      OG302
   70    23    24    71	 9 ;      OG301      CG311      CG2O2      OG2D1
   70    23    24    72	 9 ;      OG301      CG311      CG2O2      OG302
   24    23    56    22	 9 ;      CG2O2      CG311      CG311      NG2S1
   24    23    56    64	 9 ;      CG2O2      CG311      CG311     CG2R61
   24    23    56   122	 9 ;      CG2O2      CG311      CG311       HGA1
   84    23    56    22	 9 ;       HGA1      CG311      CG311      NG2S1
   84    23    56    64	 9 ;       HGA1      CG311      CG311     CG2R61
   84    23    56   122	 9 ;       HGA1      CG311      CG311       HGA1
   70    23    56    22	 9 ;      OG301      CG311      CG311      NG2S1
   70    23    56    64	 9 ;      OG301      CG311      CG311     CG2R61
   70    23    56   122	 9 ;      OG301      CG311      CG311       HGA1
   24    23    70     2	 9 ;      CG2O2      CG311      OG301      CG301
   56    23    70     2	 9 ;      CG311      CG311      OG301      CG301
   84    23    70     2	 9 ;       HGA1      CG311      OG301      CG301
   23    24    72    25	 9 ;      CG311      CG2O2      OG302      CG311
   71    24    72    25	 9 ;      OG2D1      CG2O2      OG302      CG311
   44    25    26    27	 9 ;      CG2D1      CG311      CG321      CG301
   44    25    26    86	 9 ;      CG2D1      CG311      CG321       HGA2
   44    25    26    87	 9 ;      CG2D1      CG311      CG321       HGA2
   85    25    26    27	 9 ;       HGA1      CG311      CG321      CG301
   85    25    26    86	 9 ;       HGA1      CG311      CG321       HGA2
   85    25    26    87	 9 ;       HGA1      CG311      CG321       HGA2
   72    25    26    27	 9 ;      OG302      CG311      CG321      CG301
   72    25    26    86	 9 ;      OG302      CG311      CG321       HGA2
   72    25    26    87	 9 ;      OG302      CG311      CG321       HGA2
   26    25    44    43	 9 ;      CG321      CG311      CG2D1      CG2D1
   26    25    44    45	 9 ;      CG321      CG311      CG2D1      CG331
   85    25    44    43	 9 ;       HGA1      CG311      CG2D1      CG2D1
   85    25    44    45	 9 ;       HGA1      CG311      CG2D1      CG331
   72    25    44    43	 9 ;      OG302      CG311      CG2D1      CG2D1
   72    25    44    45	 9 ;      OG302      CG311      CG2D1      CG331
   26    25    72    24	 9 ;      CG321      CG311      OG302      CG2O2
   44    25    72    24	 9 ;      CG2D1      CG311      OG302      CG2O2
   85    25    72    24	 9 ;       HGA1      CG311      OG302      CG2O2
   25    26    27    28	 9 ;      CG311      CG321      CG301      CG311
   25    26    27    46	 9 ;      CG311      CG321      CG301      CG301
   25    26    27    73	 9 ;      CG311      CG321      CG301      OG311
   86    26    27    28	 9 ;       HGA2      CG321      CG301      CG311
   86    26    27    46	 9 ;       HGA2      CG321      CG301      CG301
   86    26    27    73	 9 ;       HGA2      CG321      CG301      OG311
   87    26    27    28	 9 ;       HGA2      CG321      CG301      CG311
   87    26    27    46	 9 ;       HGA2      CG321      CG301      CG301
   87    26    27    73	 9 ;       HGA2      CG321      CG301      OG311
   26    27    28    36	 9 ;      CG321      CG301      CG311      CG311
   26    27    28    74	 9 ;      CG321      CG301      CG311      OG302
   26    27    28    89	 9 ;      CG321      CG301      CG311       HGA1
   46    27    28    36	 9 ;      CG301      CG301      CG311      CG311
   46    27    28    74	 9 ;      CG301      CG301      CG311      OG302
   46    27    28    89	 9 ;      CG301      CG301      CG311       HGA1
   73    27    28    36	 9 ;      OG311      CG301      CG311      CG311
   73    27    28    74	 9 ;      OG311      CG301      CG311      OG302
   73    27    28    89	 9 ;      OG311      CG301      CG311       HGA1
   26    27    46    43	 9 ;      CG321      CG301      CG301      CG2D1
   26    27    46    47	 9 ;      CG321      CG301      CG301      CG331
   26    27    46    48	 9 ;      CG321      CG301      CG301      CG331
   28    27    46    43	 9 ;      CG311      CG301      CG301      CG2D1
   28    27    46    47	 9 ;      CG311      CG301      CG301      CG331
   28    27    46    48	 9 ;      CG311      CG301      CG301      CG331
   73    27    46    43	 9 ;      OG311      CG301      CG301      CG2D1
   73    27    46    47	 9 ;      OG311      CG301      CG301      CG331
   73    27    46    48	 9 ;      OG311      CG301      CG301      CG331
   26    27    73    88	 9 ;      CG321      CG301      OG311       HGP1
   28    27    73    88	 9 ;      CG311      CG301      OG311       HGP1
   46    27    73    88	 9 ;      CG301      CG301      OG311       HGP1
   27    28    36    37	 9 ;      CG301      CG311      CG311      CG301
   27    28    36    53	 9 ;      CG301      CG311      CG311     CG3RC1
   27    28    36    95	 9 ;      CG301      CG311      CG311       HGA1
   74    28    36    37	 9 ;      OG302      CG311      CG311      CG301
   74    28    36    53	 9 ;      OG302      CG311      CG311     CG3RC1
   74    28    36    95	 9 ;      OG302      CG311      CG311       HGA1
   89    28    36    37	 9 ;       HGA1      CG311      CG311      CG301
   89    28    36    53	 9 ;       HGA1      CG311      CG311     CG3RC1
   89    28    36    95	 9 ;       HGA1      CG311      CG311       HGA1
   27    28    74    29	 9 ;      CG301      CG311      OG302      CG2O2
   36    28    74    29	 9 ;      CG311      CG311      OG302      CG2O2
   89    28    74    29	 9 ;       HGA1      CG311      OG302      CG2O2
   75    29    30    31	 9 ;      OG2D1      CG2O2     CG2R61     CG2R61
   75    29    30    35	 9 ;      OG2D1      CG2O2     CG2R61     CG2R61
   74    29    30    31	 9 ;      OG302      CG2O2     CG2R61     CG2R61
   74    29    30    35	 9 ;      OG302      CG2O2     CG2R61     CG2R61
   30    29    74    28	 9 ;     CG2R61      CG2O2      OG302      CG311
   75    29    74    28	 9 ;      OG2D1      CG2O2      OG302      CG311
   29    30    31    32	 9 ;      CG2O2     CG2R61     CG2R61     CG2R61
   29    30    31    90	 9 ;      CG2O2     CG2R61     CG2R61      HGR61
   35    30    31    32	 9 ;     CG2R61     CG2R61     CG2R61     CG2R61
   35    30    31    90	 9 ;     CG2R61     CG2R61     CG2R61      HGR61
   29    30    35    34	 9 ;      CG2O2     CG2R61     CG2R61     CG2R61
   29    30    35    94	 9 ;      CG2O2     CG2R61     CG2R61      HGR61
   31    30    35    34	 9 ;     CG2R61     CG2R61     CG2R61     CG2R61
   31    30    35    94	 9 ;     CG2R61     CG2R61     CG2R61      HGR61
   30    31    32    33	 9 ;     CG2R61     CG2R61     CG2R61     CG2R61
   30    31    32    91	 9 ;     CG2R61     CG2R61     CG2R61      HGR61
   90    31    32    33	 9 ;      HGR61     CG2R61     CG2R61     CG2R61
   90    31    32    91	 9 ;      HGR61     CG2R61     CG2R61      HGR61
   31    32    33    34	 9 ;     CG2R61     CG2R61     CG2R61     CG2R61
   31    32    33    92	 9 ;     CG2R61     CG2R61     CG2R61      HGR61
   91    32    33    34	 9 ;      HGR61     CG2R61     CG2R61     CG2R61
   91    32    33    92	 9 ;      HGR61     CG2R61     CG2R61      HGR61
   32    33    34    35	 9 ;     CG2R61     CG2R61     CG2R61     CG2R61
   32    33    34    93	 9 ;     CG2R61     CG2R61     CG2R61      HGR61
   92    33    34    35	 9 ;      HGR61     CG2R61     CG2R61     CG2R61
   92    33    34    93	 9 ;      HGR61     CG2R61     CG2R61      HGR61
   33    34    35    30	 9 ;     CG2R61     CG2R61     CG2R61     CG2R61
   33    34    35    94	 9 ;     CG2R61     CG2R61     CG2R61      HGR61
   93    34    35    30	 9 ;      HGR61     CG2R61     CG2R61     CG2R61
   93    34    35    94	 9 ;      HGR61     CG2R61     CG2R61      HGR61
   28    36    37    38	 9 ;      CG311      CG311      CG301      CG331
   28    36    37    39	 9 ;      CG311      CG311      CG301      CG2O5
   28    36    37    49	 9 ;      CG311      CG311      CG301      CG311
   53    36    37    38	 9 ;     CG3RC1      CG311      CG301      CG331
   53    36    37    39	 9 ;     CG3RC1      CG311      CG301      CG2O5
   53    36    37    49	 9 ;     CG3RC1      CG311      CG301      CG311
   95    36    37    38	 9 ;       HGA1      CG311      CG301      CG331
   95    36    37    39	 9 ;       HGA1      CG311      CG301      CG2O5
   95    36    37    49	 9 ;       HGA1      CG311      CG301      CG311
   28    36    53    51	 9 ;      CG311      CG311     CG3RC1     CG3RC1
   28    36    53    52	 9 ;      CG311      CG311     CG3RC1     CG3C41
   28    36    53    81	 9 ;      CG311      CG311     CG3RC1      OG302
   37    36    53    51	 9 ;      CG301      CG311     CG3RC1     CG3RC1
   37    36    53    52	 9 ;      CG301      CG311     CG3RC1     CG3C41
   37    36    53    81	 9 ;      CG301      CG311     CG3RC1      OG302
   95    36    53    51	 9 ;       HGA1      CG311     CG3RC1     CG3RC1
   95    36    53    52	 9 ;       HGA1      CG311     CG3RC1     CG3C41
   95    36    53    81	 9 ;       HGA1      CG311     CG3RC1      OG302
   36    37    38    96	 9 ;      CG311      CG301      CG331       HGA3
   36    37    38    97	 9 ;      CG311      CG301      CG331       HGA3
   36    37    38    98	 9 ;      CG311      CG301      CG331       HGA3
   39    37    38    96	 9 ;      CG2O5      CG301      CG331       HGA3
   39    37    38    97	 9 ;      CG2O5      CG301      CG331       HGA3
   39    37    38    98	 9 ;      CG2O5      CG301      CG331       HGA3
   49    37    38    96	 9 ;      CG311      CG301      CG331       HGA3
   49    37    38    97	 9 ;      CG311      CG301      CG331       HGA3
   49    37    38    98	 9 ;      CG311      CG301      CG331       HGA3
   36    37    39    40	 9 ;      CG311      CG301      CG2O5      CG311
   36    37    39    76	 9 ;      CG311      CG301      CG2O5      OG2D3
   38    37    39    40	 9 ;      CG331      CG301      CG2O5      CG311
   38    37    39    76	 9 ;      CG331      CG301      CG2O5      OG2D3
   49    37    39    40	 9 ;      CG311      CG301      CG2O5      CG311
   49    37    39    76	 9 ;      CG311      CG301      CG2O5      OG2D3
   36    37    49    50	 9 ;      CG311      CG301      CG311      CG321
   36    37    49    79	 9 ;      CG311      CG301      CG311      OG311
   36    37    49   112	 9 ;      CG311      CG301      CG311       HGA1
   38    37    49    50	 9 ;      CG331      CG301      CG311      CG321
   38    37    49    79	 9 ;      CG331      CG301      CG311      OG311
   38    37    49   112	 9 ;      CG331      CG301      CG311       HGA1
   39    37    49    50	 9 ;      CG2O5      CG301      CG311      CG321
   39    37    49    79	 9 ;      CG2O5      CG301      CG311      OG311
   39    37    49   112	 9 ;      CG2O5      CG301      CG311       HGA1
   37    39    40    43	 9 ;      CG301      CG2O5      CG311      CG2D1
   37    39    40    77	 9 ;      CG301      CG2O5      CG311      OG302
   37    39    40    99	 9 ;      CG301      CG2O5      CG311       HGA1
   76    39    40    43	 9 ;      OG2D3      CG2O5      CG311      CG2D1
   76    39    40    77	 9 ;      OG2D3      CG2O5      CG311      OG302
   76    39    40    99	 9 ;      OG2D3      CG2O5      CG311       HGA1
   39    40    43    44	 9 ;      CG2O5      CG311      CG2D1      CG2D1
   39    40    43    46	 9 ;      CG2O5      CG311      CG2D1      CG301
   77    40    43    44	 9 ;      OG302      CG311      CG2D1      CG2D1
   77    40    43    46	 9 ;      OG302      CG311      CG2D1      CG301
   99    40    43    44	 9 ;       HGA1      CG311      CG2D1      CG2D1
   99    40    43    46	 9 ;       HGA1      CG311      CG2D1      CG301
   39    40    77    41	 9 ;      CG2O5      CG311      OG302      CG2O2
   43    40    77    41	 9 ;      CG2D1      CG311      OG302      CG2O2
   99    40    77    41	 9 ;       HGA1      CG311      OG302      CG2O2
   78    41    42   100	 9 ;      OG2D1      CG2O2      CG331       HGA3
   78    41    42   101	 9 ;      OG2D1      CG2O2      CG331       HGA3
   78    41    42   102	 9 ;      OG2D1      CG2O2      CG331       HGA3
   77    41    42   100	 9 ;      OG302      CG2O2      CG331       HGA3
   77    41    42   101	 9 ;      OG302      CG2O2      CG331       HGA3
   77    41    42   102	 9 ;      OG302      CG2O2      CG331       HGA3
   42    41    77    40	 9 ;      CG331      CG2O2      OG302      CG311
   78    41    77    40	 9 ;      OG2D1      CG2O2      OG302      CG311
   40    43    44    25	 9 ;      CG311      CG2D1      CG2D1      CG311
   40    43    44    45	 9 ;      CG311      CG2D1      CG2D1      CG331
   46    43    44    25	 9 ;      CG301      CG2D1      CG2D1      CG311
   46    43    44    45	 9 ;      CG301      CG2D1      CG2D1      CG331
   40    43    46    27	 9 ;      CG311      CG2D1      CG301      CG301
   40    43    46    47	 9 ;      CG311      CG2D1      CG301      CG331
   40    43    46    48	 9 ;      CG311      CG2D1      CG301      CG331
   44    43    46    27	 9 ;      CG2D1      CG2D1      CG301      CG301
   44    43    46    47	 9 ;      CG2D1      CG2D1      CG301      CG331
   44    43    46    48	 9 ;      CG2D1      CG2D1      CG301      CG331
   25    44    45   103	 9 ;      CG311      CG2D1      CG331       HGA3
   25    44    45   104	 9 ;      CG311      CG2D1      CG331       HGA3
   25    44    45   105	 9 ;      CG311      CG2D1      CG331       HGA3
   43    44    45   103	 9 ;      CG2D1      CG2D1      CG331       HGA3
   43    44    45   104	 9 ;      CG2D1      CG2D1      CG331       HGA3
   43    44    45   105	 9 ;      CG2D1      CG2D1      CG331       HGA3
   27    46    47   106	 9 ;      CG301      CG301      CG331       HGA3
   27    46    47   107	 9 ;      CG301      CG301      CG331       HGA3
   27    46    47   108	 9 ;      CG301      CG301      CG331       HGA3
   43    46    47   106	 9 ;      CG2D1      CG301      CG331       HGA3
   43    46    47   107	 9 ;      CG2D1      CG301      CG331       HGA3
   43    46    47   108	 9 ;      CG2D1      CG301      CG331       HGA3
   48    46    47   106	 9 ;      CG331      CG301      CG331       HGA3
   48    46    47   107	 9 ;      CG331      CG301      CG331       HGA3
   48    46    47   108	 9 ;      CG331      CG301      CG331       HGA3
   27    46    48   109	 9 ;      CG301      CG301      CG331       HGA3
   27    46    48   110	 9 ;      CG301      CG301      CG331       HGA3
   27    46    48   111	 9 ;      CG301      CG301      CG331       HGA3
   43    46    48   109	 9 ;      CG2D1      CG301      CG331       HGA3
   43    46    48   110	 9 ;      CG2D1      CG301      CG331       HGA3
   43    46    48   111	 9 ;      CG2D1      CG301      CG331       HGA3
   47    46    48   109	 9 ;      CG331      CG301      CG331       HGA3
   47    46    48   110	 9 ;      CG331      CG301      CG331       HGA3
   47    46    48   111	 9 ;      CG331      CG301      CG331       HGA3
   37    49    50    51	 9 ;      CG301      CG311      CG321     CG3RC1
   37    49    50   114	 9 ;      CG301      CG311      CG321       HGA2
   37    49    50   115	 9 ;      CG301      CG311      CG321       HGA2
   79    49    50    51	 9 ;      OG311      CG311      CG321     CG3RC1
   79    49    50   114	 9 ;      OG311      CG311      CG321       HGA2
   79    49    50   115	 9 ;      OG311      CG311      CG321       HGA2
  112    49    50    51	 9 ;       HGA1      CG311      CG321     CG3RC1
  112    49    50   114	 9 ;       HGA1      CG311      CG321       HGA2
  112    49    50   115	 9 ;       HGA1      CG311      CG321       HGA2
   37    49    79   113	 9 ;      CG301      CG311      OG311       HGP1
   50    49    79   113	 9 ;      CG321      CG311      OG311       HGP1
  112    49    79   113	 9 ;       HGA1      CG311      OG311       HGP1
   49    50    51    53	 9 ;      CG311      CG321     CG3RC1     CG3RC1
   49    50    51    80	 9 ;      CG311      CG321     CG3RC1     OG3C51
   49    50    51   116	 9 ;      CG311      CG321     CG3RC1       HGA1
  114    50    51    53	 9 ;       HGA2      CG321     CG3RC1     CG3RC1
  114    50    51    80	 9 ;       HGA2      CG321     CG3RC1     OG3C51
  114    50    51   116	 9 ;       HGA2      CG321     CG3RC1       HGA1
  115    50    51    53	 9 ;       HGA2      CG321     CG3RC1     CG3RC1
  115    50    51    80	 9 ;       HGA2      CG321     CG3RC1     OG3C51
  115    50    51   116	 9 ;       HGA2      CG321     CG3RC1       HGA1
   50    51    53    36	 9 ;      CG321     CG3RC1     CG3RC1      CG311
   50    51    53    52	 9 ;      CG321     CG3RC1     CG3RC1     CG3C41
   50    51    53    81	 9 ;      CG321     CG3RC1     CG3RC1      OG302
   80    51    53    36	 9 ;     OG3C51     CG3RC1     CG3RC1      CG311
   80    51    53    52	 9 ;     OG3C51     CG3RC1     CG3RC1     CG3C41
   80    51    53    81	 9 ;     OG3C51     CG3RC1     CG3RC1      OG302
  116    51    53    36	 9 ;       HGA1     CG3RC1     CG3RC1      CG311
  116    51    53    52	 9 ;       HGA1     CG3RC1     CG3RC1     CG3C41
  116    51    53    81	 9 ;       HGA1     CG3RC1     CG3RC1      OG302
   50    51    80    52	 9 ;      CG321     CG3RC1     OG3C51     CG3C41
   53    51    80    52	 9 ;     CG3RC1     CG3RC1     OG3C51     CG3C41
  116    51    80    52	 9 ;       HGA1     CG3RC1     OG3C51     CG3C41
  117    52    53    36	 9 ;       HGA2     CG3C41     CG3RC1      CG311
  117    52    53    51	 9 ;       HGA2     CG3C41     CG3RC1     CG3RC1
  117    52    53    81	 9 ;       HGA2     CG3C41     CG3RC1      OG302
  118    52    53    36	 9 ;       HGA2     CG3C41     CG3RC1      CG311
  118    52    53    51	 9 ;       HGA2     CG3C41     CG3RC1     CG3RC1
  118    52    53    81	 9 ;       HGA2     CG3C41     CG3RC1      OG302
   80    52    53    36	 9 ;     OG3C51     CG3C41     CG3RC1      CG311
   80    52    53    51	 9 ;     OG3C51     CG3C41     CG3RC1     CG3RC1
   80    52    53    81	 9 ;     OG3C51     CG3C41     CG3RC1      OG302
   53    52    80    51	 9 ;     CG3RC1     CG3C41     OG3C51     CG3RC1
  117    52    80    51	 9 ;       HGA2     CG3C41     OG3C51     CG3RC1
  118    52    80    51	 9 ;       HGA2     CG3C41     OG3C51     CG3RC1
   36    53    81    54	 9 ;      CG311     CG3RC1      OG302      CG2O2
   51    53    81    54	 9 ;     CG3RC1     CG3RC1      OG302      CG2O2
   52    53    81    54	 9 ;     CG3C41     CG3RC1      OG302      CG2O2
   82    54    55   119	 9 ;      OG2D1      CG2O2      CG331       HGA3
   82    54    55   120	 9 ;      OG2D1      CG2O2      CG331       HGA3
   82    54    55   121	 9 ;      OG2D1      CG2O2      CG331       HGA3
   81    54    55   119	 9 ;      OG302      CG2O2      CG331       HGA3
   81    54    55   120	 9 ;      OG302      CG2O2      CG331       HGA3
   81    54    55   121	 9 ;      OG302      CG2O2      CG331       HGA3
   55    54    81    53	 9 ;      CG331      CG2O2      OG302     CG3RC1
   82    54    81    53	 9 ;      OG2D1      CG2O2      OG302     CG3RC1
   23    56    64    65	 9 ;      CG311      CG311     CG2R61     CG2R61
   23    56    64    69	 9 ;      CG311      CG311     CG2R61     CG2R61
   22    56    64    65	 9 ;      NG2S1      CG311     CG2R61     CG2R61
   22    56    64    69	 9 ;      NG2S1      CG311     CG2R61     CG2R61
  122    56    64    65	 9 ;       HGA1      CG311     CG2R61     CG2R61
  122    56    64    69	 9 ;       HGA1      CG311     CG2R61     CG2R61
   22    57    58    59	 9 ;      NG2S1      CG2O1     CG2R61     CG2R61
   22    57    58    63	 9 ;      NG2S1      CG2O1     CG2R61     CG2R61
   83    57    58    59	 9 ;      OG2D1      CG2O1     CG2R61     CG2R61
   83    57    58    63	 9 ;      OG2D1      CG2O1     CG2R61     CG2R61
   57    58    59    60	 9 ;      CG2O1     CG2R61     CG2R61     CG2R61
   57    58    59   124	 9 ;      CG2O1     CG2R61     CG2R61      HGR61
   63    58    59    60	 9 ;     CG2R61     CG2R61     CG2R61     CG2R61
   63    58    59   124	 9 ;     CG2R61     CG2R61     CG2R61      HGR61
   57    58    63    62	 9 ;      CG2O1     CG2R61     CG2R61     CG2R61
   57    58    63   128	 9 ;      CG2O1     CG2R61     CG2R61      HGR61
   59    58    63    62	 9 ;     CG2R61     CG2R61     CG2R61     CG2R61
   59    58    63   128	 9 ;     CG2R61     CG2R61     CG2R61      HGR61
   58    59    60    61	 9 ;     CG2R61     CG2R61     CG2R61     CG2R61
   58    59    60   125	 9 ;     CG2R61     CG2R61     CG2R61      HGR61
  124    59    60    61	 9 ;      HGR61     CG2R61     CG2R61     CG2R61
  124    59    60   125	 9 ;      HGR61     CG2R61     CG2R61      HGR61
   59    60    61    62	 9 ;     CG2R61     CG2R61     CG2R61     CG2R61
   59    60    61   126	 9 ;     CG2R61     CG2R61     CG2R61      HGR61
  125    60    61    62	 9 ;      HGR61     CG2R61     CG2R61     CG2R61
  125    60    61   126	 9 ;      HGR61     CG2R61     CG2R61      HGR61
   60    61    62    63	 9 ;     CG2R61     CG2R61     CG2R61     CG2R61
   60    61    62   127	 9 ;     CG2R61     CG2R61     CG2R61      HGR61
  126    61    62    63	 9 ;      HGR61     CG2R61     CG2R61     CG2R61
  126    61    62   127	 9 ;      HGR61     CG2R61     CG2R61      HGR61
   61    62    63    58	 9 ;     CG2R61     CG2R61     CG2R61     CG2R61
   61    62    63   128	 9 ;     CG2R61     CG2R61     CG2R61      HGR61
  127    62    63    58	 9 ;      HGR61     CG2R61     CG2R61     CG2R61
  127    62    63   128	 9 ;      HGR61     CG2R61     CG2R61      HGR61
   56    64    65    66	 9 ;      CG311     CG2R61     CG2R61     CG2R61
   56    64    65   129	 9 ;      CG311     CG2R61     CG2R61      HGR61
   69    64    65    66	 9 ;     CG2R61     CG2R61     CG2R61     CG2R61
   69    64    65   129	 9 ;     CG2R61     CG2R61     CG2R61      HGR61
   56    64    69    68	 9 ;      CG311     CG2R61     CG2R61     CG2R61
   56    64    69   133	 9 ;      CG311     CG2R61     CG2R61      HGR61
   65    64    69    68	 9 ;     CG2R61     CG2R61     CG2R61     CG2R61
   65    64    69   133	 9 ;     CG2R61     CG2R61     CG2R61      HGR61
   64    65    66    67	 9 ;     CG2R61     CG2R61     CG2R61     CG2R61
   64    65    66   130	 9 ;     CG2R61     CG2R61     CG2R61      HGR61
  129    65    66    67	 9 ;      HGR61     CG2R61     CG2R61     CG2R61
  129    65    66   130	 9 ;      HGR61     CG2R61     CG2R61      HGR61
   65    66    67    68	 9 ;     CG2R61     CG2R61     CG2R61     CG2R61
   65    66    67   131	 9 ;     CG2R61     CG2R61     CG2R61      HGR61
  130    66    67    68	 9 ;      HGR61     CG2R61     CG2R61     CG2R61
  130    66    67   131	 9 ;      HGR61     CG2R61     CG2R61      HGR61
   66    67    68    69	 9 ;     CG2R61     CG2R61     CG2R61     CG2R61
   66    67    68   132	 9 ;     CG2R61     CG2R61     CG2R61      HGR61
  131    67    68    69	 9 ;      HGR61     CG2R61     CG2R61     CG2R61
  131    67    68   132	 9 ;      HGR61     CG2R61     CG2R61      HGR61
   67    68    69    64	 9 ;     CG2R61     CG2R61     CG2R61     CG2R61
   67    68    69   133	 9 ;     CG2R61     CG2R61     CG2R61      HGR61
  132    68    69    64	 9 ;      HGR61     CG2R61     CG2R61     CG2R61
  132    68    69   133	 9 ;      HGR61     CG2R61     CG2R61      HGR61

[ dihedrals ]
;	ai	  aj	ak	  al funct			  c0			c1			  c2			c3
   24    23    71    72	 2
   29    30    75    74	 2
   39    37    40    76	 2
   41    42    78    77	 2
   54    55    82    81	 2
   57    58    22    83	 2

