; Created by cgenff_charmm2gmx.py

[ moleculetype ]
; Name			   nrexcl
DOX				 3

[ atoms ]
;	 nr		  type	resnr residue  atom   cgnr	   charge		mass  typeB    chargeB		massB
; residue	 1 DOX rtp DOX q	qsum
     1      CG331      1    DOL     C1      1     -0.273     12.011   ;
     2      CG321      1    DOL     C2      2     -0.177     12.011   ;
     3      CG321      1    DOL     C3      3     -0.181     12.011   ;
     4      CG321      1    DOL     C4      4     -0.179     12.011   ;
     5      CG321      1    DOL     C5      5     -0.180     12.011   ;
     6      CG321      1    DOL     C6      6     -0.180     12.011   ;
     7      CG321      1    DOL     C7      7     -0.180     12.011   ;
     8      CG321      1    DOL     C8      8     -0.180     12.011   ;
     9      CG321      1    DOL     C9      9     -0.180     12.011   ;
    10      CG321      1    DOL    C10     10     -0.180     12.011   ;
    11      CG321      1    DOL    C11     11     -0.180     12.011   ;
    12      CG321      1    DOL    C12     12     -0.180     12.011   ;
    13      CG321      1    DOL    C13     13     -0.180     12.011   ;
    14      CG321      1    DOL    C14     14     -0.180     12.011   ;
    15      CG321      1    DOL    C15     15     -0.180     12.011   ;
    16      CG321      1    DOL    C16     16     -0.180     12.011   ;
    17      CG321      1    DOL    C17     17     -0.180     12.011   ;
    18      CG321      1    DOL    C18     18      0.036     12.011   ;
    19      CG301      1    DOL    C19     19      0.381     12.011   ;
    20      CG331      1    DOL    C20     20     -0.269     12.011   ;
    21      CG331      1    DOL    C21     21     -0.269     12.011   ;
    22      OG301      1    DOL     O1     22     -0.402     15.999   ;
    23       HGA3      1    DOL     H1     23      0.090      1.008   ;
    24       HGA3      1    DOL     H2     24      0.090      1.008   ;
    25       HGA3      1    DOL     H3     25      0.090      1.008   ;
    26       HGA2      1    DOL     H4     26      0.090      1.008   ;
    27       HGA2      1    DOL     H5     27      0.090      1.008   ;
    28       HGA2      1    DOL     H6     28      0.090      1.008   ;
    29       HGA2      1    DOL     H7     29      0.090      1.008   ;
    30       HGA2      1    DOL     H8     30      0.090      1.008   ;
    31       HGA2      1    DOL     H9     31      0.090      1.008   ;
    32       HGA2      1    DOL    H10     32      0.090      1.008   ;
    33       HGA2      1    DOL    H11     33      0.090      1.008   ;
    34       HGA2      1    DOL    H12     34      0.090      1.008   ;
    35       HGA2      1    DOL    H13     35      0.090      1.008   ;
    36       HGA2      1    DOL    H14     36      0.090      1.008   ;
    37       HGA2      1    DOL    H15     37      0.090      1.008   ;
    38       HGA2      1    DOL    H16     38      0.090      1.008   ;
    39       HGA2      1    DOL    H17     39      0.090      1.008   ;
    40       HGA2      1    DOL    H18     40      0.090      1.008   ;
    41       HGA2      1    DOL    H19     41      0.090      1.008   ;
    42       HGA2      1    DOL    H20     42      0.090      1.008   ;
    43       HGA2      1    DOL    H21     43      0.090      1.008   ;
    44       HGA2      1    DOL    H22     44      0.090      1.008   ;
    45       HGA2      1    DOL    H23     45      0.090      1.008   ;
    46       HGA2      1    DOL    H24     46      0.090      1.008   ;
    47       HGA2      1    DOL    H25     47      0.090      1.008   ;
    48       HGA2      1    DOL    H26     48      0.090      1.008   ;
    49       HGA2      1    DOL    H27     49      0.090      1.008   ;
    50       HGA2      1    DOL    H28     50      0.090      1.008   ;
    51       HGA2      1    DOL    H29     51      0.090      1.008   ;
    52       HGA2      1    DOL    H30     52      0.090      1.008   ;
    53       HGA2      1    DOL    H31     53      0.090      1.008   ;
    54       HGA2      1    DOL    H32     54      0.090      1.008   ;
    55       HGA2      1    DOL    H33     55      0.090      1.008   ;
    56       HGA2      1    DOL    H34     56      0.090      1.008   ;
    57       HGA2      1    DOL    H35     57      0.090      1.008   ;
    58       HGA2      1    DOL    H36     58      0.090      1.008   ;
    59       HGA2      1    DOL    H37     59      0.090      1.008   ;
    60       HGA3      1    DOL    H38     60      0.090      1.008   ;
    61       HGA3      1    DOL    H39     61      0.090      1.008   ;
    62       HGA3      1    DOL    H40     62      0.090      1.008   ;
    63       HGA3      1    DOL    H41     63      0.090      1.008   ;
    64       HGA3      1    DOL    H42     64      0.090      1.008   ;
    65       HGA3      1    DOL    H43     65      0.090      1.008   ;
    66      NG321      1    DOX      N     66     -1.000     14.007   ;
    67      CG321      1    DOX    C22     67      0.179     12.011   ;
    68      CG2O5      1    DOX    C23     68      0.305     12.011   ;
    69      CG301      1    DOX    C24     69      0.275     12.011   ;
    70      CG321      1    DOX    C25     70     -0.213     12.011   ;
    71     CG2R61      1    DOX    C26     71      0.023     12.011   ;
    72     CG2R61      1    DOX    C27     72     -0.002     12.011   ;
    73     CG2R61      1    DOX    C28     73      0.263     12.011   ;
    74      CG2O5      1    DOX    C29     74      0.186     12.011   ;
    75     CG2R61      1    DOX    C30     75      0.131     12.011   ;
    76     CG2R61      1    DOX    C31     76     -0.109     12.011   ;
    77     CG2R61      1    DOX    C32     77     -0.115     12.011   ;
    78     CG2R61      1    DOX    C33     78     -0.118     12.011   ;
    79     CG2R61      1    DOX    C34     79      0.107     12.011   ;
    80      CG331      1    DOX    C35     80     -0.101     12.011   ;
    81     CG2R61      1    DOX    C36     81      0.249     12.011   ;
    82      CG2O5      1    DOX    C37     82      0.193     12.011   ;
    83     CG2R61      1    DOX    C38     83      0.255     12.011   ;
    84     CG2R61      1    DOX    C39     84      0.016     12.011   ;
    85     CG2R61      1    DOX    C40     85     -0.015     12.011   ;
    86      CG311      1    DOX    C41     86      0.133     12.011   ;
    87      CG311      1    DOX    C42     87      0.277     12.011   ;
    88      CG321      1    DOX    C43     88     -0.169     12.011   ;
    89      CG311      1    DOX    C44     89      0.169     12.011   ;
    90      CG311      1    DOX    C45     90      0.161     12.011   ;
    91      CG311      1    DOX    C46     91      0.013     12.011   ;
    92      CG331      1    DOX    C47     92     -0.218     12.011   ;
    93      CG321      1    DOX    C48     93     -0.215     12.011   ;
    94      OG301      1    DOX     O2     94     -0.452     15.999   ;
    95      OG2D3      1    DOX     O3     95     -0.506     15.999   ;
    96      OG311      1    DOX     O4     96     -0.501     15.999   ;
    97      OG311      1    DOX     O5     97     -0.543     15.999   ;
    98      OG2D3      1    DOX     O6     98     -0.449     15.999   ;
    99      OG301      1    DOX     O7     99     -0.396     15.999   ;
   100      OG2D3      1    DOX     O8    100     -0.449     15.999   ;
   101      OG311      1    DOX     O9    101     -0.543     15.999   ;
   102      OG301      1    DOX    O10    102     -0.414     15.999   ;
   103      OG311      1    DOX    O11    103     -0.650     15.999   ;
   104     OG3C61      1    DOX    O12    104     -0.384     15.999   ;
   105       HGA2      1    DOX    H44    105      0.090      1.008   ;
   106       HGA2      1    DOX    H45    106      0.090      1.008   ;
   107       HGP1      1    DOX    H46    107      0.335      1.008   ;
   108       HGA2      1    DOX    H47    108      0.090      1.008   ;
   109       HGA2      1    DOX    H48    109      0.090      1.008   ;
   110       HGP1      1    DOX    H49    110      0.420      1.008   ;
   111      HGR61      1    DOX    H50    111      0.115      1.008   ;
   112      HGR61      1    DOX    H51    112      0.115      1.008   ;
   113      HGR61      1    DOX    H52    113      0.115      1.008   ;
   114       HGA3      1    DOX    H53    114      0.090      1.008   ;
   115       HGA3      1    DOX    H54    115      0.090      1.008   ;
   116       HGA3      1    DOX    H55    116      0.090      1.008   ;
   117       HGP1      1    DOX    H56    117      0.420      1.008   ;
   118       HGA1      1    DOX    H57    118      0.090      1.008   ;
   119       HGA1      1    DOX    H58    119      0.090      1.008   ;
   120       HGA2      1    DOX    H59    120      0.090      1.008   ;
   121       HGA2      1    DOX    H60    121      0.090      1.008   ;
   122       HGA1      1    DOX    H61    122      0.090      1.008   ;
   123     HGPAM2      1    DOX    H62    123      0.390      1.008   ;
   124     HGPAM2      1    DOX    H63    124      0.390      1.008   ;
   125       HGA1      1    DOX    H64    125      0.090      1.008   ;
   126       HGP1      1    DOX    H65    126      0.420      1.008   ;
   127       HGA1      1    DOX    H66    127      0.090      1.008   ;
   128       HGA3      1    DOX    H67    128      0.090      1.008   ;
   129       HGA3      1    DOX    H68    129      0.090      1.008   ;
   130       HGA3      1    DOX    H69    130      0.090      1.008   ;
   131       HGA2      1    DOX    H70    131      0.090      1.008   ;
   132       HGA2      1    DOX    H71    132      0.090      1.008   ;

[ bonds ]
;	ai	  aj funct			  c0			c1			  c2			c3
    1     2	 1 ;       CG331      CG321
    1    23	 1 ;       CG331       HGA3
    1    24	 1 ;       CG331       HGA3
    1    25	 1 ;       CG331       HGA3
    2     3	 1 ;       CG321      CG321
    2    26	 1 ;       CG321       HGA2
    2    27	 1 ;       CG321       HGA2
    3     4	 1 ;       CG321      CG321
    3    28	 1 ;       CG321       HGA2
    3    29	 1 ;       CG321       HGA2
    4     5	 1 ;       CG321      CG321
    4    30	 1 ;       CG321       HGA2
    4    31	 1 ;       CG321       HGA2
    5     6	 1 ;       CG321      CG321
    5    32	 1 ;       CG321       HGA2
    5    33	 1 ;       CG321       HGA2
    6     7	 1 ;       CG321      CG321
    6    34	 1 ;       CG321       HGA2
    6    35	 1 ;       CG321       HGA2
    7     8	 1 ;       CG321      CG321
    7    36	 1 ;       CG321       HGA2
    7    37	 1 ;       CG321       HGA2
    8     9	 1 ;       CG321      CG321
    8    38	 1 ;       CG321       HGA2
    8    39	 1 ;       CG321       HGA2
    9    10	 1 ;       CG321      CG321
    9    40	 1 ;       CG321       HGA2
    9    41	 1 ;       CG321       HGA2
   10    11	 1 ;       CG321      CG321
   10    42	 1 ;       CG321       HGA2
   10    43	 1 ;       CG321       HGA2
   11    12	 1 ;       CG321      CG321
   11    44	 1 ;       CG321       HGA2
   11    45	 1 ;       CG321       HGA2
   12    13	 1 ;       CG321      CG321
   12    46	 1 ;       CG321       HGA2
   12    47	 1 ;       CG321       HGA2
   13    14	 1 ;       CG321      CG321
   13    48	 1 ;       CG321       HGA2
   13    49	 1 ;       CG321       HGA2
   14    15	 1 ;       CG321      CG321
   14    50	 1 ;       CG321       HGA2
   14    51	 1 ;       CG321       HGA2
   15    16	 1 ;       CG321      CG321
   15    52	 1 ;       CG321       HGA2
   15    53	 1 ;       CG321       HGA2
   16    17	 1 ;       CG321      CG321
   16    54	 1 ;       CG321       HGA2
   16    55	 1 ;       CG321       HGA2
   17    18	 1 ;       CG321      CG321
   17    56	 1 ;       CG321       HGA2
   17    57	 1 ;       CG321       HGA2
   18    22	 1 ;       CG321      OG301
   18    58	 1 ;       CG321       HGA2
   18    59	 1 ;       CG321       HGA2
   19    20	 1 ;       CG301      CG331
   19    21	 1 ;       CG301      CG331
   19    94	 1 ;       CG301      OG301
   19    22	 1 ;       CG301      OG301
   20    60	 1 ;       CG331       HGA3
   20    61	 1 ;       CG331       HGA3
   20    62	 1 ;       CG331       HGA3
   21    63	 1 ;       CG331       HGA3
   21    64	 1 ;       CG331       HGA3
   21    65	 1 ;       CG331       HGA3
   66   123	 1 ;       NG321     HGPAM2
   66   124	 1 ;       NG321     HGPAM2
   66    89	 1 ;       NG321      CG311
   67    68	 1 ;       CG321      CG2O5
   67   105	 1 ;       CG321       HGA2
   67   106	 1 ;       CG321       HGA2
   67    94	 1 ;       CG321      OG301
   68    69	 1 ;       CG2O5      CG301
   68    95	 1 ;       CG2O5      OG2D3
   69    70	 1 ;       CG301      CG321
   69    93	 1 ;       CG301      CG321
   69    96	 1 ;       CG301      OG311
   70    71	 1 ;       CG321     CG2R61
   70   108	 1 ;       CG321       HGA2
   70   109	 1 ;       CG321       HGA2
   71    72	 1 ;      CG2R61     CG2R61
   71    85	 1 ;      CG2R61     CG2R61
   72    73	 1 ;      CG2R61     CG2R61
   72    97	 1 ;      CG2R61      OG311
   73    74	 1 ;      CG2R61      CG2O5
   73    83	 1 ;      CG2R61     CG2R61
   74    75	 1 ;       CG2O5     CG2R61
   74    98	 1 ;       CG2O5      OG2D3
   75    76	 1 ;      CG2R61     CG2R61
   75    81	 1 ;      CG2R61     CG2R61
   76    77	 1 ;      CG2R61     CG2R61
   76   111	 1 ;      CG2R61      HGR61
   77    78	 1 ;      CG2R61     CG2R61
   77   112	 1 ;      CG2R61      HGR61
   78    79	 1 ;      CG2R61     CG2R61
   78   113	 1 ;      CG2R61      HGR61
   79    81	 1 ;      CG2R61     CG2R61
   79    99	 1 ;      CG2R61      OG301
   80   114	 1 ;       CG331       HGA3
   80   115	 1 ;       CG331       HGA3
   80   116	 1 ;       CG331       HGA3
   80    99	 1 ;       CG331      OG301
   81    82	 1 ;      CG2R61      CG2O5
   82    83	 1 ;       CG2O5     CG2R61
   82   100	 1 ;       CG2O5      OG2D3
   83    84	 1 ;      CG2R61     CG2R61
   84    85	 1 ;      CG2R61     CG2R61
   84   101	 1 ;      CG2R61      OG311
   85    86	 1 ;      CG2R61      CG311
   86    93	 1 ;       CG311      CG321
   86   102	 1 ;       CG311      OG301
   86   118	 1 ;       CG311       HGA1
   87    88	 1 ;       CG311      CG321
   87   104	 1 ;       CG311     OG3C61
   87   119	 1 ;       CG311       HGA1
   87   102	 1 ;       CG311      OG301
   88    89	 1 ;       CG321      CG311
   88   120	 1 ;       CG321       HGA2
   88   121	 1 ;       CG321       HGA2
   89    90	 1 ;       CG311      CG311
   89   122	 1 ;       CG311       HGA1
   90    91	 1 ;       CG311      CG311
   90   103	 1 ;       CG311      OG311
   90   125	 1 ;       CG311       HGA1
   91    92	 1 ;       CG311      CG331
   91   104	 1 ;       CG311     OG3C61
   91   127	 1 ;       CG311       HGA1
   92   128	 1 ;       CG331       HGA3
   92   129	 1 ;       CG331       HGA3
   92   130	 1 ;       CG331       HGA3
   93   131	 1 ;       CG321       HGA2
   93   132	 1 ;       CG321       HGA2
   96   107	 1 ;       OG311       HGP1
   97   110	 1 ;       OG311       HGP1
  101   117	 1 ;       OG311       HGP1
  103   126	 1 ;       OG311       HGP1

[ pairs ]
;	ai	  aj funct			  c0			c1			  c2			c3
    1     4	 1
    1    28	 1
    1    29	 1
    2     5	 1
    2    30	 1
    2    31	 1
    3    23	 1
    3    24	 1
    3    25	 1
    3     6	 1
    3    32	 1
    3    33	 1
    4    26	 1
    4    27	 1
    4     7	 1
    4    34	 1
    4    35	 1
    5    28	 1
    5    29	 1
    5     8	 1
    5    36	 1
    5    37	 1
    6    30	 1
    6    31	 1
    6     9	 1
    6    38	 1
    6    39	 1
    7    32	 1
    7    33	 1
    7    10	 1
    7    40	 1
    7    41	 1
    8    34	 1
    8    35	 1
    8    11	 1
    8    42	 1
    8    43	 1
    9    36	 1
    9    37	 1
    9    12	 1
    9    44	 1
    9    45	 1
   10    38	 1
   10    39	 1
   10    13	 1
   10    46	 1
   10    47	 1
   11    40	 1
   11    41	 1
   11    14	 1
   11    48	 1
   11    49	 1
   12    42	 1
   12    43	 1
   12    15	 1
   12    50	 1
   12    51	 1
   13    44	 1
   13    45	 1
   13    16	 1
   13    52	 1
   13    53	 1
   14    46	 1
   14    47	 1
   14    17	 1
   14    54	 1
   14    55	 1
   15    48	 1
   15    49	 1
   15    18	 1
   15    56	 1
   15    57	 1
   16    50	 1
   16    51	 1
   16    22	 1
   16    58	 1
   16    59	 1
   17    52	 1
   17    53	 1
   17    19	 1
   18    54	 1
   18    55	 1
   18    20	 1
   18    21	 1
   18    94	 1
   19    58	 1
   19    59	 1
   19    68	 1
   19   105	 1
   19   106	 1
   20    63	 1
   20    64	 1
   20    65	 1
   20    67	 1
   21    60	 1
   21    61	 1
   21    62	 1
   21    67	 1
   22    56	 1
   22    57	 1
   22    60	 1
   22    61	 1
   22    62	 1
   22    63	 1
   22    64	 1
   22    65	 1
   22    67	 1
   23    26	 1
   23    27	 1
   24    26	 1
   24    27	 1
   25    26	 1
   25    27	 1
   26    28	 1
   26    29	 1
   27    28	 1
   27    29	 1
   28    30	 1
   28    31	 1
   29    30	 1
   29    31	 1
   30    32	 1
   30    33	 1
   31    32	 1
   31    33	 1
   32    34	 1
   32    35	 1
   33    34	 1
   33    35	 1
   34    36	 1
   34    37	 1
   35    36	 1
   35    37	 1
   36    38	 1
   36    39	 1
   37    38	 1
   37    39	 1
   38    40	 1
   38    41	 1
   39    40	 1
   39    41	 1
   40    42	 1
   40    43	 1
   41    42	 1
   41    43	 1
   42    44	 1
   42    45	 1
   43    44	 1
   43    45	 1
   44    46	 1
   44    47	 1
   45    46	 1
   45    47	 1
   46    48	 1
   46    49	 1
   47    48	 1
   47    49	 1
   48    50	 1
   48    51	 1
   49    50	 1
   49    51	 1
   50    52	 1
   50    53	 1
   51    52	 1
   51    53	 1
   52    54	 1
   52    55	 1
   53    54	 1
   53    55	 1
   54    56	 1
   54    57	 1
   55    56	 1
   55    57	 1
   56    58	 1
   56    59	 1
   57    58	 1
   57    59	 1
   60    94	 1
   61    94	 1
   62    94	 1
   63    94	 1
   64    94	 1
   65    94	 1
   66    87	 1
   66   120	 1
   66   121	 1
   66    91	 1
   66   103	 1
   66   125	 1
   67    70	 1
   67    93	 1
   67    96	 1
   68    71	 1
   68   108	 1
   68   109	 1
   68    86	 1
   68   131	 1
   68   132	 1
   68   107	 1
   69   105	 1
   69   106	 1
   69    94	 1
   69    72	 1
   69    85	 1
   69   102	 1
   69   118	 1
   70    95	 1
   70    86	 1
   70   131	 1
   70   132	 1
   70   107	 1
   70    73	 1
   70    97	 1
   70    84	 1
   71    93	 1
   71    96	 1
   71    74	 1
   71    83	 1
   71   110	 1
   71   101	 1
   71   102	 1
   71   118	 1
   72   108	 1
   72   109	 1
   72    84	 1
   72    86	 1
   72    75	 1
   72    98	 1
   72    82	 1
   73    85	 1
   73   110	 1
   73    76	 1
   73    81	 1
   73   100	 1
   73   101	 1
   74    97	 1
   74    82	 1
   74    84	 1
   74    77	 1
   74   111	 1
   74    79	 1
   75    83	 1
   75    78	 1
   75   112	 1
   75    99	 1
   75   100	 1
   76    98	 1
   76    79	 1
   76    82	 1
   76   113	 1
   77    81	 1
   77    99	 1
   78   111	 1
   78    82	 1
   78    80	 1
   79   112	 1
   79   114	 1
   79   115	 1
   79   116	 1
   79    83	 1
   79   100	 1
   80    81	 1
   81    98	 1
   81   111	 1
   81   113	 1
   81    84	 1
   82    99	 1
   82    85	 1
   82   101	 1
   83    97	 1
   83    98	 1
   83    86	 1
   83   117	 1
   84   100	 1
   84    93	 1
   84   102	 1
   84   118	 1
   85   108	 1
   85   109	 1
   85    97	 1
   85   117	 1
   85   131	 1
   85   132	 1
   85    87	 1
   86    96	 1
   86   101	 1
   86    88	 1
   86   104	 1
   86   119	 1
   87    93	 1
   87   118	 1
   87    90	 1
   87   122	 1
   87    92	 1
   87   127	 1
   88   123	 1
   88   124	 1
   88    91	 1
   88   103	 1
   88   125	 1
   89   104	 1
   89   119	 1
   89   102	 1
   89    92	 1
   89   127	 1
   89   126	 1
   90   123	 1
   90   124	 1
   90   120	 1
   90   121	 1
   90   128	 1
   90   129	 1
   90   130	 1
   91   119	 1
   91   102	 1
   91   122	 1
   91   126	 1
   92   103	 1
   92   125	 1
   93    95	 1
   93   108	 1
   93   109	 1
   93   107	 1
   94    95	 1
   95   105	 1
   95   106	 1
   95    96	 1
   96   108	 1
   96   109	 1
   96   131	 1
   96   132	 1
   99   113	 1
  102   131	 1
  102   132	 1
  102   120	 1
  102   121	 1
  103   122	 1
  103   104	 1
  103   127	 1
  104   120	 1
  104   121	 1
  104   125	 1
  104   128	 1
  104   129	 1
  104   130	 1
  111   112	 1
  112   113	 1
  118   131	 1
  118   132	 1
  119   120	 1
  119   121	 1
  120   122	 1
  121   122	 1
  122   123	 1
  122   124	 1
  122   125	 1
  125   127	 1
  125   126	 1
  127   128	 1
  127   129	 1
  127   130	 1

[ angles ]
;	ai	  aj	ak funct			c0			  c1			c2			  c3
    2     1    23	5 ;      CG321      CG331       HGA3
    2     1    24	5 ;      CG321      CG331       HGA3
    2     1    25	5 ;      CG321      CG331       HGA3
   23     1    24	5 ;       HGA3      CG331       HGA3
   23     1    25	5 ;       HGA3      CG331       HGA3
   24     1    25	5 ;       HGA3      CG331       HGA3
    1     2     3	5 ;      CG331      CG321      CG321
    1     2    26	5 ;      CG331      CG321       HGA2
    1     2    27	5 ;      CG331      CG321       HGA2
    3     2    26	5 ;      CG321      CG321       HGA2
    3     2    27	5 ;      CG321      CG321       HGA2
   26     2    27	5 ;       HGA2      CG321       HGA2
    2     3     4	5 ;      CG321      CG321      CG321
    2     3    28	5 ;      CG321      CG321       HGA2
    2     3    29	5 ;      CG321      CG321       HGA2
    4     3    28	5 ;      CG321      CG321       HGA2
    4     3    29	5 ;      CG321      CG321       HGA2
   28     3    29	5 ;       HGA2      CG321       HGA2
    3     4     5	5 ;      CG321      CG321      CG321
    3     4    30	5 ;      CG321      CG321       HGA2
    3     4    31	5 ;      CG321      CG321       HGA2
    5     4    30	5 ;      CG321      CG321       HGA2
    5     4    31	5 ;      CG321      CG321       HGA2
   30     4    31	5 ;       HGA2      CG321       HGA2
    4     5     6	5 ;      CG321      CG321      CG321
    4     5    32	5 ;      CG321      CG321       HGA2
    4     5    33	5 ;      CG321      CG321       HGA2
    6     5    32	5 ;      CG321      CG321       HGA2
    6     5    33	5 ;      CG321      CG321       HGA2
   32     5    33	5 ;       HGA2      CG321       HGA2
    5     6     7	5 ;      CG321      CG321      CG321
    5     6    34	5 ;      CG321      CG321       HGA2
    5     6    35	5 ;      CG321      CG321       HGA2
    7     6    34	5 ;      CG321      CG321       HGA2
    7     6    35	5 ;      CG321      CG321       HGA2
   34     6    35	5 ;       HGA2      CG321       HGA2
    6     7     8	5 ;      CG321      CG321      CG321
    6     7    36	5 ;      CG321      CG321       HGA2
    6     7    37	5 ;      CG321      CG321       HGA2
    8     7    36	5 ;      CG321      CG321       HGA2
    8     7    37	5 ;      CG321      CG321       HGA2
   36     7    37	5 ;       HGA2      CG321       HGA2
    7     8     9	5 ;      CG321      CG321      CG321
    7     8    38	5 ;      CG321      CG321       HGA2
    7     8    39	5 ;      CG321      CG321       HGA2
    9     8    38	5 ;      CG321      CG321       HGA2
    9     8    39	5 ;      CG321      CG321       HGA2
   38     8    39	5 ;       HGA2      CG321       HGA2
    8     9    10	5 ;      CG321      CG321      CG321
    8     9    40	5 ;      CG321      CG321       HGA2
    8     9    41	5 ;      CG321      CG321       HGA2
   10     9    40	5 ;      CG321      CG321       HGA2
   10     9    41	5 ;      CG321      CG321       HGA2
   40     9    41	5 ;       HGA2      CG321       HGA2
    9    10    11	5 ;      CG321      CG321      CG321
    9    10    42	5 ;      CG321      CG321       HGA2
    9    10    43	5 ;      CG321      CG321       HGA2
   11    10    42	5 ;      CG321      CG321       HGA2
   11    10    43	5 ;      CG321      CG321       HGA2
   42    10    43	5 ;       HGA2      CG321       HGA2
   10    11    12	5 ;      CG321      CG321      CG321
   10    11    44	5 ;      CG321      CG321       HGA2
   10    11    45	5 ;      CG321      CG321       HGA2
   12    11    44	5 ;      CG321      CG321       HGA2
   12    11    45	5 ;      CG321      CG321       HGA2
   44    11    45	5 ;       HGA2      CG321       HGA2
   11    12    13	5 ;      CG321      CG321      CG321
   11    12    46	5 ;      CG321      CG321       HGA2
   11    12    47	5 ;      CG321      CG321       HGA2
   13    12    46	5 ;      CG321      CG321       HGA2
   13    12    47	5 ;      CG321      CG321       HGA2
   46    12    47	5 ;       HGA2      CG321       HGA2
   12    13    14	5 ;      CG321      CG321      CG321
   12    13    48	5 ;      CG321      CG321       HGA2
   12    13    49	5 ;      CG321      CG321       HGA2
   14    13    48	5 ;      CG321      CG321       HGA2
   14    13    49	5 ;      CG321      CG321       HGA2
   48    13    49	5 ;       HGA2      CG321       HGA2
   13    14    15	5 ;      CG321      CG321      CG321
   13    14    50	5 ;      CG321      CG321       HGA2
   13    14    51	5 ;      CG321      CG321       HGA2
   15    14    50	5 ;      CG321      CG321       HGA2
   15    14    51	5 ;      CG321      CG321       HGA2
   50    14    51	5 ;       HGA2      CG321       HGA2
   14    15    16	5 ;      CG321      CG321      CG321
   14    15    52	5 ;      CG321      CG321       HGA2
   14    15    53	5 ;      CG321      CG321       HGA2
   16    15    52	5 ;      CG321      CG321       HGA2
   16    15    53	5 ;      CG321      CG321       HGA2
   52    15    53	5 ;       HGA2      CG321       HGA2
   15    16    17	5 ;      CG321      CG321      CG321
   15    16    54	5 ;      CG321      CG321       HGA2
   15    16    55	5 ;      CG321      CG321       HGA2
   17    16    54	5 ;      CG321      CG321       HGA2
   17    16    55	5 ;      CG321      CG321       HGA2
   54    16    55	5 ;       HGA2      CG321       HGA2
   16    17    18	5 ;      CG321      CG321      CG321
   16    17    56	5 ;      CG321      CG321       HGA2
   16    17    57	5 ;      CG321      CG321       HGA2
   18    17    56	5 ;      CG321      CG321       HGA2
   18    17    57	5 ;      CG321      CG321       HGA2
   56    17    57	5 ;       HGA2      CG321       HGA2
   17    18    22	5 ;      CG321      CG321      OG301
   17    18    58	5 ;      CG321      CG321       HGA2
   17    18    59	5 ;      CG321      CG321       HGA2
   22    18    58	5 ;      OG301      CG321       HGA2
   22    18    59	5 ;      OG301      CG321       HGA2
   58    18    59	5 ;       HGA2      CG321       HGA2
   20    19    21	5 ;      CG331      CG301      CG331
   20    19    94	5 ;      CG331      CG301      OG301
   20    19    22	5 ;      CG331      CG301      OG301
   21    19    94	5 ;      CG331      CG301      OG301
   21    19    22	5 ;      CG331      CG301      OG301
   94    19    22	5 ;      OG301      CG301      OG301
   19    20    60	5 ;      CG301      CG331       HGA3
   19    20    61	5 ;      CG301      CG331       HGA3
   19    20    62	5 ;      CG301      CG331       HGA3
   60    20    61	5 ;       HGA3      CG331       HGA3
   60    20    62	5 ;       HGA3      CG331       HGA3
   61    20    62	5 ;       HGA3      CG331       HGA3
   19    21    63	5 ;      CG301      CG331       HGA3
   19    21    64	5 ;      CG301      CG331       HGA3
   19    21    65	5 ;      CG301      CG331       HGA3
   63    21    64	5 ;       HGA3      CG331       HGA3
   63    21    65	5 ;       HGA3      CG331       HGA3
   64    21    65	5 ;       HGA3      CG331       HGA3
   18    22    19	5 ;      CG321      OG301      CG301
  123    66   124	5 ;     HGPAM2      NG321     HGPAM2
  123    66    89	5 ;     HGPAM2      NG321      CG311
  124    66    89	5 ;     HGPAM2      NG321      CG311
   68    67   105	5 ;      CG2O5      CG321       HGA2
   68    67   106	5 ;      CG2O5      CG321       HGA2
   68    67    94	5 ;      CG2O5      CG321      OG301
  105    67   106	5 ;       HGA2      CG321       HGA2
  105    67    94	5 ;       HGA2      CG321      OG301
  106    67    94	5 ;       HGA2      CG321      OG301
   67    68    69	5 ;      CG321      CG2O5      CG301
   67    68    95	5 ;      CG321      CG2O5      OG2D3
   69    68    95	5 ;      CG301      CG2O5      OG2D3
   68    69    70	5 ;      CG2O5      CG301      CG321
   68    69    93	5 ;      CG2O5      CG301      CG321
   68    69    96	5 ;      CG2O5      CG301      OG311
   70    69    93	5 ;      CG321      CG301      CG321
   70    69    96	5 ;      CG321      CG301      OG311
   93    69    96	5 ;      CG321      CG301      OG311
   69    70    71	5 ;      CG301      CG321     CG2R61
   69    70   108	5 ;      CG301      CG321       HGA2
   69    70   109	5 ;      CG301      CG321       HGA2
   71    70   108	5 ;     CG2R61      CG321       HGA2
   71    70   109	5 ;     CG2R61      CG321       HGA2
  108    70   109	5 ;       HGA2      CG321       HGA2
   70    71    72	5 ;      CG321     CG2R61     CG2R61
   70    71    85	5 ;      CG321     CG2R61     CG2R61
   72    71    85	5 ;     CG2R61     CG2R61     CG2R61
   71    72    73	5 ;     CG2R61     CG2R61     CG2R61
   71    72    97	5 ;     CG2R61     CG2R61      OG311
   73    72    97	5 ;     CG2R61     CG2R61      OG311
   72    73    74	5 ;     CG2R61     CG2R61      CG2O5
   72    73    83	5 ;     CG2R61     CG2R61     CG2R61
   74    73    83	5 ;      CG2O5     CG2R61     CG2R61
   73    74    75	5 ;     CG2R61      CG2O5     CG2R61
   73    74    98	5 ;     CG2R61      CG2O5      OG2D3
   75    74    98	5 ;     CG2R61      CG2O5      OG2D3
   74    75    76	5 ;      CG2O5     CG2R61     CG2R61
   74    75    81	5 ;      CG2O5     CG2R61     CG2R61
   76    75    81	5 ;     CG2R61     CG2R61     CG2R61
   75    76    77	5 ;     CG2R61     CG2R61     CG2R61
   75    76   111	5 ;     CG2R61     CG2R61      HGR61
   77    76   111	5 ;     CG2R61     CG2R61      HGR61
   76    77    78	5 ;     CG2R61     CG2R61     CG2R61
   76    77   112	5 ;     CG2R61     CG2R61      HGR61
   78    77   112	5 ;     CG2R61     CG2R61      HGR61
   77    78    79	5 ;     CG2R61     CG2R61     CG2R61
   77    78   113	5 ;     CG2R61     CG2R61      HGR61
   79    78   113	5 ;     CG2R61     CG2R61      HGR61
   78    79    81	5 ;     CG2R61     CG2R61     CG2R61
   78    79    99	5 ;     CG2R61     CG2R61      OG301
   81    79    99	5 ;     CG2R61     CG2R61      OG301
  114    80   115	5 ;       HGA3      CG331       HGA3
  114    80   116	5 ;       HGA3      CG331       HGA3
  114    80    99	5 ;       HGA3      CG331      OG301
  115    80   116	5 ;       HGA3      CG331       HGA3
  115    80    99	5 ;       HGA3      CG331      OG301
  116    80    99	5 ;       HGA3      CG331      OG301
   75    81    79	5 ;     CG2R61     CG2R61     CG2R61
   75    81    82	5 ;     CG2R61     CG2R61      CG2O5
   79    81    82	5 ;     CG2R61     CG2R61      CG2O5
   81    82    83	5 ;     CG2R61      CG2O5     CG2R61
   81    82   100	5 ;     CG2R61      CG2O5      OG2D3
   83    82   100	5 ;     CG2R61      CG2O5      OG2D3
   73    83    82	5 ;     CG2R61     CG2R61      CG2O5
   73    83    84	5 ;     CG2R61     CG2R61     CG2R61
   82    83    84	5 ;      CG2O5     CG2R61     CG2R61
   83    84    85	5 ;     CG2R61     CG2R61     CG2R61
   83    84   101	5 ;     CG2R61     CG2R61      OG311
   85    84   101	5 ;     CG2R61     CG2R61      OG311
   71    85    84	5 ;     CG2R61     CG2R61     CG2R61
   71    85    86	5 ;     CG2R61     CG2R61      CG311
   84    85    86	5 ;     CG2R61     CG2R61      CG311
   85    86    93	5 ;     CG2R61      CG311      CG321
   85    86   102	5 ;     CG2R61      CG311      OG301
   85    86   118	5 ;     CG2R61      CG311       HGA1
   93    86   102	5 ;      CG321      CG311      OG301
   93    86   118	5 ;      CG321      CG311       HGA1
  102    86   118	5 ;      OG301      CG311       HGA1
   88    87   104	5 ;      CG321      CG311     OG3C61
   88    87   119	5 ;      CG321      CG311       HGA1
   88    87   102	5 ;      CG321      CG311      OG301
  104    87   119	5 ;     OG3C61      CG311       HGA1
  104    87   102	5 ;     OG3C61      CG311      OG301
  119    87   102	5 ;       HGA1      CG311      OG301
   87    88    89	5 ;      CG311      CG321      CG311
   87    88   120	5 ;      CG311      CG321       HGA2
   87    88   121	5 ;      CG311      CG321       HGA2
   89    88   120	5 ;      CG311      CG321       HGA2
   89    88   121	5 ;      CG311      CG321       HGA2
  120    88   121	5 ;       HGA2      CG321       HGA2
   88    89    66	5 ;      CG321      CG311      NG321
   88    89    90	5 ;      CG321      CG311      CG311
   88    89   122	5 ;      CG321      CG311       HGA1
   66    89    90	5 ;      NG321      CG311      CG311
   66    89   122	5 ;      NG321      CG311       HGA1
   90    89   122	5 ;      CG311      CG311       HGA1
   89    90    91	5 ;      CG311      CG311      CG311
   89    90   103	5 ;      CG311      CG311      OG311
   89    90   125	5 ;      CG311      CG311       HGA1
   91    90   103	5 ;      CG311      CG311      OG311
   91    90   125	5 ;      CG311      CG311       HGA1
  103    90   125	5 ;      OG311      CG311       HGA1
   90    91    92	5 ;      CG311      CG311      CG331
   90    91   104	5 ;      CG311      CG311     OG3C61
   90    91   127	5 ;      CG311      CG311       HGA1
   92    91   104	5 ;      CG331      CG311     OG3C61
   92    91   127	5 ;      CG331      CG311       HGA1
  104    91   127	5 ;     OG3C61      CG311       HGA1
   91    92   128	5 ;      CG311      CG331       HGA3
   91    92   129	5 ;      CG311      CG331       HGA3
   91    92   130	5 ;      CG311      CG331       HGA3
  128    92   129	5 ;       HGA3      CG331       HGA3
  128    92   130	5 ;       HGA3      CG331       HGA3
  129    92   130	5 ;       HGA3      CG331       HGA3
   69    93    86	5 ;      CG301      CG321      CG311
   69    93   131	5 ;      CG301      CG321       HGA2
   69    93   132	5 ;      CG301      CG321       HGA2
   86    93   131	5 ;      CG311      CG321       HGA2
   86    93   132	5 ;      CG311      CG321       HGA2
  131    93   132	5 ;       HGA2      CG321       HGA2
   19    94    67	5 ;      CG301      OG301      CG321
   69    96   107	5 ;      CG301      OG311       HGP1
   72    97   110	5 ;     CG2R61      OG311       HGP1
   79    99    80	5 ;     CG2R61      OG301      CG331
   84   101   117	5 ;     CG2R61      OG311       HGP1
   86   102    87	5 ;      CG311      OG301      CG311
   90   103   126	5 ;      CG311      OG311       HGP1
   87   104    91	5 ;      CG311     OG3C61      CG311

[ dihedrals ]
;	ai	  aj	ak	  al funct			  c0			c1			  c2			c3			  c4			c5
   23     1     2     3	 9 ;       HGA3      CG331      CG321      CG321
   23     1     2    26	 9 ;       HGA3      CG331      CG321       HGA2
   23     1     2    27	 9 ;       HGA3      CG331      CG321       HGA2
   24     1     2     3	 9 ;       HGA3      CG331      CG321      CG321
   24     1     2    26	 9 ;       HGA3      CG331      CG321       HGA2
   24     1     2    27	 9 ;       HGA3      CG331      CG321       HGA2
   25     1     2     3	 9 ;       HGA3      CG331      CG321      CG321
   25     1     2    26	 9 ;       HGA3      CG331      CG321       HGA2
   25     1     2    27	 9 ;       HGA3      CG331      CG321       HGA2
    1     2     3     4	 9 ;      CG331      CG321      CG321      CG321
    1     2     3    28	 9 ;      CG331      CG321      CG321       HGA2
    1     2     3    29	 9 ;      CG331      CG321      CG321       HGA2
   26     2     3     4	 9 ;       HGA2      CG321      CG321      CG321
   26     2     3    28	 9 ;       HGA2      CG321      CG321       HGA2
   26     2     3    29	 9 ;       HGA2      CG321      CG321       HGA2
   27     2     3     4	 9 ;       HGA2      CG321      CG321      CG321
   27     2     3    28	 9 ;       HGA2      CG321      CG321       HGA2
   27     2     3    29	 9 ;       HGA2      CG321      CG321       HGA2
    2     3     4     5	 9 ;      CG321      CG321      CG321      CG321
    2     3     4    30	 9 ;      CG321      CG321      CG321       HGA2
    2     3     4    31	 9 ;      CG321      CG321      CG321       HGA2
   28     3     4     5	 9 ;       HGA2      CG321      CG321      CG321
   28     3     4    30	 9 ;       HGA2      CG321      CG321       HGA2
   28     3     4    31	 9 ;       HGA2      CG321      CG321       HGA2
   29     3     4     5	 9 ;       HGA2      CG321      CG321      CG321
   29     3     4    30	 9 ;       HGA2      CG321      CG321       HGA2
   29     3     4    31	 9 ;       HGA2      CG321      CG321       HGA2
    3     4     5     6	 9 ;      CG321      CG321      CG321      CG321
    3     4     5    32	 9 ;      CG321      CG321      CG321       HGA2
    3     4     5    33	 9 ;      CG321      CG321      CG321       HGA2
   30     4     5     6	 9 ;       HGA2      CG321      CG321      CG321
   30     4     5    32	 9 ;       HGA2      CG321      CG321       HGA2
   30     4     5    33	 9 ;       HGA2      CG321      CG321       HGA2
   31     4     5     6	 9 ;       HGA2      CG321      CG321      CG321
   31     4     5    32	 9 ;       HGA2      CG321      CG321       HGA2
   31     4     5    33	 9 ;       HGA2      CG321      CG321       HGA2
    4     5     6     7	 9 ;      CG321      CG321      CG321      CG321
    4     5     6    34	 9 ;      CG321      CG321      CG321       HGA2
    4     5     6    35	 9 ;      CG321      CG321      CG321       HGA2
   32     5     6     7	 9 ;       HGA2      CG321      CG321      CG321
   32     5     6    34	 9 ;       HGA2      CG321      CG321       HGA2
   32     5     6    35	 9 ;       HGA2      CG321      CG321       HGA2
   33     5     6     7	 9 ;       HGA2      CG321      CG321      CG321
   33     5     6    34	 9 ;       HGA2      CG321      CG321       HGA2
   33     5     6    35	 9 ;       HGA2      CG321      CG321       HGA2
    5     6     7     8	 9 ;      CG321      CG321      CG321      CG321
    5     6     7    36	 9 ;      CG321      CG321      CG321       HGA2
    5     6     7    37	 9 ;      CG321      CG321      CG321       HGA2
   34     6     7     8	 9 ;       HGA2      CG321      CG321      CG321
   34     6     7    36	 9 ;       HGA2      CG321      CG321       HGA2
   34     6     7    37	 9 ;       HGA2      CG321      CG321       HGA2
   35     6     7     8	 9 ;       HGA2      CG321      CG321      CG321
   35     6     7    36	 9 ;       HGA2      CG321      CG321       HGA2
   35     6     7    37	 9 ;       HGA2      CG321      CG321       HGA2
    6     7     8     9	 9 ;      CG321      CG321      CG321      CG321
    6     7     8    38	 9 ;      CG321      CG321      CG321       HGA2
    6     7     8    39	 9 ;      CG321      CG321      CG321       HGA2
   36     7     8     9	 9 ;       HGA2      CG321      CG321      CG321
   36     7     8    38	 9 ;       HGA2      CG321      CG321       HGA2
   36     7     8    39	 9 ;       HGA2      CG321      CG321       HGA2
   37     7     8     9	 9 ;       HGA2      CG321      CG321      CG321
   37     7     8    38	 9 ;       HGA2      CG321      CG321       HGA2
   37     7     8    39	 9 ;       HGA2      CG321      CG321       HGA2
    7     8     9    10	 9 ;      CG321      CG321      CG321      CG321
    7     8     9    40	 9 ;      CG321      CG321      CG321       HGA2
    7     8     9    41	 9 ;      CG321      CG321      CG321       HGA2
   38     8     9    10	 9 ;       HGA2      CG321      CG321      CG321
   38     8     9    40	 9 ;       HGA2      CG321      CG321       HGA2
   38     8     9    41	 9 ;       HGA2      CG321      CG321       HGA2
   39     8     9    10	 9 ;       HGA2      CG321      CG321      CG321
   39     8     9    40	 9 ;       HGA2      CG321      CG321       HGA2
   39     8     9    41	 9 ;       HGA2      CG321      CG321       HGA2
    8     9    10    11	 9 ;      CG321      CG321      CG321      CG321
    8     9    10    42	 9 ;      CG321      CG321      CG321       HGA2
    8     9    10    43	 9 ;      CG321      CG321      CG321       HGA2
   40     9    10    11	 9 ;       HGA2      CG321      CG321      CG321
   40     9    10    42	 9 ;       HGA2      CG321      CG321       HGA2
   40     9    10    43	 9 ;       HGA2      CG321      CG321       HGA2
   41     9    10    11	 9 ;       HGA2      CG321      CG321      CG321
   41     9    10    42	 9 ;       HGA2      CG321      CG321       HGA2
   41     9    10    43	 9 ;       HGA2      CG321      CG321       HGA2
    9    10    11    12	 9 ;      CG321      CG321      CG321      CG321
    9    10    11    44	 9 ;      CG321      CG321      CG321       HGA2
    9    10    11    45	 9 ;      CG321      CG321      CG321       HGA2
   42    10    11    12	 9 ;       HGA2      CG321      CG321      CG321
   42    10    11    44	 9 ;       HGA2      CG321      CG321       HGA2
   42    10    11    45	 9 ;       HGA2      CG321      CG321       HGA2
   43    10    11    12	 9 ;       HGA2      CG321      CG321      CG321
   43    10    11    44	 9 ;       HGA2      CG321      CG321       HGA2
   43    10    11    45	 9 ;       HGA2      CG321      CG321       HGA2
   10    11    12    13	 9 ;      CG321      CG321      CG321      CG321
   10    11    12    46	 9 ;      CG321      CG321      CG321       HGA2
   10    11    12    47	 9 ;      CG321      CG321      CG321       HGA2
   44    11    12    13	 9 ;       HGA2      CG321      CG321      CG321
   44    11    12    46	 9 ;       HGA2      CG321      CG321       HGA2
   44    11    12    47	 9 ;       HGA2      CG321      CG321       HGA2
   45    11    12    13	 9 ;       HGA2      CG321      CG321      CG321
   45    11    12    46	 9 ;       HGA2      CG321      CG321       HGA2
   45    11    12    47	 9 ;       HGA2      CG321      CG321       HGA2
   11    12    13    14	 9 ;      CG321      CG321      CG321      CG321
   11    12    13    48	 9 ;      CG321      CG321      CG321       HGA2
   11    12    13    49	 9 ;      CG321      CG321      CG321       HGA2
   46    12    13    14	 9 ;       HGA2      CG321      CG321      CG321
   46    12    13    48	 9 ;       HGA2      CG321      CG321       HGA2
   46    12    13    49	 9 ;       HGA2      CG321      CG321       HGA2
   47    12    13    14	 9 ;       HGA2      CG321      CG321      CG321
   47    12    13    48	 9 ;       HGA2      CG321      CG321       HGA2
   47    12    13    49	 9 ;       HGA2      CG321      CG321       HGA2
   12    13    14    15	 9 ;      CG321      CG321      CG321      CG321
   12    13    14    50	 9 ;      CG321      CG321      CG321       HGA2
   12    13    14    51	 9 ;      CG321      CG321      CG321       HGA2
   48    13    14    15	 9 ;       HGA2      CG321      CG321      CG321
   48    13    14    50	 9 ;       HGA2      CG321      CG321       HGA2
   48    13    14    51	 9 ;       HGA2      CG321      CG321       HGA2
   49    13    14    15	 9 ;       HGA2      CG321      CG321      CG321
   49    13    14    50	 9 ;       HGA2      CG321      CG321       HGA2
   49    13    14    51	 9 ;       HGA2      CG321      CG321       HGA2
   13    14    15    16	 9 ;      CG321      CG321      CG321      CG321
   13    14    15    52	 9 ;      CG321      CG321      CG321       HGA2
   13    14    15    53	 9 ;      CG321      CG321      CG321       HGA2
   50    14    15    16	 9 ;       HGA2      CG321      CG321      CG321
   50    14    15    52	 9 ;       HGA2      CG321      CG321       HGA2
   50    14    15    53	 9 ;       HGA2      CG321      CG321       HGA2
   51    14    15    16	 9 ;       HGA2      CG321      CG321      CG321
   51    14    15    52	 9 ;       HGA2      CG321      CG321       HGA2
   51    14    15    53	 9 ;       HGA2      CG321      CG321       HGA2
   14    15    16    17	 9 ;      CG321      CG321      CG321      CG321
   14    15    16    54	 9 ;      CG321      CG321      CG321       HGA2
   14    15    16    55	 9 ;      CG321      CG321      CG321       HGA2
   52    15    16    17	 9 ;       HGA2      CG321      CG321      CG321
   52    15    16    54	 9 ;       HGA2      CG321      CG321       HGA2
   52    15    16    55	 9 ;       HGA2      CG321      CG321       HGA2
   53    15    16    17	 9 ;       HGA2      CG321      CG321      CG321
   53    15    16    54	 9 ;       HGA2      CG321      CG321       HGA2
   53    15    16    55	 9 ;       HGA2      CG321      CG321       HGA2
   15    16    17    18	 9 ;      CG321      CG321      CG321      CG321
   15    16    17    56	 9 ;      CG321      CG321      CG321       HGA2
   15    16    17    57	 9 ;      CG321      CG321      CG321       HGA2
   54    16    17    18	 9 ;       HGA2      CG321      CG321      CG321
   54    16    17    56	 9 ;       HGA2      CG321      CG321       HGA2
   54    16    17    57	 9 ;       HGA2      CG321      CG321       HGA2
   55    16    17    18	 9 ;       HGA2      CG321      CG321      CG321
   55    16    17    56	 9 ;       HGA2      CG321      CG321       HGA2
   55    16    17    57	 9 ;       HGA2      CG321      CG321       HGA2
   16    17    18    22	 9 ;      CG321      CG321      CG321      OG301
   16    17    18    58	 9 ;      CG321      CG321      CG321       HGA2
   16    17    18    59	 9 ;      CG321      CG321      CG321       HGA2
   56    17    18    22	 9 ;       HGA2      CG321      CG321      OG301
   56    17    18    58	 9 ;       HGA2      CG321      CG321       HGA2
   56    17    18    59	 9 ;       HGA2      CG321      CG321       HGA2
   57    17    18    22	 9 ;       HGA2      CG321      CG321      OG301
   57    17    18    58	 9 ;       HGA2      CG321      CG321       HGA2
   57    17    18    59	 9 ;       HGA2      CG321      CG321       HGA2
   17    18    22    19	 9 ;      CG321      CG321      OG301      CG301
   58    18    22    19	 9 ;       HGA2      CG321      OG301      CG301
   59    18    22    19	 9 ;       HGA2      CG321      OG301      CG301
   21    19    20    60	 9 ;      CG331      CG301      CG331       HGA3
   21    19    20    61	 9 ;      CG331      CG301      CG331       HGA3
   21    19    20    62	 9 ;      CG331      CG301      CG331       HGA3
   94    19    20    60	 9 ;      OG301      CG301      CG331       HGA3
   94    19    20    61	 9 ;      OG301      CG301      CG331       HGA3
   94    19    20    62	 9 ;      OG301      CG301      CG331       HGA3
   22    19    20    60	 9 ;      OG301      CG301      CG331       HGA3
   22    19    20    61	 9 ;      OG301      CG301      CG331       HGA3
   22    19    20    62	 9 ;      OG301      CG301      CG331       HGA3
   20    19    21    63	 9 ;      CG331      CG301      CG331       HGA3
   20    19    21    64	 9 ;      CG331      CG301      CG331       HGA3
   20    19    21    65	 9 ;      CG331      CG301      CG331       HGA3
   94    19    21    63	 9 ;      OG301      CG301      CG331       HGA3
   94    19    21    64	 9 ;      OG301      CG301      CG331       HGA3
   94    19    21    65	 9 ;      OG301      CG301      CG331       HGA3
   22    19    21    63	 9 ;      OG301      CG301      CG331       HGA3
   22    19    21    64	 9 ;      OG301      CG301      CG331       HGA3
   22    19    21    65	 9 ;      OG301      CG301      CG331       HGA3
   20    19    94    67	 9 ;      CG331      CG301      OG301      CG321
   21    19    94    67	 9 ;      CG331      CG301      OG301      CG321
   22    19    94    67	 9 ;      OG301      CG301      OG301      CG321
   20    19    22    18	 9 ;      CG331      CG301      OG301      CG321
   21    19    22    18	 9 ;      CG331      CG301      OG301      CG321
   94    19    22    18	 9 ;      OG301      CG301      OG301      CG321
  123    66    89    88	 9 ;     HGPAM2      NG321      CG311      CG321
  123    66    89    90	 9 ;     HGPAM2      NG321      CG311      CG311
  123    66    89   122	 9 ;     HGPAM2      NG321      CG311       HGA1
  124    66    89    88	 9 ;     HGPAM2      NG321      CG311      CG321
  124    66    89    90	 9 ;     HGPAM2      NG321      CG311      CG311
  124    66    89   122	 9 ;     HGPAM2      NG321      CG311       HGA1
  105    67    68    69	 9 ;       HGA2      CG321      CG2O5      CG301
  105    67    68    95	 9 ;       HGA2      CG321      CG2O5      OG2D3
  106    67    68    69	 9 ;       HGA2      CG321      CG2O5      CG301
  106    67    68    95	 9 ;       HGA2      CG321      CG2O5      OG2D3
   94    67    68    69	 9 ;      OG301      CG321      CG2O5      CG301
   94    67    68    95	 9 ;      OG301      CG321      CG2O5      OG2D3
   68    67    94    19	 9 ;      CG2O5      CG321      OG301      CG301
  105    67    94    19	 9 ;       HGA2      CG321      OG301      CG301
  106    67    94    19	 9 ;       HGA2      CG321      OG301      CG301
   67    68    69    70	 9 ;      CG321      CG2O5      CG301      CG321
   67    68    69    93	 9 ;      CG321      CG2O5      CG301      CG321
   67    68    69    96	 9 ;      CG321      CG2O5      CG301      OG311
   95    68    69    70	 9 ;      OG2D3      CG2O5      CG301      CG321
   95    68    69    93	 9 ;      OG2D3      CG2O5      CG301      CG321
   95    68    69    96	 9 ;      OG2D3      CG2O5      CG301      OG311
   68    69    70    71	 9 ;      CG2O5      CG301      CG321     CG2R61
   68    69    70   108	 9 ;      CG2O5      CG301      CG321       HGA2
   68    69    70   109	 9 ;      CG2O5      CG301      CG321       HGA2
   93    69    70    71	 9 ;      CG321      CG301      CG321     CG2R61
   93    69    70   108	 9 ;      CG321      CG301      CG321       HGA2
   93    69    70   109	 9 ;      CG321      CG301      CG321       HGA2
   96    69    70    71	 9 ;      OG311      CG301      CG321     CG2R61
   96    69    70   108	 9 ;      OG311      CG301      CG321       HGA2
   96    69    70   109	 9 ;      OG311      CG301      CG321       HGA2
   68    69    93    86	 9 ;      CG2O5      CG301      CG321      CG311
   68    69    93   131	 9 ;      CG2O5      CG301      CG321       HGA2
   68    69    93   132	 9 ;      CG2O5      CG301      CG321       HGA2
   70    69    93    86	 9 ;      CG321      CG301      CG321      CG311
   70    69    93   131	 9 ;      CG321      CG301      CG321       HGA2
   70    69    93   132	 9 ;      CG321      CG301      CG321       HGA2
   96    69    93    86	 9 ;      OG311      CG301      CG321      CG311
   96    69    93   131	 9 ;      OG311      CG301      CG321       HGA2
   96    69    93   132	 9 ;      OG311      CG301      CG321       HGA2
   68    69    96   107	 9 ;      CG2O5      CG301      OG311       HGP1
   70    69    96   107	 9 ;      CG321      CG301      OG311       HGP1
   93    69    96   107	 9 ;      CG321      CG301      OG311       HGP1
   69    70    71    72	 9 ;      CG301      CG321     CG2R61     CG2R61
   69    70    71    85	 9 ;      CG301      CG321     CG2R61     CG2R61
  108    70    71    72	 9 ;       HGA2      CG321     CG2R61     CG2R61
  108    70    71    85	 9 ;       HGA2      CG321     CG2R61     CG2R61
  109    70    71    72	 9 ;       HGA2      CG321     CG2R61     CG2R61
  109    70    71    85	 9 ;       HGA2      CG321     CG2R61     CG2R61
   70    71    72    73	 9 ;      CG321     CG2R61     CG2R61     CG2R61
   70    71    72    97	 9 ;      CG321     CG2R61     CG2R61      OG311
   85    71    72    73	 9 ;     CG2R61     CG2R61     CG2R61     CG2R61
   85    71    72    97	 9 ;     CG2R61     CG2R61     CG2R61      OG311
   70    71    85    84	 9 ;      CG321     CG2R61     CG2R61     CG2R61
   70    71    85    86	 9 ;      CG321     CG2R61     CG2R61      CG311
   72    71    85    84	 9 ;     CG2R61     CG2R61     CG2R61     CG2R61
   72    71    85    86	 9 ;     CG2R61     CG2R61     CG2R61      CG311
   71    72    73    74	 9 ;     CG2R61     CG2R61     CG2R61      CG2O5
   71    72    73    83	 9 ;     CG2R61     CG2R61     CG2R61     CG2R61
   97    72    73    74	 9 ;      OG311     CG2R61     CG2R61      CG2O5
   97    72    73    83	 9 ;      OG311     CG2R61     CG2R61     CG2R61
   71    72    97   110	 9 ;     CG2R61     CG2R61      OG311       HGP1
   73    72    97   110	 9 ;     CG2R61     CG2R61      OG311       HGP1
   72    73    74    75	 9 ;     CG2R61     CG2R61      CG2O5     CG2R61
   72    73    74    98	 9 ;     CG2R61     CG2R61      CG2O5      OG2D3
   83    73    74    75	 9 ;     CG2R61     CG2R61      CG2O5     CG2R61
   83    73    74    98	 9 ;     CG2R61     CG2R61      CG2O5      OG2D3
   72    73    83    82	 9 ;     CG2R61     CG2R61     CG2R61      CG2O5
   72    73    83    84	 9 ;     CG2R61     CG2R61     CG2R61     CG2R61
   74    73    83    82	 9 ;      CG2O5     CG2R61     CG2R61      CG2O5
   74    73    83    84	 9 ;      CG2O5     CG2R61     CG2R61     CG2R61
   73    74    75    76	 9 ;     CG2R61      CG2O5     CG2R61     CG2R61
   73    74    75    81	 9 ;     CG2R61      CG2O5     CG2R61     CG2R61
   98    74    75    76	 9 ;      OG2D3      CG2O5     CG2R61     CG2R61
   98    74    75    81	 9 ;      OG2D3      CG2O5     CG2R61     CG2R61
   74    75    76    77	 9 ;      CG2O5     CG2R61     CG2R61     CG2R61
   74    75    76   111	 9 ;      CG2O5     CG2R61     CG2R61      HGR61
   81    75    76    77	 9 ;     CG2R61     CG2R61     CG2R61     CG2R61
   81    75    76   111	 9 ;     CG2R61     CG2R61     CG2R61      HGR61
   74    75    81    79	 9 ;      CG2O5     CG2R61     CG2R61     CG2R61
   74    75    81    82	 9 ;      CG2O5     CG2R61     CG2R61      CG2O5
   76    75    81    79	 9 ;     CG2R61     CG2R61     CG2R61     CG2R61
   76    75    81    82	 9 ;     CG2R61     CG2R61     CG2R61      CG2O5
   75    76    77    78	 9 ;     CG2R61     CG2R61     CG2R61     CG2R61
   75    76    77   112	 9 ;     CG2R61     CG2R61     CG2R61      HGR61
  111    76    77    78	 9 ;      HGR61     CG2R61     CG2R61     CG2R61
  111    76    77   112	 9 ;      HGR61     CG2R61     CG2R61      HGR61
   76    77    78    79	 9 ;     CG2R61     CG2R61     CG2R61     CG2R61
   76    77    78   113	 9 ;     CG2R61     CG2R61     CG2R61      HGR61
  112    77    78    79	 9 ;      HGR61     CG2R61     CG2R61     CG2R61
  112    77    78   113	 9 ;      HGR61     CG2R61     CG2R61      HGR61
   77    78    79    81	 9 ;     CG2R61     CG2R61     CG2R61     CG2R61
   77    78    79    99	 9 ;     CG2R61     CG2R61     CG2R61      OG301
  113    78    79    81	 9 ;      HGR61     CG2R61     CG2R61     CG2R61
  113    78    79    99	 9 ;      HGR61     CG2R61     CG2R61      OG301
   78    79    81    75	 9 ;     CG2R61     CG2R61     CG2R61     CG2R61
   78    79    81    82	 9 ;     CG2R61     CG2R61     CG2R61      CG2O5
   99    79    81    75	 9 ;      OG301     CG2R61     CG2R61     CG2R61
   99    79    81    82	 9 ;      OG301     CG2R61     CG2R61      CG2O5
   78    79    99    80	 9 ;     CG2R61     CG2R61      OG301      CG331
   81    79    99    80	 9 ;     CG2R61     CG2R61      OG301      CG331
  114    80    99    79	 9 ;       HGA3      CG331      OG301     CG2R61
  115    80    99    79	 9 ;       HGA3      CG331      OG301     CG2R61
  116    80    99    79	 9 ;       HGA3      CG331      OG301     CG2R61
   75    81    82    83	 9 ;     CG2R61     CG2R61      CG2O5     CG2R61
   75    81    82   100	 9 ;     CG2R61     CG2R61      CG2O5      OG2D3
   79    81    82    83	 9 ;     CG2R61     CG2R61      CG2O5     CG2R61
   79    81    82   100	 9 ;     CG2R61     CG2R61      CG2O5      OG2D3
   81    82    83    73	 9 ;     CG2R61      CG2O5     CG2R61     CG2R61
   81    82    83    84	 9 ;     CG2R61      CG2O5     CG2R61     CG2R61
  100    82    83    73	 9 ;      OG2D3      CG2O5     CG2R61     CG2R61
  100    82    83    84	 9 ;      OG2D3      CG2O5     CG2R61     CG2R61
   73    83    84    85	 9 ;     CG2R61     CG2R61     CG2R61     CG2R61
   73    83    84   101	 9 ;     CG2R61     CG2R61     CG2R61      OG311
   82    83    84    85	 9 ;      CG2O5     CG2R61     CG2R61     CG2R61
   82    83    84   101	 9 ;      CG2O5     CG2R61     CG2R61      OG311
   83    84    85    71	 9 ;     CG2R61     CG2R61     CG2R61     CG2R61
   83    84    85    86	 9 ;     CG2R61     CG2R61     CG2R61      CG311
  101    84    85    71	 9 ;      OG311     CG2R61     CG2R61     CG2R61
  101    84    85    86	 9 ;      OG311     CG2R61     CG2R61      CG311
   83    84   101   117	 9 ;     CG2R61     CG2R61      OG311       HGP1
   85    84   101   117	 9 ;     CG2R61     CG2R61      OG311       HGP1
   71    85    86    93	 9 ;     CG2R61     CG2R61      CG311      CG321
   71    85    86   102	 9 ;     CG2R61     CG2R61      CG311      OG301
   71    85    86   118	 9 ;     CG2R61     CG2R61      CG311       HGA1
   84    85    86    93	 9 ;     CG2R61     CG2R61      CG311      CG321
   84    85    86   102	 9 ;     CG2R61     CG2R61      CG311      OG301
   84    85    86   118	 9 ;     CG2R61     CG2R61      CG311       HGA1
   85    86    93    69	 9 ;     CG2R61      CG311      CG321      CG301
   85    86    93   131	 9 ;     CG2R61      CG311      CG321       HGA2
   85    86    93   132	 9 ;     CG2R61      CG311      CG321       HGA2
  102    86    93    69	 9 ;      OG301      CG311      CG321      CG301
  102    86    93   131	 9 ;      OG301      CG311      CG321       HGA2
  102    86    93   132	 9 ;      OG301      CG311      CG321       HGA2
  118    86    93    69	 9 ;       HGA1      CG311      CG321      CG301
  118    86    93   131	 9 ;       HGA1      CG311      CG321       HGA2
  118    86    93   132	 9 ;       HGA1      CG311      CG321       HGA2
   85    86   102    87	 9 ;     CG2R61      CG311      OG301      CG311
   93    86   102    87	 9 ;      CG321      CG311      OG301      CG311
  118    86   102    87	 9 ;       HGA1      CG311      OG301      CG311
  104    87    88    89	 9 ;     OG3C61      CG311      CG321      CG311
  104    87    88   120	 9 ;     OG3C61      CG311      CG321       HGA2
  104    87    88   121	 9 ;     OG3C61      CG311      CG321       HGA2
  119    87    88    89	 9 ;       HGA1      CG311      CG321      CG311
  119    87    88   120	 9 ;       HGA1      CG311      CG321       HGA2
  119    87    88   121	 9 ;       HGA1      CG311      CG321       HGA2
  102    87    88    89	 9 ;      OG301      CG311      CG321      CG311
  102    87    88   120	 9 ;      OG301      CG311      CG321       HGA2
  102    87    88   121	 9 ;      OG301      CG311      CG321       HGA2
   88    87   104    91	 9 ;      CG321      CG311     OG3C61      CG311
  119    87   104    91	 9 ;       HGA1      CG311     OG3C61      CG311
  102    87   104    91	 9 ;      OG301      CG311     OG3C61      CG311
   88    87   102    86	 9 ;      CG321      CG311      OG301      CG311
  104    87   102    86	 9 ;     OG3C61      CG311      OG301      CG311
  119    87   102    86	 9 ;       HGA1      CG311      OG301      CG311
   87    88    89    66	 9 ;      CG311      CG321      CG311      NG321
   87    88    89    90	 9 ;      CG311      CG321      CG311      CG311
   87    88    89   122	 9 ;      CG311      CG321      CG311       HGA1
  120    88    89    66	 9 ;       HGA2      CG321      CG311      NG321
  120    88    89    90	 9 ;       HGA2      CG321      CG311      CG311
  120    88    89   122	 9 ;       HGA2      CG321      CG311       HGA1
  121    88    89    66	 9 ;       HGA2      CG321      CG311      NG321
  121    88    89    90	 9 ;       HGA2      CG321      CG311      CG311
  121    88    89   122	 9 ;       HGA2      CG321      CG311       HGA1
   88    89    90    91	 9 ;      CG321      CG311      CG311      CG311
   88    89    90   103	 9 ;      CG321      CG311      CG311      OG311
   88    89    90   125	 9 ;      CG321      CG311      CG311       HGA1
   66    89    90    91	 9 ;      NG321      CG311      CG311      CG311
   66    89    90   103	 9 ;      NG321      CG311      CG311      OG311
   66    89    90   125	 9 ;      NG321      CG311      CG311       HGA1
  122    89    90    91	 9 ;       HGA1      CG311      CG311      CG311
  122    89    90   103	 9 ;       HGA1      CG311      CG311      OG311
  122    89    90   125	 9 ;       HGA1      CG311      CG311       HGA1
   89    90    91    92	 9 ;      CG311      CG311      CG311      CG331
   89    90    91   104	 9 ;      CG311      CG311      CG311     OG3C61
   89    90    91   127	 9 ;      CG311      CG311      CG311       HGA1
  103    90    91    92	 9 ;      OG311      CG311      CG311      CG331
  103    90    91   104	 9 ;      OG311      CG311      CG311     OG3C61
  103    90    91   127	 9 ;      OG311      CG311      CG311       HGA1
  125    90    91    92	 9 ;       HGA1      CG311      CG311      CG331
  125    90    91   104	 9 ;       HGA1      CG311      CG311     OG3C61
  125    90    91   127	 9 ;       HGA1      CG311      CG311       HGA1
   89    90   103   126	 9 ;      CG311      CG311      OG311       HGP1
   91    90   103   126	 9 ;      CG311      CG311      OG311       HGP1
  125    90   103   126	 9 ;       HGA1      CG311      OG311       HGP1
   90    91    92   128	 9 ;      CG311      CG311      CG331       HGA3
   90    91    92   129	 9 ;      CG311      CG311      CG331       HGA3
   90    91    92   130	 9 ;      CG311      CG311      CG331       HGA3
  104    91    92   128	 9 ;     OG3C61      CG311      CG331       HGA3
  104    91    92   129	 9 ;     OG3C61      CG311      CG331       HGA3
  104    91    92   130	 9 ;     OG3C61      CG311      CG331       HGA3
  127    91    92   128	 9 ;       HGA1      CG311      CG331       HGA3
  127    91    92   129	 9 ;       HGA1      CG311      CG331       HGA3
  127    91    92   130	 9 ;       HGA1      CG311      CG331       HGA3
   90    91   104    87	 9 ;      CG311      CG311     OG3C61      CG311
   92    91   104    87	 9 ;      CG331      CG311     OG3C61      CG311
  127    91   104    87	 9 ;       HGA1      CG311     OG3C61      CG311

[ dihedrals ]
;	ai	  aj	ak	  al funct			  c0			c1			  c2			c3
   68    69    67    95	 2
   74    73    75    98	 2
   82    81    83   100	 2

