; Created by cgenff_charmm2gmx.py

[ moleculetype ]
; Name			   nrexcl
ABI				 3

[ atoms ]
;	 nr		  type	resnr residue  atom   cgnr	   charge		mass  typeB    chargeB		massB
; residue	 1 ABI rtp ABI q	qsum
     1     NG2R60      1    ABI      N      1     -0.599     14.007   ;
     2      CG331      1    ABI     C1      2     -0.271     12.011   ;
     3     CG3RC1      1    ABI     C2      3     -0.171     12.011   ;
     4     CG2R51      1    ABI     C3      4     -0.007     12.011   ;
     5     CG2R61      1    ABI     C4      5      0.106     12.011   ;
     6     CG2R61      1    ABI     C5      6      0.168     12.011   ;
     7     CG2R61      1    ABI     C6      7      0.182     12.011   ;
     8     CG2R61      1    ABI     C7      8     -0.123     12.011   ;
     9     CG2R61      1    ABI     C8      9     -0.113     12.011   ;
    10     CG2R51      1    ABI     C9     10     -0.066     12.011   ;
    11     CG3C52      1    ABI    C10     11     -0.157     12.011   ;
    12     CG3RC1      1    ABI    C11     12     -0.136     12.011   ;
    13      CG311      1    ABI    C12     13     -0.078     12.011   ;
    14      CG321      1    ABI    C13     14     -0.178     12.011   ;
    15      CG2D1      1    ABI    C14     15     -0.153     12.011   ;
    16      CG2D1      1    ABI    C15     16      0.003     12.011   ;
    17      CG321      1    ABI    C16     17     -0.167     12.011   ;
    18      CG311      1    ABI    C17     18      0.188     12.011   ;
    19      CG321      1    ABI    C18     19     -0.178     12.011   ;
    20      CG321      1    ABI    C19     20     -0.174     12.011   ;
    21      CG301      1    ABI    C20     21     -0.001     12.011   ;
    22      CG331      1    ABI    C21     22     -0.272     12.011   ;
    23      CG311      1    ABI    C22     23     -0.098     12.011   ;
    24      CG321      1    ABI    C23     24     -0.177     12.011   ;
    25      CG321      1    ABI    C24     25     -0.186     12.011   ;
    26      OG302      1    ABI     O1     26     -0.154     15.999   ;
    27       HGA1      1    ABI     H1     27      0.090      1.008   ;
    28       HGA1      1    ABI     H2     28      0.090      1.008   ;
    29       HGA1      1    ABI     H3     29      0.090      1.008   ;
    30       HGA3      1    ABI     H4     30      0.090      1.008   ;
    31       HGA3      1    ABI     H5     31      0.090      1.008   ;
    32       HGA3      1    ABI     H6     32      0.090      1.008   ;
    33      HGR62      1    ABI     H7     33      0.122      1.008   ;
    34      HGR62      1    ABI     H8     34      0.122      1.008   ;
    35      HGR61      1    ABI     H9     35      0.115      1.008   ;
    36      HGR61      1    ABI    H10     36      0.115      1.008   ;
    37      HGR51      1    ABI    H11     37      0.175      1.008   ;
    38       HGA2      1    ABI    H12     38      0.090      1.008   ;
    39       HGA2      1    ABI    H13     39      0.090      1.008   ;
    40       HGA2      1    ABI    H14     40      0.090      1.008   ;
    41       HGA2      1    ABI    H15     41      0.090      1.008   ;
    42       HGA4      1    ABI    H16     42      0.150      1.008   ;
    43       HGA2      1    ABI    H17     43      0.090      1.008   ;
    44       HGA2      1    ABI    H18     44      0.090      1.008   ;
    45       HGA1      1    ABI    H19     45      0.090      1.008   ;
    46       HGA2      1    ABI    H20     46      0.090      1.008   ;
    47       HGA2      1    ABI    H21     47      0.090      1.008   ;
    48       HGA2      1    ABI    H22     48      0.090      1.008   ;
    49       HGA2      1    ABI    H23     49      0.090      1.008   ;
    50       HGA3      1    ABI    H24     50      0.090      1.008   ;
    51       HGA3      1    ABI    H25     51      0.090      1.008   ;
    52       HGA3      1    ABI    H26     52      0.090      1.008   ;
    53       HGA2      1    ABI    H27     53      0.090      1.008   ;
    54       HGA2      1    ABI    H28     54      0.090      1.008   ;
    55       HGA2      1    ABI    H29     55      0.090      1.008   ;
    56       HGA2      1    ABI    H30     56      0.090      1.008   ;
    57      CG2O6      1    ABL    C25     57      0.041     12.011   ;
    58      CG321      1    ABL    C26     58      0.140     12.011   ;
    59     CG2R61      1    ABL    C27     59      0.013     12.011   ;
    60     CG2R61      1    ABL    C28     60     -0.118     12.011   ;
    61     CG2R61      1    ABL    C29     61     -0.108     12.011   ;
    62     CG2R61      1    ABL    C30     62      0.238     12.011   ;
    63      CG301      1    ABL    C31     63      0.383     12.011   ;
    64      CG321      1    ABL    C32     64      0.036     12.011   ;
    65      CG321      1    ABL    C33     65     -0.009     12.011   ;
    66      CG321      1    ABL    C34     66     -0.009     12.011   ;
    67      CG321      1    ABL    C35     67     -0.180     12.011   ;
    68      CG321      1    ABL    C36     68     -0.180     12.011   ;
    69      CG321      1    ABL    C37     69     -0.180     12.011   ;
    70      CG321      1    ABL    C38     70     -0.180     12.011   ;
    71      CG321      1    ABL    C39     71     -0.180     12.011   ;
    72      CG321      1    ABL    C40     72     -0.180     12.011   ;
    73      CG321      1    ABL    C41     73     -0.180     12.011   ;
    74      CG321      1    ABL    C42     74     -0.180     12.011   ;
    75      CG321      1    ABL    C43     75     -0.180     12.011   ;
    76      CG321      1    ABL    C44     76     -0.180     12.011   ;
    77      CG321      1    ABL    C45     77     -0.180     12.011   ;
    78      CG321      1    ABL    C46     78     -0.180     12.011   ;
    79      CG321      1    ABL    C47     79     -0.180     12.011   ;
    80      CG321      1    ABL    C48     80     -0.179     12.011   ;
    81      CG321      1    ABL    C49     81     -0.181     12.011   ;
    82      CG321      1    ABL    C50     82     -0.177     12.011   ;
    83      CG331      1    ABL    C51     83     -0.273     12.011   ;
    84      CG331      1    ABL    C52     84     -0.274     12.011   ;
    85      CG331      1    ABL    C53     85     -0.274     12.011   ;
    86     CG2R61      1    ABL    C54     86     -0.108     12.011   ;
    87     CG2R61      1    ABL    C55     87     -0.118     12.011   ;
    88      OG2D1      1    ABL     O2     88     -0.395     15.999   ;
    89      OG302      1    ABL     O3     89     -0.134     15.999   ;
    90      OG301      1    ABL     O4     90     -0.426     15.999   ;
    91      OG301      1    ABL     O5     91     -0.403     15.999   ;
    92      OG301      1    ABL     O6     92     -0.342     15.999   ;
    93       HGA2      1    ABL    H31     93      0.090      1.008   ;
    94       HGA2      1    ABL    H32     94      0.090      1.008   ;
    95      HGR61      1    ABL    H33     95      0.115      1.008   ;
    96      HGR61      1    ABL    H34     96      0.115      1.008   ;
    97       HGA2      1    ABL    H35     97      0.090      1.008   ;
    98       HGA2      1    ABL    H36     98      0.090      1.008   ;
    99       HGA2      1    ABL    H37     99      0.090      1.008   ;
   100       HGA2      1    ABL    H38    100      0.090      1.008   ;
   101       HGA2      1    ABL    H39    101      0.090      1.008   ;
   102       HGA2      1    ABL    H40    102      0.090      1.008   ;
   103       HGA2      1    ABL    H41    103      0.090      1.008   ;
   104       HGA2      1    ABL    H42    104      0.090      1.008   ;
   105       HGA2      1    ABL    H43    105      0.090      1.008   ;
   106       HGA2      1    ABL    H44    106      0.090      1.008   ;
   107       HGA2      1    ABL    H45    107      0.090      1.008   ;
   108       HGA2      1    ABL    H46    108      0.090      1.008   ;
   109       HGA2      1    ABL    H47    109      0.090      1.008   ;
   110       HGA2      1    ABL    H48    110      0.090      1.008   ;
   111       HGA2      1    ABL    H49    111      0.090      1.008   ;
   112       HGA2      1    ABL    H50    112      0.090      1.008   ;
   113       HGA2      1    ABL    H51    113      0.090      1.008   ;
   114       HGA2      1    ABL    H52    114      0.090      1.008   ;
   115       HGA2      1    ABL    H53    115      0.090      1.008   ;
   116       HGA2      1    ABL    H54    116      0.090      1.008   ;
   117       HGA2      1    ABL    H55    117      0.090      1.008   ;
   118       HGA2      1    ABL    H56    118      0.090      1.008   ;
   119       HGA2      1    ABL    H57    119      0.090      1.008   ;
   120       HGA2      1    ABL    H58    120      0.090      1.008   ;
   121       HGA2      1    ABL    H59    121      0.090      1.008   ;
   122       HGA2      1    ABL    H60    122      0.090      1.008   ;
   123       HGA2      1    ABL    H61    123      0.090      1.008   ;
   124       HGA2      1    ABL    H62    124      0.090      1.008   ;
   125       HGA2      1    ABL    H63    125      0.090      1.008   ;
   126       HGA2      1    ABL    H64    126      0.090      1.008   ;
   127       HGA2      1    ABL    H65    127      0.090      1.008   ;
   128       HGA2      1    ABL    H66    128      0.090      1.008   ;
   129       HGA2      1    ABL    H67    129      0.090      1.008   ;
   130       HGA2      1    ABL    H68    130      0.090      1.008   ;
   131       HGA2      1    ABL    H69    131      0.090      1.008   ;
   132       HGA2      1    ABL    H70    132      0.090      1.008   ;
   133       HGA2      1    ABL    H71    133      0.090      1.008   ;
   134       HGA2      1    ABL    H72    134      0.090      1.008   ;
   135       HGA3      1    ABL    H73    135      0.090      1.008   ;
   136       HGA3      1    ABL    H74    136      0.090      1.008   ;
   137       HGA3      1    ABL    H75    137      0.090      1.008   ;
   138       HGA3      1    ABL    H76    138      0.090      1.008   ;
   139       HGA3      1    ABL    H77    139      0.090      1.008   ;
   140       HGA3      1    ABL    H78    140      0.090      1.008   ;
   141       HGA3      1    ABL    H79    141      0.090      1.008   ;
   142       HGA3      1    ABL    H80    142      0.090      1.008   ;
   143       HGA3      1    ABL    H81    143      0.090      1.008   ;
   144      HGR61      1    ABL    H82    144      0.115      1.008   ;
   145      HGR61      1    ABL    H83    145      0.115      1.008   ;

[ bonds ]
;	ai	  aj funct			  c0			c1			  c2			c3
    1     7	 1 ;      NG2R60     CG2R61
    1     6	 1 ;      NG2R60     CG2R61
    2     3	 1 ;       CG331     CG3RC1
    2    30	 1 ;       CG331       HGA3
    2    31	 1 ;       CG331       HGA3
    2    32	 1 ;       CG331       HGA3
    3     4	 1 ;      CG3RC1     CG2R51
    3    12	 1 ;      CG3RC1     CG3RC1
    3    25	 1 ;      CG3RC1      CG321
    4     5	 1 ;      CG2R51     CG2R61
    4    10	 1 ;      CG2R51     CG2R51
    5     6	 1 ;      CG2R61     CG2R61
    5     9	 1 ;      CG2R61     CG2R61
    6    33	 1 ;      CG2R61      HGR62
    7     8	 1 ;      CG2R61     CG2R61
    7    34	 1 ;      CG2R61      HGR62
    8     9	 1 ;      CG2R61     CG2R61
    8    35	 1 ;      CG2R61      HGR61
    9    36	 1 ;      CG2R61      HGR61
   10    11	 1 ;      CG2R51     CG3C52
   10    37	 1 ;      CG2R51      HGR51
   11    12	 1 ;      CG3C52     CG3RC1
   11    38	 1 ;      CG3C52       HGA2
   11    39	 1 ;      CG3C52       HGA2
   12    13	 1 ;      CG3RC1      CG311
   12    29	 1 ;      CG3RC1       HGA1
   13    14	 1 ;       CG311      CG321
   13    23	 1 ;       CG311      CG311
   13    28	 1 ;       CG311       HGA1
   14    15	 1 ;       CG321      CG2D1
   14    40	 1 ;       CG321       HGA2
   14    41	 1 ;       CG321       HGA2
   15    16	 1 ;       CG2D1      CG2D1
   15    42	 1 ;       CG2D1       HGA4
   16    17	 1 ;       CG2D1      CG321
   16    21	 1 ;       CG2D1      CG301
   17    18	 1 ;       CG321      CG311
   17    43	 1 ;       CG321       HGA2
   17    44	 1 ;       CG321       HGA2
   18    19	 1 ;       CG311      CG321
   18    26	 1 ;       CG311      OG302
   18    45	 1 ;       CG311       HGA1
   19    20	 1 ;       CG321      CG321
   19    46	 1 ;       CG321       HGA2
   19    47	 1 ;       CG321       HGA2
   20    21	 1 ;       CG321      CG301
   20    48	 1 ;       CG321       HGA2
   20    49	 1 ;       CG321       HGA2
   21    22	 1 ;       CG301      CG331
   21    23	 1 ;       CG301      CG311
   22    50	 1 ;       CG331       HGA3
   22    51	 1 ;       CG331       HGA3
   22    52	 1 ;       CG331       HGA3
   23    24	 1 ;       CG311      CG321
   23    27	 1 ;       CG311       HGA1
   24    25	 1 ;       CG321      CG321
   24    53	 1 ;       CG321       HGA2
   24    54	 1 ;       CG321       HGA2
   25    55	 1 ;       CG321       HGA2
   25    56	 1 ;       CG321       HGA2
   26    57	 1 ;       OG302      CG2O6
   57    88	 1 ;       CG2O6      OG2D1
   57    89	 1 ;       CG2O6      OG302
   58    59	 1 ;       CG321     CG2R61
   58    93	 1 ;       CG321       HGA2
   58    94	 1 ;       CG321       HGA2
   58    89	 1 ;       CG321      OG302
   59    60	 1 ;      CG2R61     CG2R61
   59    87	 1 ;      CG2R61     CG2R61
   60    61	 1 ;      CG2R61     CG2R61
   60    95	 1 ;      CG2R61      HGR61
   61    62	 1 ;      CG2R61     CG2R61
   61    96	 1 ;      CG2R61      HGR61
   62    86	 1 ;      CG2R61     CG2R61
   62    90	 1 ;      CG2R61      OG301
   63    84	 1 ;       CG301      CG331
   63    85	 1 ;       CG301      CG331
   63    91	 1 ;       CG301      OG301
   63    90	 1 ;       CG301      OG301
   64    65	 1 ;       CG321      CG321
   64    97	 1 ;       CG321       HGA2
   64    98	 1 ;       CG321       HGA2
   64    91	 1 ;       CG321      OG301
   65    92	 1 ;       CG321      OG301
   65    99	 1 ;       CG321       HGA2
   65   100	 1 ;       CG321       HGA2
   66    67	 1 ;       CG321      CG321
   66   101	 1 ;       CG321       HGA2
   66   102	 1 ;       CG321       HGA2
   66    92	 1 ;       CG321      OG301
   67    68	 1 ;       CG321      CG321
   67   103	 1 ;       CG321       HGA2
   67   104	 1 ;       CG321       HGA2
   68    69	 1 ;       CG321      CG321
   68   105	 1 ;       CG321       HGA2
   68   106	 1 ;       CG321       HGA2
   69    70	 1 ;       CG321      CG321
   69   107	 1 ;       CG321       HGA2
   69   108	 1 ;       CG321       HGA2
   70    71	 1 ;       CG321      CG321
   70   109	 1 ;       CG321       HGA2
   70   110	 1 ;       CG321       HGA2
   71    72	 1 ;       CG321      CG321
   71   111	 1 ;       CG321       HGA2
   71   112	 1 ;       CG321       HGA2
   72    73	 1 ;       CG321      CG321
   72   113	 1 ;       CG321       HGA2
   72   114	 1 ;       CG321       HGA2
   73    74	 1 ;       CG321      CG321
   73   115	 1 ;       CG321       HGA2
   73   116	 1 ;       CG321       HGA2
   74    75	 1 ;       CG321      CG321
   74   117	 1 ;       CG321       HGA2
   74   118	 1 ;       CG321       HGA2
   75    76	 1 ;       CG321      CG321
   75   119	 1 ;       CG321       HGA2
   75   120	 1 ;       CG321       HGA2
   76    77	 1 ;       CG321      CG321
   76   121	 1 ;       CG321       HGA2
   76   122	 1 ;       CG321       HGA2
   77    78	 1 ;       CG321      CG321
   77   123	 1 ;       CG321       HGA2
   77   124	 1 ;       CG321       HGA2
   78    79	 1 ;       CG321      CG321
   78   125	 1 ;       CG321       HGA2
   78   126	 1 ;       CG321       HGA2
   79    80	 1 ;       CG321      CG321
   79   127	 1 ;       CG321       HGA2
   79   128	 1 ;       CG321       HGA2
   80    81	 1 ;       CG321      CG321
   80   129	 1 ;       CG321       HGA2
   80   130	 1 ;       CG321       HGA2
   81    82	 1 ;       CG321      CG321
   81   131	 1 ;       CG321       HGA2
   81   132	 1 ;       CG321       HGA2
   82    83	 1 ;       CG321      CG331
   82   133	 1 ;       CG321       HGA2
   82   134	 1 ;       CG321       HGA2
   83   135	 1 ;       CG331       HGA3
   83   136	 1 ;       CG331       HGA3
   83   137	 1 ;       CG331       HGA3
   84   138	 1 ;       CG331       HGA3
   84   139	 1 ;       CG331       HGA3
   84   140	 1 ;       CG331       HGA3
   85   141	 1 ;       CG331       HGA3
   85   142	 1 ;       CG331       HGA3
   85   143	 1 ;       CG331       HGA3
   86    87	 1 ;      CG2R61     CG2R61
   86   144	 1 ;      CG2R61      HGR61
   87   145	 1 ;      CG2R61      HGR61

[ pairs ]
;	ai	  aj funct			  c0			c1			  c2			c3
    1     4	 1
    1     9	 1
    1    35	 1
    2     5	 1
    2    10	 1
    2    11	 1
    2    13	 1
    2    29	 1
    2    24	 1
    2    55	 1
    2    56	 1
    3     6	 1
    3     9	 1
    3    37	 1
    3    38	 1
    3    39	 1
    3    14	 1
    3    23	 1
    3    28	 1
    3    53	 1
    3    54	 1
    4    30	 1
    4    31	 1
    4    32	 1
    4    13	 1
    4    29	 1
    4    24	 1
    4    55	 1
    4    56	 1
    4    33	 1
    4     8	 1
    4    36	 1
    4    38	 1
    4    39	 1
    5     7	 1
    5    12	 1
    5    25	 1
    5    11	 1
    5    37	 1
    5    35	 1
    6     8	 1
    6    34	 1
    6    10	 1
    6    36	 1
    7    33	 1
    7    36	 1
    9    10	 1
    9    33	 1
    9    34	 1
   10    25	 1
   10    13	 1
   10    29	 1
   11    25	 1
   11    14	 1
   11    23	 1
   11    28	 1
   12    30	 1
   12    31	 1
   12    32	 1
   12    24	 1
   12    55	 1
   12    56	 1
   12    37	 1
   12    15	 1
   12    40	 1
   12    41	 1
   12    21	 1
   12    27	 1
   13    25	 1
   13    38	 1
   13    39	 1
   13    16	 1
   13    42	 1
   13    20	 1
   13    22	 1
   13    53	 1
   13    54	 1
   14    29	 1
   14    21	 1
   14    24	 1
   14    27	 1
   14    17	 1
   15    23	 1
   15    28	 1
   15    18	 1
   15    43	 1
   15    44	 1
   15    20	 1
   15    22	 1
   16    40	 1
   16    41	 1
   16    19	 1
   16    26	 1
   16    45	 1
   16    48	 1
   16    49	 1
   16    50	 1
   16    51	 1
   16    52	 1
   16    24	 1
   16    27	 1
   17    42	 1
   17    20	 1
   17    22	 1
   17    23	 1
   17    46	 1
   17    47	 1
   17    57	 1
   18    21	 1
   18    48	 1
   18    49	 1
   18    88	 1
   18    89	 1
   19    43	 1
   19    44	 1
   19    57	 1
   19    22	 1
   19    23	 1
   20    26	 1
   20    45	 1
   20    50	 1
   20    51	 1
   20    52	 1
   20    24	 1
   20    27	 1
   21    28	 1
   21    42	 1
   21    43	 1
   21    44	 1
   21    46	 1
   21    47	 1
   21    25	 1
   21    53	 1
   21    54	 1
   22    48	 1
   22    49	 1
   22    24	 1
   22    27	 1
   23    29	 1
   23    40	 1
   23    41	 1
   23    48	 1
   23    49	 1
   23    50	 1
   23    51	 1
   23    52	 1
   23    55	 1
   23    56	 1
   24    28	 1
   25    30	 1
   25    31	 1
   25    32	 1
   25    29	 1
   25    27	 1
   26    43	 1
   26    44	 1
   26    46	 1
   26    47	 1
   26    58	 1
   27    28	 1
   27    53	 1
   27    54	 1
   28    29	 1
   28    40	 1
   28    41	 1
   29    38	 1
   29    39	 1
   34    35	 1
   35    36	 1
   37    38	 1
   37    39	 1
   40    42	 1
   41    42	 1
   43    45	 1
   44    45	 1
   45    46	 1
   45    47	 1
   45    57	 1
   46    48	 1
   46    49	 1
   47    48	 1
   47    49	 1
   53    55	 1
   53    56	 1
   54    55	 1
   54    56	 1
   57    59	 1
   57    93	 1
   57    94	 1
   58    88	 1
   58    61	 1
   58    95	 1
   58    86	 1
   58   145	 1
   59    62	 1
   59    96	 1
   59   144	 1
   60    93	 1
   60    94	 1
   60    89	 1
   60    86	 1
   60   145	 1
   60    90	 1
   61    87	 1
   61   144	 1
   61    63	 1
   62    95	 1
   62    84	 1
   62    85	 1
   62    91	 1
   62   145	 1
   63    86	 1
   63    65	 1
   63    97	 1
   63    98	 1
   64    84	 1
   64    85	 1
   64    90	 1
   64    66	 1
   65    67	 1
   65   101	 1
   65   102	 1
   66    99	 1
   66   100	 1
   66    69	 1
   66   105	 1
   66   106	 1
   67    70	 1
   67   107	 1
   67   108	 1
   68   101	 1
   68   102	 1
   68    92	 1
   68    71	 1
   68   109	 1
   68   110	 1
   69   103	 1
   69   104	 1
   69    72	 1
   69   111	 1
   69   112	 1
   70   105	 1
   70   106	 1
   70    73	 1
   70   113	 1
   70   114	 1
   71   107	 1
   71   108	 1
   71    74	 1
   71   115	 1
   71   116	 1
   72   109	 1
   72   110	 1
   72    75	 1
   72   117	 1
   72   118	 1
   73   111	 1
   73   112	 1
   73    76	 1
   73   119	 1
   73   120	 1
   74   113	 1
   74   114	 1
   74    77	 1
   74   121	 1
   74   122	 1
   75   115	 1
   75   116	 1
   75    78	 1
   75   123	 1
   75   124	 1
   76   117	 1
   76   118	 1
   76    79	 1
   76   125	 1
   76   126	 1
   77   119	 1
   77   120	 1
   77    80	 1
   77   127	 1
   77   128	 1
   78   121	 1
   78   122	 1
   78    81	 1
   78   129	 1
   78   130	 1
   79   123	 1
   79   124	 1
   79    82	 1
   79   131	 1
   79   132	 1
   80   125	 1
   80   126	 1
   80    83	 1
   80   133	 1
   80   134	 1
   81   127	 1
   81   128	 1
   81   135	 1
   81   136	 1
   81   137	 1
   82   129	 1
   82   130	 1
   83   131	 1
   83   132	 1
   84   141	 1
   84   142	 1
   84   143	 1
   85   138	 1
   85   139	 1
   85   140	 1
   86    96	 1
   87    93	 1
   87    94	 1
   87    89	 1
   87    95	 1
   87    90	 1
   90    96	 1
   90   144	 1
   90   138	 1
   90   139	 1
   90   140	 1
   90   141	 1
   90   142	 1
   90   143	 1
   91   138	 1
   91   139	 1
   91   140	 1
   91   141	 1
   91   142	 1
   91   143	 1
   91    92	 1
   91    99	 1
   91   100	 1
   92    97	 1
   92    98	 1
   92   103	 1
   92   104	 1
   95    96	 1
   97    99	 1
   97   100	 1
   98    99	 1
   98   100	 1
  101   103	 1
  101   104	 1
  102   103	 1
  102   104	 1
  103   105	 1
  103   106	 1
  104   105	 1
  104   106	 1
  105   107	 1
  105   108	 1
  106   107	 1
  106   108	 1
  107   109	 1
  107   110	 1
  108   109	 1
  108   110	 1
  109   111	 1
  109   112	 1
  110   111	 1
  110   112	 1
  111   113	 1
  111   114	 1
  112   113	 1
  112   114	 1
  113   115	 1
  113   116	 1
  114   115	 1
  114   116	 1
  115   117	 1
  115   118	 1
  116   117	 1
  116   118	 1
  117   119	 1
  117   120	 1
  118   119	 1
  118   120	 1
  119   121	 1
  119   122	 1
  120   121	 1
  120   122	 1
  121   123	 1
  121   124	 1
  122   123	 1
  122   124	 1
  123   125	 1
  123   126	 1
  124   125	 1
  124   126	 1
  125   127	 1
  125   128	 1
  126   127	 1
  126   128	 1
  127   129	 1
  127   130	 1
  128   129	 1
  128   130	 1
  129   131	 1
  129   132	 1
  130   131	 1
  130   132	 1
  131   133	 1
  131   134	 1
  132   133	 1
  132   134	 1
  133   135	 1
  133   136	 1
  133   137	 1
  134   135	 1
  134   136	 1
  134   137	 1
  144   145	 1

[ angles ]
;	ai	  aj	ak funct			c0			  c1			c2			  c3
    7     1     6	5 ;     CG2R61     NG2R60     CG2R61
    3     2    30	5 ;     CG3RC1      CG331       HGA3
    3     2    31	5 ;     CG3RC1      CG331       HGA3
    3     2    32	5 ;     CG3RC1      CG331       HGA3
   30     2    31	5 ;       HGA3      CG331       HGA3
   30     2    32	5 ;       HGA3      CG331       HGA3
   31     2    32	5 ;       HGA3      CG331       HGA3
    2     3     4	5 ;      CG331     CG3RC1     CG2R51
    2     3    12	5 ;      CG331     CG3RC1     CG3RC1
    2     3    25	5 ;      CG331     CG3RC1      CG321
    4     3    12	5 ;     CG2R51     CG3RC1     CG3RC1
    4     3    25	5 ;     CG2R51     CG3RC1      CG321
   12     3    25	5 ;     CG3RC1     CG3RC1      CG321
    3     4     5	5 ;     CG3RC1     CG2R51     CG2R61
    3     4    10	5 ;     CG3RC1     CG2R51     CG2R51
    5     4    10	5 ;     CG2R61     CG2R51     CG2R51
    4     5     6	5 ;     CG2R51     CG2R61     CG2R61
    4     5     9	5 ;     CG2R51     CG2R61     CG2R61
    6     5     9	5 ;     CG2R61     CG2R61     CG2R61
    5     6     1	5 ;     CG2R61     CG2R61     NG2R60
    5     6    33	5 ;     CG2R61     CG2R61      HGR62
    1     6    33	5 ;     NG2R60     CG2R61      HGR62
    1     7     8	5 ;     NG2R60     CG2R61     CG2R61
    1     7    34	5 ;     NG2R60     CG2R61      HGR62
    8     7    34	5 ;     CG2R61     CG2R61      HGR62
    7     8     9	5 ;     CG2R61     CG2R61     CG2R61
    7     8    35	5 ;     CG2R61     CG2R61      HGR61
    9     8    35	5 ;     CG2R61     CG2R61      HGR61
    5     9     8	5 ;     CG2R61     CG2R61     CG2R61
    5     9    36	5 ;     CG2R61     CG2R61      HGR61
    8     9    36	5 ;     CG2R61     CG2R61      HGR61
    4    10    11	5 ;     CG2R51     CG2R51     CG3C52
    4    10    37	5 ;     CG2R51     CG2R51      HGR51
   11    10    37	5 ;     CG3C52     CG2R51      HGR51
   10    11    12	5 ;     CG2R51     CG3C52     CG3RC1
   10    11    38	5 ;     CG2R51     CG3C52       HGA2
   10    11    39	5 ;     CG2R51     CG3C52       HGA2
   12    11    38	5 ;     CG3RC1     CG3C52       HGA2
   12    11    39	5 ;     CG3RC1     CG3C52       HGA2
   38    11    39	5 ;       HGA2     CG3C52       HGA2
    3    12    11	5 ;     CG3RC1     CG3RC1     CG3C52
    3    12    13	5 ;     CG3RC1     CG3RC1      CG311
    3    12    29	5 ;     CG3RC1     CG3RC1       HGA1
   11    12    13	5 ;     CG3C52     CG3RC1      CG311
   11    12    29	5 ;     CG3C52     CG3RC1       HGA1
   13    12    29	5 ;      CG311     CG3RC1       HGA1
   12    13    14	5 ;     CG3RC1      CG311      CG321
   12    13    23	5 ;     CG3RC1      CG311      CG311
   12    13    28	5 ;     CG3RC1      CG311       HGA1
   14    13    23	5 ;      CG321      CG311      CG311
   14    13    28	5 ;      CG321      CG311       HGA1
   23    13    28	5 ;      CG311      CG311       HGA1
   13    14    15	5 ;      CG311      CG321      CG2D1
   13    14    40	5 ;      CG311      CG321       HGA2
   13    14    41	5 ;      CG311      CG321       HGA2
   15    14    40	5 ;      CG2D1      CG321       HGA2
   15    14    41	5 ;      CG2D1      CG321       HGA2
   40    14    41	5 ;       HGA2      CG321       HGA2
   14    15    16	5 ;      CG321      CG2D1      CG2D1
   14    15    42	5 ;      CG321      CG2D1       HGA4
   16    15    42	5 ;      CG2D1      CG2D1       HGA4
   15    16    17	5 ;      CG2D1      CG2D1      CG321
   15    16    21	5 ;      CG2D1      CG2D1      CG301
   17    16    21	5 ;      CG321      CG2D1      CG301
   16    17    18	5 ;      CG2D1      CG321      CG311
   16    17    43	5 ;      CG2D1      CG321       HGA2
   16    17    44	5 ;      CG2D1      CG321       HGA2
   18    17    43	5 ;      CG311      CG321       HGA2
   18    17    44	5 ;      CG311      CG321       HGA2
   43    17    44	5 ;       HGA2      CG321       HGA2
   17    18    19	5 ;      CG321      CG311      CG321
   17    18    26	5 ;      CG321      CG311      OG302
   17    18    45	5 ;      CG321      CG311       HGA1
   19    18    26	5 ;      CG321      CG311      OG302
   19    18    45	5 ;      CG321      CG311       HGA1
   26    18    45	5 ;      OG302      CG311       HGA1
   18    19    20	5 ;      CG311      CG321      CG321
   18    19    46	5 ;      CG311      CG321       HGA2
   18    19    47	5 ;      CG311      CG321       HGA2
   20    19    46	5 ;      CG321      CG321       HGA2
   20    19    47	5 ;      CG321      CG321       HGA2
   46    19    47	5 ;       HGA2      CG321       HGA2
   19    20    21	5 ;      CG321      CG321      CG301
   19    20    48	5 ;      CG321      CG321       HGA2
   19    20    49	5 ;      CG321      CG321       HGA2
   21    20    48	5 ;      CG301      CG321       HGA2
   21    20    49	5 ;      CG301      CG321       HGA2
   48    20    49	5 ;       HGA2      CG321       HGA2
   16    21    20	5 ;      CG2D1      CG301      CG321
   16    21    22	5 ;      CG2D1      CG301      CG331
   16    21    23	5 ;      CG2D1      CG301      CG311
   20    21    22	5 ;      CG321      CG301      CG331
   20    21    23	5 ;      CG321      CG301      CG311
   22    21    23	5 ;      CG331      CG301      CG311
   21    22    50	5 ;      CG301      CG331       HGA3
   21    22    51	5 ;      CG301      CG331       HGA3
   21    22    52	5 ;      CG301      CG331       HGA3
   50    22    51	5 ;       HGA3      CG331       HGA3
   50    22    52	5 ;       HGA3      CG331       HGA3
   51    22    52	5 ;       HGA3      CG331       HGA3
   13    23    21	5 ;      CG311      CG311      CG301
   13    23    24	5 ;      CG311      CG311      CG321
   13    23    27	5 ;      CG311      CG311       HGA1
   21    23    24	5 ;      CG301      CG311      CG321
   21    23    27	5 ;      CG301      CG311       HGA1
   24    23    27	5 ;      CG321      CG311       HGA1
   23    24    25	5 ;      CG311      CG321      CG321
   23    24    53	5 ;      CG311      CG321       HGA2
   23    24    54	5 ;      CG311      CG321       HGA2
   25    24    53	5 ;      CG321      CG321       HGA2
   25    24    54	5 ;      CG321      CG321       HGA2
   53    24    54	5 ;       HGA2      CG321       HGA2
    3    25    24	5 ;     CG3RC1      CG321      CG321
    3    25    55	5 ;     CG3RC1      CG321       HGA2
    3    25    56	5 ;     CG3RC1      CG321       HGA2
   24    25    55	5 ;      CG321      CG321       HGA2
   24    25    56	5 ;      CG321      CG321       HGA2
   55    25    56	5 ;       HGA2      CG321       HGA2
   18    26    57	5 ;      CG311      OG302      CG2O6
   26    57    88	5 ;      OG302      CG2O6      OG2D1
   26    57    89	5 ;      OG302      CG2O6      OG302
   88    57    89	5 ;      OG2D1      CG2O6      OG302
   59    58    93	5 ;     CG2R61      CG321       HGA2
   59    58    94	5 ;     CG2R61      CG321       HGA2
   59    58    89	5 ;     CG2R61      CG321      OG302
   93    58    94	5 ;       HGA2      CG321       HGA2
   93    58    89	5 ;       HGA2      CG321      OG302
   94    58    89	5 ;       HGA2      CG321      OG302
   58    59    60	5 ;      CG321     CG2R61     CG2R61
   58    59    87	5 ;      CG321     CG2R61     CG2R61
   60    59    87	5 ;     CG2R61     CG2R61     CG2R61
   59    60    61	5 ;     CG2R61     CG2R61     CG2R61
   59    60    95	5 ;     CG2R61     CG2R61      HGR61
   61    60    95	5 ;     CG2R61     CG2R61      HGR61
   60    61    62	5 ;     CG2R61     CG2R61     CG2R61
   60    61    96	5 ;     CG2R61     CG2R61      HGR61
   62    61    96	5 ;     CG2R61     CG2R61      HGR61
   61    62    86	5 ;     CG2R61     CG2R61     CG2R61
   61    62    90	5 ;     CG2R61     CG2R61      OG301
   86    62    90	5 ;     CG2R61     CG2R61      OG301
   84    63    85	5 ;      CG331      CG301      CG331
   84    63    91	5 ;      CG331      CG301      OG301
   84    63    90	5 ;      CG331      CG301      OG301
   85    63    91	5 ;      CG331      CG301      OG301
   85    63    90	5 ;      CG331      CG301      OG301
   91    63    90	5 ;      OG301      CG301      OG301
   65    64    97	5 ;      CG321      CG321       HGA2
   65    64    98	5 ;      CG321      CG321       HGA2
   65    64    91	5 ;      CG321      CG321      OG301
   97    64    98	5 ;       HGA2      CG321       HGA2
   97    64    91	5 ;       HGA2      CG321      OG301
   98    64    91	5 ;       HGA2      CG321      OG301
   64    65    92	5 ;      CG321      CG321      OG301
   64    65    99	5 ;      CG321      CG321       HGA2
   64    65   100	5 ;      CG321      CG321       HGA2
   92    65    99	5 ;      OG301      CG321       HGA2
   92    65   100	5 ;      OG301      CG321       HGA2
   99    65   100	5 ;       HGA2      CG321       HGA2
   67    66   101	5 ;      CG321      CG321       HGA2
   67    66   102	5 ;      CG321      CG321       HGA2
   67    66    92	5 ;      CG321      CG321      OG301
  101    66   102	5 ;       HGA2      CG321       HGA2
  101    66    92	5 ;       HGA2      CG321      OG301
  102    66    92	5 ;       HGA2      CG321      OG301
   66    67    68	5 ;      CG321      CG321      CG321
   66    67   103	5 ;      CG321      CG321       HGA2
   66    67   104	5 ;      CG321      CG321       HGA2
   68    67   103	5 ;      CG321      CG321       HGA2
   68    67   104	5 ;      CG321      CG321       HGA2
  103    67   104	5 ;       HGA2      CG321       HGA2
   67    68    69	5 ;      CG321      CG321      CG321
   67    68   105	5 ;      CG321      CG321       HGA2
   67    68   106	5 ;      CG321      CG321       HGA2
   69    68   105	5 ;      CG321      CG321       HGA2
   69    68   106	5 ;      CG321      CG321       HGA2
  105    68   106	5 ;       HGA2      CG321       HGA2
   68    69    70	5 ;      CG321      CG321      CG321
   68    69   107	5 ;      CG321      CG321       HGA2
   68    69   108	5 ;      CG321      CG321       HGA2
   70    69   107	5 ;      CG321      CG321       HGA2
   70    69   108	5 ;      CG321      CG321       HGA2
  107    69   108	5 ;       HGA2      CG321       HGA2
   69    70    71	5 ;      CG321      CG321      CG321
   69    70   109	5 ;      CG321      CG321       HGA2
   69    70   110	5 ;      CG321      CG321       HGA2
   71    70   109	5 ;      CG321      CG321       HGA2
   71    70   110	5 ;      CG321      CG321       HGA2
  109    70   110	5 ;       HGA2      CG321       HGA2
   70    71    72	5 ;      CG321      CG321      CG321
   70    71   111	5 ;      CG321      CG321       HGA2
   70    71   112	5 ;      CG321      CG321       HGA2
   72    71   111	5 ;      CG321      CG321       HGA2
   72    71   112	5 ;      CG321      CG321       HGA2
  111    71   112	5 ;       HGA2      CG321       HGA2
   71    72    73	5 ;      CG321      CG321      CG321
   71    72   113	5 ;      CG321      CG321       HGA2
   71    72   114	5 ;      CG321      CG321       HGA2
   73    72   113	5 ;      CG321      CG321       HGA2
   73    72   114	5 ;      CG321      CG321       HGA2
  113    72   114	5 ;       HGA2      CG321       HGA2
   72    73    74	5 ;      CG321      CG321      CG321
   72    73   115	5 ;      CG321      CG321       HGA2
   72    73   116	5 ;      CG321      CG321       HGA2
   74    73   115	5 ;      CG321      CG321       HGA2
   74    73   116	5 ;      CG321      CG321       HGA2
  115    73   116	5 ;       HGA2      CG321       HGA2
   73    74    75	5 ;      CG321      CG321      CG321
   73    74   117	5 ;      CG321      CG321       HGA2
   73    74   118	5 ;      CG321      CG321       HGA2
   75    74   117	5 ;      CG321      CG321       HGA2
   75    74   118	5 ;      CG321      CG321       HGA2
  117    74   118	5 ;       HGA2      CG321       HGA2
   74    75    76	5 ;      CG321      CG321      CG321
   74    75   119	5 ;      CG321      CG321       HGA2
   74    75   120	5 ;      CG321      CG321       HGA2
   76    75   119	5 ;      CG321      CG321       HGA2
   76    75   120	5 ;      CG321      CG321       HGA2
  119    75   120	5 ;       HGA2      CG321       HGA2
   75    76    77	5 ;      CG321      CG321      CG321
   75    76   121	5 ;      CG321      CG321       HGA2
   75    76   122	5 ;      CG321      CG321       HGA2
   77    76   121	5 ;      CG321      CG321       HGA2
   77    76   122	5 ;      CG321      CG321       HGA2
  121    76   122	5 ;       HGA2      CG321       HGA2
   76    77    78	5 ;      CG321      CG321      CG321
   76    77   123	5 ;      CG321      CG321       HGA2
   76    77   124	5 ;      CG321      CG321       HGA2
   78    77   123	5 ;      CG321      CG321       HGA2
   78    77   124	5 ;      CG321      CG321       HGA2
  123    77   124	5 ;       HGA2      CG321       HGA2
   77    78    79	5 ;      CG321      CG321      CG321
   77    78   125	5 ;      CG321      CG321       HGA2
   77    78   126	5 ;      CG321      CG321       HGA2
   79    78   125	5 ;      CG321      CG321       HGA2
   79    78   126	5 ;      CG321      CG321       HGA2
  125    78   126	5 ;       HGA2      CG321       HGA2
   78    79    80	5 ;      CG321      CG321      CG321
   78    79   127	5 ;      CG321      CG321       HGA2
   78    79   128	5 ;      CG321      CG321       HGA2
   80    79   127	5 ;      CG321      CG321       HGA2
   80    79   128	5 ;      CG321      CG321       HGA2
  127    79   128	5 ;       HGA2      CG321       HGA2
   79    80    81	5 ;      CG321      CG321      CG321
   79    80   129	5 ;      CG321      CG321       HGA2
   79    80   130	5 ;      CG321      CG321       HGA2
   81    80   129	5 ;      CG321      CG321       HGA2
   81    80   130	5 ;      CG321      CG321       HGA2
  129    80   130	5 ;       HGA2      CG321       HGA2
   80    81    82	5 ;      CG321      CG321      CG321
   80    81   131	5 ;      CG321      CG321       HGA2
   80    81   132	5 ;      CG321      CG321       HGA2
   82    81   131	5 ;      CG321      CG321       HGA2
   82    81   132	5 ;      CG321      CG321       HGA2
  131    81   132	5 ;       HGA2      CG321       HGA2
   81    82    83	5 ;      CG321      CG321      CG331
   81    82   133	5 ;      CG321      CG321       HGA2
   81    82   134	5 ;      CG321      CG321       HGA2
   83    82   133	5 ;      CG331      CG321       HGA2
   83    82   134	5 ;      CG331      CG321       HGA2
  133    82   134	5 ;       HGA2      CG321       HGA2
   82    83   135	5 ;      CG321      CG331       HGA3
   82    83   136	5 ;      CG321      CG331       HGA3
   82    83   137	5 ;      CG321      CG331       HGA3
  135    83   136	5 ;       HGA3      CG331       HGA3
  135    83   137	5 ;       HGA3      CG331       HGA3
  136    83   137	5 ;       HGA3      CG331       HGA3
   63    84   138	5 ;      CG301      CG331       HGA3
   63    84   139	5 ;      CG301      CG331       HGA3
   63    84   140	5 ;      CG301      CG331       HGA3
  138    84   139	5 ;       HGA3      CG331       HGA3
  138    84   140	5 ;       HGA3      CG331       HGA3
  139    84   140	5 ;       HGA3      CG331       HGA3
   63    85   141	5 ;      CG301      CG331       HGA3
   63    85   142	5 ;      CG301      CG331       HGA3
   63    85   143	5 ;      CG301      CG331       HGA3
  141    85   142	5 ;       HGA3      CG331       HGA3
  141    85   143	5 ;       HGA3      CG331       HGA3
  142    85   143	5 ;       HGA3      CG331       HGA3
   62    86    87	5 ;     CG2R61     CG2R61     CG2R61
   62    86   144	5 ;     CG2R61     CG2R61      HGR61
   87    86   144	5 ;     CG2R61     CG2R61      HGR61
   59    87    86	5 ;     CG2R61     CG2R61     CG2R61
   59    87   145	5 ;     CG2R61     CG2R61      HGR61
   86    87   145	5 ;     CG2R61     CG2R61      HGR61
   57    89    58	5 ;      CG2O6      OG302      CG321
   62    90    63	5 ;     CG2R61      OG301      CG301
   63    91    64	5 ;      CG301      OG301      CG321
   65    92    66	5 ;      CG321      OG301      CG321

[ dihedrals ]
;	ai	  aj	ak	  al funct			  c0			c1			  c2			c3			  c4			c5
    6     1     7     8	 9 ;     CG2R61     NG2R60     CG2R61     CG2R61
    6     1     7    34	 9 ;     CG2R61     NG2R60     CG2R61      HGR62
    7     1     6     5	 9 ;     CG2R61     NG2R60     CG2R61     CG2R61
    7     1     6    33	 9 ;     CG2R61     NG2R60     CG2R61      HGR62
   30     2     3     4	 9 ;       HGA3      CG331     CG3RC1     CG2R51
   30     2     3    12	 9 ;       HGA3      CG331     CG3RC1     CG3RC1
   30     2     3    25	 9 ;       HGA3      CG331     CG3RC1      CG321
   31     2     3     4	 9 ;       HGA3      CG331     CG3RC1     CG2R51
   31     2     3    12	 9 ;       HGA3      CG331     CG3RC1     CG3RC1
   31     2     3    25	 9 ;       HGA3      CG331     CG3RC1      CG321
   32     2     3     4	 9 ;       HGA3      CG331     CG3RC1     CG2R51
   32     2     3    12	 9 ;       HGA3      CG331     CG3RC1     CG3RC1
   32     2     3    25	 9 ;       HGA3      CG331     CG3RC1      CG321
    2     3     4     5	 9 ;      CG331     CG3RC1     CG2R51     CG2R61
    2     3     4    10	 9 ;      CG331     CG3RC1     CG2R51     CG2R51
   12     3     4     5	 9 ;     CG3RC1     CG3RC1     CG2R51     CG2R61
   12     3     4    10	 9 ;     CG3RC1     CG3RC1     CG2R51     CG2R51
   25     3     4     5	 9 ;      CG321     CG3RC1     CG2R51     CG2R61
   25     3     4    10	 9 ;      CG321     CG3RC1     CG2R51     CG2R51
    2     3    12    11	 9 ;      CG331     CG3RC1     CG3RC1     CG3C52
    2     3    12    13	 9 ;      CG331     CG3RC1     CG3RC1      CG311
    2     3    12    29	 9 ;      CG331     CG3RC1     CG3RC1       HGA1
    4     3    12    11	 9 ;     CG2R51     CG3RC1     CG3RC1     CG3C52
    4     3    12    13	 9 ;     CG2R51     CG3RC1     CG3RC1      CG311
    4     3    12    29	 9 ;     CG2R51     CG3RC1     CG3RC1       HGA1
   25     3    12    11	 9 ;      CG321     CG3RC1     CG3RC1     CG3C52
   25     3    12    13	 9 ;      CG321     CG3RC1     CG3RC1      CG311
   25     3    12    29	 9 ;      CG321     CG3RC1     CG3RC1       HGA1
    2     3    25    24	 9 ;      CG331     CG3RC1      CG321      CG321
    2     3    25    55	 9 ;      CG331     CG3RC1      CG321       HGA2
    2     3    25    56	 9 ;      CG331     CG3RC1      CG321       HGA2
    4     3    25    24	 9 ;     CG2R51     CG3RC1      CG321      CG321
    4     3    25    55	 9 ;     CG2R51     CG3RC1      CG321       HGA2
    4     3    25    56	 9 ;     CG2R51     CG3RC1      CG321       HGA2
   12     3    25    24	 9 ;     CG3RC1     CG3RC1      CG321      CG321
   12     3    25    55	 9 ;     CG3RC1     CG3RC1      CG321       HGA2
   12     3    25    56	 9 ;     CG3RC1     CG3RC1      CG321       HGA2
    3     4     5     6	 9 ;     CG3RC1     CG2R51     CG2R61     CG2R61
    3     4     5     9	 9 ;     CG3RC1     CG2R51     CG2R61     CG2R61
   10     4     5     6	 9 ;     CG2R51     CG2R51     CG2R61     CG2R61
   10     4     5     9	 9 ;     CG2R51     CG2R51     CG2R61     CG2R61
    3     4    10    11	 9 ;     CG3RC1     CG2R51     CG2R51     CG3C52
    3     4    10    37	 9 ;     CG3RC1     CG2R51     CG2R51      HGR51
    5     4    10    11	 9 ;     CG2R61     CG2R51     CG2R51     CG3C52
    5     4    10    37	 9 ;     CG2R61     CG2R51     CG2R51      HGR51
    4     5     6     1	 9 ;     CG2R51     CG2R61     CG2R61     NG2R60
    4     5     6    33	 9 ;     CG2R51     CG2R61     CG2R61      HGR62
    9     5     6     1	 9 ;     CG2R61     CG2R61     CG2R61     NG2R60
    9     5     6    33	 9 ;     CG2R61     CG2R61     CG2R61      HGR62
    4     5     9     8	 9 ;     CG2R51     CG2R61     CG2R61     CG2R61
    4     5     9    36	 9 ;     CG2R51     CG2R61     CG2R61      HGR61
    6     5     9     8	 9 ;     CG2R61     CG2R61     CG2R61     CG2R61
    6     5     9    36	 9 ;     CG2R61     CG2R61     CG2R61      HGR61
    1     7     8     9	 9 ;     NG2R60     CG2R61     CG2R61     CG2R61
    1     7     8    35	 9 ;     NG2R60     CG2R61     CG2R61      HGR61
   34     7     8     9	 9 ;      HGR62     CG2R61     CG2R61     CG2R61
   34     7     8    35	 9 ;      HGR62     CG2R61     CG2R61      HGR61
    7     8     9     5	 9 ;     CG2R61     CG2R61     CG2R61     CG2R61
    7     8     9    36	 9 ;     CG2R61     CG2R61     CG2R61      HGR61
   35     8     9     5	 9 ;      HGR61     CG2R61     CG2R61     CG2R61
   35     8     9    36	 9 ;      HGR61     CG2R61     CG2R61      HGR61
    4    10    11    12	 9 ;     CG2R51     CG2R51     CG3C52     CG3RC1
    4    10    11    38	 9 ;     CG2R51     CG2R51     CG3C52       HGA2
    4    10    11    39	 9 ;     CG2R51     CG2R51     CG3C52       HGA2
   37    10    11    12	 9 ;      HGR51     CG2R51     CG3C52     CG3RC1
   37    10    11    38	 9 ;      HGR51     CG2R51     CG3C52       HGA2
   37    10    11    39	 9 ;      HGR51     CG2R51     CG3C52       HGA2
   10    11    12     3	 9 ;     CG2R51     CG3C52     CG3RC1     CG3RC1
   10    11    12    13	 9 ;     CG2R51     CG3C52     CG3RC1      CG311
   10    11    12    29	 9 ;     CG2R51     CG3C52     CG3RC1       HGA1
   38    11    12     3	 9 ;       HGA2     CG3C52     CG3RC1     CG3RC1
   38    11    12    13	 9 ;       HGA2     CG3C52     CG3RC1      CG311
   38    11    12    29	 9 ;       HGA2     CG3C52     CG3RC1       HGA1
   39    11    12     3	 9 ;       HGA2     CG3C52     CG3RC1     CG3RC1
   39    11    12    13	 9 ;       HGA2     CG3C52     CG3RC1      CG311
   39    11    12    29	 9 ;       HGA2     CG3C52     CG3RC1       HGA1
    3    12    13    14	 9 ;     CG3RC1     CG3RC1      CG311      CG321
    3    12    13    23	 9 ;     CG3RC1     CG3RC1      CG311      CG311
    3    12    13    28	 9 ;     CG3RC1     CG3RC1      CG311       HGA1
   11    12    13    14	 9 ;     CG3C52     CG3RC1      CG311      CG321
   11    12    13    23	 9 ;     CG3C52     CG3RC1      CG311      CG311
   11    12    13    28	 9 ;     CG3C52     CG3RC1      CG311       HGA1
   29    12    13    14	 9 ;       HGA1     CG3RC1      CG311      CG321
   29    12    13    23	 9 ;       HGA1     CG3RC1      CG311      CG311
   29    12    13    28	 9 ;       HGA1     CG3RC1      CG311       HGA1
   12    13    14    15	 9 ;     CG3RC1      CG311      CG321      CG2D1
   12    13    14    40	 9 ;     CG3RC1      CG311      CG321       HGA2
   12    13    14    41	 9 ;     CG3RC1      CG311      CG321       HGA2
   23    13    14    15	 9 ;      CG311      CG311      CG321      CG2D1
   23    13    14    40	 9 ;      CG311      CG311      CG321       HGA2
   23    13    14    41	 9 ;      CG311      CG311      CG321       HGA2
   28    13    14    15	 9 ;       HGA1      CG311      CG321      CG2D1
   28    13    14    40	 9 ;       HGA1      CG311      CG321       HGA2
   28    13    14    41	 9 ;       HGA1      CG311      CG321       HGA2
   12    13    23    21	 9 ;     CG3RC1      CG311      CG311      CG301
   12    13    23    24	 9 ;     CG3RC1      CG311      CG311      CG321
   12    13    23    27	 9 ;     CG3RC1      CG311      CG311       HGA1
   14    13    23    21	 9 ;      CG321      CG311      CG311      CG301
   14    13    23    24	 9 ;      CG321      CG311      CG311      CG321
   14    13    23    27	 9 ;      CG321      CG311      CG311       HGA1
   28    13    23    21	 9 ;       HGA1      CG311      CG311      CG301
   28    13    23    24	 9 ;       HGA1      CG311      CG311      CG321
   28    13    23    27	 9 ;       HGA1      CG311      CG311       HGA1
   13    14    15    16	 9 ;      CG311      CG321      CG2D1      CG2D1
   13    14    15    42	 9 ;      CG311      CG321      CG2D1       HGA4
   40    14    15    16	 9 ;       HGA2      CG321      CG2D1      CG2D1
   40    14    15    42	 9 ;       HGA2      CG321      CG2D1       HGA4
   41    14    15    16	 9 ;       HGA2      CG321      CG2D1      CG2D1
   41    14    15    42	 9 ;       HGA2      CG321      CG2D1       HGA4
   14    15    16    17	 9 ;      CG321      CG2D1      CG2D1      CG321
   14    15    16    21	 9 ;      CG321      CG2D1      CG2D1      CG301
   42    15    16    17	 9 ;       HGA4      CG2D1      CG2D1      CG321
   42    15    16    21	 9 ;       HGA4      CG2D1      CG2D1      CG301
   15    16    17    18	 9 ;      CG2D1      CG2D1      CG321      CG311
   15    16    17    43	 9 ;      CG2D1      CG2D1      CG321       HGA2
   15    16    17    44	 9 ;      CG2D1      CG2D1      CG321       HGA2
   21    16    17    18	 9 ;      CG301      CG2D1      CG321      CG311
   21    16    17    43	 9 ;      CG301      CG2D1      CG321       HGA2
   21    16    17    44	 9 ;      CG301      CG2D1      CG321       HGA2
   15    16    21    20	 9 ;      CG2D1      CG2D1      CG301      CG321
   15    16    21    22	 9 ;      CG2D1      CG2D1      CG301      CG331
   15    16    21    23	 9 ;      CG2D1      CG2D1      CG301      CG311
   17    16    21    20	 9 ;      CG321      CG2D1      CG301      CG321
   17    16    21    22	 9 ;      CG321      CG2D1      CG301      CG331
   17    16    21    23	 9 ;      CG321      CG2D1      CG301      CG311
   16    17    18    19	 9 ;      CG2D1      CG321      CG311      CG321
   16    17    18    26	 9 ;      CG2D1      CG321      CG311      OG302
   16    17    18    45	 9 ;      CG2D1      CG321      CG311       HGA1
   43    17    18    19	 9 ;       HGA2      CG321      CG311      CG321
   43    17    18    26	 9 ;       HGA2      CG321      CG311      OG302
   43    17    18    45	 9 ;       HGA2      CG321      CG311       HGA1
   44    17    18    19	 9 ;       HGA2      CG321      CG311      CG321
   44    17    18    26	 9 ;       HGA2      CG321      CG311      OG302
   44    17    18    45	 9 ;       HGA2      CG321      CG311       HGA1
   17    18    19    20	 9 ;      CG321      CG311      CG321      CG321
   17    18    19    46	 9 ;      CG321      CG311      CG321       HGA2
   17    18    19    47	 9 ;      CG321      CG311      CG321       HGA2
   26    18    19    20	 9 ;      OG302      CG311      CG321      CG321
   26    18    19    46	 9 ;      OG302      CG311      CG321       HGA2
   26    18    19    47	 9 ;      OG302      CG311      CG321       HGA2
   45    18    19    20	 9 ;       HGA1      CG311      CG321      CG321
   45    18    19    46	 9 ;       HGA1      CG311      CG321       HGA2
   45    18    19    47	 9 ;       HGA1      CG311      CG321       HGA2
   17    18    26    57	 9 ;      CG321      CG311      OG302      CG2O6
   19    18    26    57	 9 ;      CG321      CG311      OG302      CG2O6
   45    18    26    57	 9 ;       HGA1      CG311      OG302      CG2O6
   18    19    20    21	 9 ;      CG311      CG321      CG321      CG301
   18    19    20    48	 9 ;      CG311      CG321      CG321       HGA2
   18    19    20    49	 9 ;      CG311      CG321      CG321       HGA2
   46    19    20    21	 9 ;       HGA2      CG321      CG321      CG301
   46    19    20    48	 9 ;       HGA2      CG321      CG321       HGA2
   46    19    20    49	 9 ;       HGA2      CG321      CG321       HGA2
   47    19    20    21	 9 ;       HGA2      CG321      CG321      CG301
   47    19    20    48	 9 ;       HGA2      CG321      CG321       HGA2
   47    19    20    49	 9 ;       HGA2      CG321      CG321       HGA2
   19    20    21    16	 9 ;      CG321      CG321      CG301      CG2D1
   19    20    21    22	 9 ;      CG321      CG321      CG301      CG331
   19    20    21    23	 9 ;      CG321      CG321      CG301      CG311
   48    20    21    16	 9 ;       HGA2      CG321      CG301      CG2D1
   48    20    21    22	 9 ;       HGA2      CG321      CG301      CG331
   48    20    21    23	 9 ;       HGA2      CG321      CG301      CG311
   49    20    21    16	 9 ;       HGA2      CG321      CG301      CG2D1
   49    20    21    22	 9 ;       HGA2      CG321      CG301      CG331
   49    20    21    23	 9 ;       HGA2      CG321      CG301      CG311
   16    21    22    50	 9 ;      CG2D1      CG301      CG331       HGA3
   16    21    22    51	 9 ;      CG2D1      CG301      CG331       HGA3
   16    21    22    52	 9 ;      CG2D1      CG301      CG331       HGA3
   20    21    22    50	 9 ;      CG321      CG301      CG331       HGA3
   20    21    22    51	 9 ;      CG321      CG301      CG331       HGA3
   20    21    22    52	 9 ;      CG321      CG301      CG331       HGA3
   23    21    22    50	 9 ;      CG311      CG301      CG331       HGA3
   23    21    22    51	 9 ;      CG311      CG301      CG331       HGA3
   23    21    22    52	 9 ;      CG311      CG301      CG331       HGA3
   16    21    23    13	 9 ;      CG2D1      CG301      CG311      CG311
   16    21    23    24	 9 ;      CG2D1      CG301      CG311      CG321
   16    21    23    27	 9 ;      CG2D1      CG301      CG311       HGA1
   20    21    23    13	 9 ;      CG321      CG301      CG311      CG311
   20    21    23    24	 9 ;      CG321      CG301      CG311      CG321
   20    21    23    27	 9 ;      CG321      CG301      CG311       HGA1
   22    21    23    13	 9 ;      CG331      CG301      CG311      CG311
   22    21    23    24	 9 ;      CG331      CG301      CG311      CG321
   22    21    23    27	 9 ;      CG331      CG301      CG311       HGA1
   13    23    24    25	 9 ;      CG311      CG311      CG321      CG321
   13    23    24    53	 9 ;      CG311      CG311      CG321       HGA2
   13    23    24    54	 9 ;      CG311      CG311      CG321       HGA2
   21    23    24    25	 9 ;      CG301      CG311      CG321      CG321
   21    23    24    53	 9 ;      CG301      CG311      CG321       HGA2
   21    23    24    54	 9 ;      CG301      CG311      CG321       HGA2
   27    23    24    25	 9 ;       HGA1      CG311      CG321      CG321
   27    23    24    53	 9 ;       HGA1      CG311      CG321       HGA2
   27    23    24    54	 9 ;       HGA1      CG311      CG321       HGA2
   23    24    25     3	 9 ;      CG311      CG321      CG321     CG3RC1
   23    24    25    55	 9 ;      CG311      CG321      CG321       HGA2
   23    24    25    56	 9 ;      CG311      CG321      CG321       HGA2
   53    24    25     3	 9 ;       HGA2      CG321      CG321     CG3RC1
   53    24    25    55	 9 ;       HGA2      CG321      CG321       HGA2
   53    24    25    56	 9 ;       HGA2      CG321      CG321       HGA2
   54    24    25     3	 9 ;       HGA2      CG321      CG321     CG3RC1
   54    24    25    55	 9 ;       HGA2      CG321      CG321       HGA2
   54    24    25    56	 9 ;       HGA2      CG321      CG321       HGA2
   18    26    57    88	 9 ;      CG311      OG302      CG2O6      OG2D1
   18    26    57    89	 9 ;      CG311      OG302      CG2O6      OG302
   26    57    89    58	 9 ;      OG302      CG2O6      OG302      CG321
   88    57    89    58	 9 ;      OG2D1      CG2O6      OG302      CG321
   93    58    59    60	 9 ;       HGA2      CG321     CG2R61     CG2R61
   93    58    59    87	 9 ;       HGA2      CG321     CG2R61     CG2R61
   94    58    59    60	 9 ;       HGA2      CG321     CG2R61     CG2R61
   94    58    59    87	 9 ;       HGA2      CG321     CG2R61     CG2R61
   89    58    59    60	 9 ;      OG302      CG321     CG2R61     CG2R61
   89    58    59    87	 9 ;      OG302      CG321     CG2R61     CG2R61
   59    58    89    57	 9 ;     CG2R61      CG321      OG302      CG2O6
   93    58    89    57	 9 ;       HGA2      CG321      OG302      CG2O6
   94    58    89    57	 9 ;       HGA2      CG321      OG302      CG2O6
   58    59    60    61	 9 ;      CG321     CG2R61     CG2R61     CG2R61
   58    59    60    95	 9 ;      CG321     CG2R61     CG2R61      HGR61
   87    59    60    61	 9 ;     CG2R61     CG2R61     CG2R61     CG2R61
   87    59    60    95	 9 ;     CG2R61     CG2R61     CG2R61      HGR61
   58    59    87    86	 9 ;      CG321     CG2R61     CG2R61     CG2R61
   58    59    87   145	 9 ;      CG321     CG2R61     CG2R61      HGR61
   60    59    87    86	 9 ;     CG2R61     CG2R61     CG2R61     CG2R61
   60    59    87   145	 9 ;     CG2R61     CG2R61     CG2R61      HGR61
   59    60    61    62	 9 ;     CG2R61     CG2R61     CG2R61     CG2R61
   59    60    61    96	 9 ;     CG2R61     CG2R61     CG2R61      HGR61
   95    60    61    62	 9 ;      HGR61     CG2R61     CG2R61     CG2R61
   95    60    61    96	 9 ;      HGR61     CG2R61     CG2R61      HGR61
   60    61    62    86	 9 ;     CG2R61     CG2R61     CG2R61     CG2R61
   60    61    62    90	 9 ;     CG2R61     CG2R61     CG2R61      OG301
   96    61    62    86	 9 ;      HGR61     CG2R61     CG2R61     CG2R61
   96    61    62    90	 9 ;      HGR61     CG2R61     CG2R61      OG301
   61    62    86    87	 9 ;     CG2R61     CG2R61     CG2R61     CG2R61
   61    62    86   144	 9 ;     CG2R61     CG2R61     CG2R61      HGR61
   90    62    86    87	 9 ;      OG301     CG2R61     CG2R61     CG2R61
   90    62    86   144	 9 ;      OG301     CG2R61     CG2R61      HGR61
   61    62    90    63	 9 ;     CG2R61     CG2R61      OG301      CG301
   86    62    90    63	 9 ;     CG2R61     CG2R61      OG301      CG301
   85    63    84   138	 9 ;      CG331      CG301      CG331       HGA3
   85    63    84   139	 9 ;      CG331      CG301      CG331       HGA3
   85    63    84   140	 9 ;      CG331      CG301      CG331       HGA3
   91    63    84   138	 9 ;      OG301      CG301      CG331       HGA3
   91    63    84   139	 9 ;      OG301      CG301      CG331       HGA3
   91    63    84   140	 9 ;      OG301      CG301      CG331       HGA3
   90    63    84   138	 9 ;      OG301      CG301      CG331       HGA3
   90    63    84   139	 9 ;      OG301      CG301      CG331       HGA3
   90    63    84   140	 9 ;      OG301      CG301      CG331       HGA3
   84    63    85   141	 9 ;      CG331      CG301      CG331       HGA3
   84    63    85   142	 9 ;      CG331      CG301      CG331       HGA3
   84    63    85   143	 9 ;      CG331      CG301      CG331       HGA3
   91    63    85   141	 9 ;      OG301      CG301      CG331       HGA3
   91    63    85   142	 9 ;      OG301      CG301      CG331       HGA3
   91    63    85   143	 9 ;      OG301      CG301      CG331       HGA3
   90    63    85   141	 9 ;      OG301      CG301      CG331       HGA3
   90    63    85   142	 9 ;      OG301      CG301      CG331       HGA3
   90    63    85   143	 9 ;      OG301      CG301      CG331       HGA3
   84    63    91    64	 9 ;      CG331      CG301      OG301      CG321
   85    63    91    64	 9 ;      CG331      CG301      OG301      CG321
   90    63    91    64	 9 ;      OG301      CG301      OG301      CG321
   84    63    90    62	 9 ;      CG331      CG301      OG301     CG2R61
   85    63    90    62	 9 ;      CG331      CG301      OG301     CG2R61
   91    63    90    62	 9 ;      OG301      CG301      OG301     CG2R61
   97    64    65    92	 9 ;       HGA2      CG321      CG321      OG301
   97    64    65    99	 9 ;       HGA2      CG321      CG321       HGA2
   97    64    65   100	 9 ;       HGA2      CG321      CG321       HGA2
   98    64    65    92	 9 ;       HGA2      CG321      CG321      OG301
   98    64    65    99	 9 ;       HGA2      CG321      CG321       HGA2
   98    64    65   100	 9 ;       HGA2      CG321      CG321       HGA2
   91    64    65    92	 9 ;      OG301      CG321      CG321      OG301
   91    64    65    99	 9 ;      OG301      CG321      CG321       HGA2
   91    64    65   100	 9 ;      OG301      CG321      CG321       HGA2
   65    64    91    63	 9 ;      CG321      CG321      OG301      CG301
   97    64    91    63	 9 ;       HGA2      CG321      OG301      CG301
   98    64    91    63	 9 ;       HGA2      CG321      OG301      CG301
   64    65    92    66	 9 ;      CG321      CG321      OG301      CG321
   99    65    92    66	 9 ;       HGA2      CG321      OG301      CG321
  100    65    92    66	 9 ;       HGA2      CG321      OG301      CG321
  101    66    67    68	 9 ;       HGA2      CG321      CG321      CG321
  101    66    67   103	 9 ;       HGA2      CG321      CG321       HGA2
  101    66    67   104	 9 ;       HGA2      CG321      CG321       HGA2
  102    66    67    68	 9 ;       HGA2      CG321      CG321      CG321
  102    66    67   103	 9 ;       HGA2      CG321      CG321       HGA2
  102    66    67   104	 9 ;       HGA2      CG321      CG321       HGA2
   92    66    67    68	 9 ;      OG301      CG321      CG321      CG321
   92    66    67   103	 9 ;      OG301      CG321      CG321       HGA2
   92    66    67   104	 9 ;      OG301      CG321      CG321       HGA2
   67    66    92    65	 9 ;      CG321      CG321      OG301      CG321
  101    66    92    65	 9 ;       HGA2      CG321      OG301      CG321
  102    66    92    65	 9 ;       HGA2      CG321      OG301      CG321
   66    67    68    69	 9 ;      CG321      CG321      CG321      CG321
   66    67    68   105	 9 ;      CG321      CG321      CG321       HGA2
   66    67    68   106	 9 ;      CG321      CG321      CG321       HGA2
  103    67    68    69	 9 ;       HGA2      CG321      CG321      CG321
  103    67    68   105	 9 ;       HGA2      CG321      CG321       HGA2
  103    67    68   106	 9 ;       HGA2      CG321      CG321       HGA2
  104    67    68    69	 9 ;       HGA2      CG321      CG321      CG321
  104    67    68   105	 9 ;       HGA2      CG321      CG321       HGA2
  104    67    68   106	 9 ;       HGA2      CG321      CG321       HGA2
   67    68    69    70	 9 ;      CG321      CG321      CG321      CG321
   67    68    69   107	 9 ;      CG321      CG321      CG321       HGA2
   67    68    69   108	 9 ;      CG321      CG321      CG321       HGA2
  105    68    69    70	 9 ;       HGA2      CG321      CG321      CG321
  105    68    69   107	 9 ;       HGA2      CG321      CG321       HGA2
  105    68    69   108	 9 ;       HGA2      CG321      CG321       HGA2
  106    68    69    70	 9 ;       HGA2      CG321      CG321      CG321
  106    68    69   107	 9 ;       HGA2      CG321      CG321       HGA2
  106    68    69   108	 9 ;       HGA2      CG321      CG321       HGA2
   68    69    70    71	 9 ;      CG321      CG321      CG321      CG321
   68    69    70   109	 9 ;      CG321      CG321      CG321       HGA2
   68    69    70   110	 9 ;      CG321      CG321      CG321       HGA2
  107    69    70    71	 9 ;       HGA2      CG321      CG321      CG321
  107    69    70   109	 9 ;       HGA2      CG321      CG321       HGA2
  107    69    70   110	 9 ;       HGA2      CG321      CG321       HGA2
  108    69    70    71	 9 ;       HGA2      CG321      CG321      CG321
  108    69    70   109	 9 ;       HGA2      CG321      CG321       HGA2
  108    69    70   110	 9 ;       HGA2      CG321      CG321       HGA2
   69    70    71    72	 9 ;      CG321      CG321      CG321      CG321
   69    70    71   111	 9 ;      CG321      CG321      CG321       HGA2
   69    70    71   112	 9 ;      CG321      CG321      CG321       HGA2
  109    70    71    72	 9 ;       HGA2      CG321      CG321      CG321
  109    70    71   111	 9 ;       HGA2      CG321      CG321       HGA2
  109    70    71   112	 9 ;       HGA2      CG321      CG321       HGA2
  110    70    71    72	 9 ;       HGA2      CG321      CG321      CG321
  110    70    71   111	 9 ;       HGA2      CG321      CG321       HGA2
  110    70    71   112	 9 ;       HGA2      CG321      CG321       HGA2
   70    71    72    73	 9 ;      CG321      CG321      CG321      CG321
   70    71    72   113	 9 ;      CG321      CG321      CG321       HGA2
   70    71    72   114	 9 ;      CG321      CG321      CG321       HGA2
  111    71    72    73	 9 ;       HGA2      CG321      CG321      CG321
  111    71    72   113	 9 ;       HGA2      CG321      CG321       HGA2
  111    71    72   114	 9 ;       HGA2      CG321      CG321       HGA2
  112    71    72    73	 9 ;       HGA2      CG321      CG321      CG321
  112    71    72   113	 9 ;       HGA2      CG321      CG321       HGA2
  112    71    72   114	 9 ;       HGA2      CG321      CG321       HGA2
   71    72    73    74	 9 ;      CG321      CG321      CG321      CG321
   71    72    73   115	 9 ;      CG321      CG321      CG321       HGA2
   71    72    73   116	 9 ;      CG321      CG321      CG321       HGA2
  113    72    73    74	 9 ;       HGA2      CG321      CG321      CG321
  113    72    73   115	 9 ;       HGA2      CG321      CG321       HGA2
  113    72    73   116	 9 ;       HGA2      CG321      CG321       HGA2
  114    72    73    74	 9 ;       HGA2      CG321      CG321      CG321
  114    72    73   115	 9 ;       HGA2      CG321      CG321       HGA2
  114    72    73   116	 9 ;       HGA2      CG321      CG321       HGA2
   72    73    74    75	 9 ;      CG321      CG321      CG321      CG321
   72    73    74   117	 9 ;      CG321      CG321      CG321       HGA2
   72    73    74   118	 9 ;      CG321      CG321      CG321       HGA2
  115    73    74    75	 9 ;       HGA2      CG321      CG321      CG321
  115    73    74   117	 9 ;       HGA2      CG321      CG321       HGA2
  115    73    74   118	 9 ;       HGA2      CG321      CG321       HGA2
  116    73    74    75	 9 ;       HGA2      CG321      CG321      CG321
  116    73    74   117	 9 ;       HGA2      CG321      CG321       HGA2
  116    73    74   118	 9 ;       HGA2      CG321      CG321       HGA2
   73    74    75    76	 9 ;      CG321      CG321      CG321      CG321
   73    74    75   119	 9 ;      CG321      CG321      CG321       HGA2
   73    74    75   120	 9 ;      CG321      CG321      CG321       HGA2
  117    74    75    76	 9 ;       HGA2      CG321      CG321      CG321
  117    74    75   119	 9 ;       HGA2      CG321      CG321       HGA2
  117    74    75   120	 9 ;       HGA2      CG321      CG321       HGA2
  118    74    75    76	 9 ;       HGA2      CG321      CG321      CG321
  118    74    75   119	 9 ;       HGA2      CG321      CG321       HGA2
  118    74    75   120	 9 ;       HGA2      CG321      CG321       HGA2
   74    75    76    77	 9 ;      CG321      CG321      CG321      CG321
   74    75    76   121	 9 ;      CG321      CG321      CG321       HGA2
   74    75    76   122	 9 ;      CG321      CG321      CG321       HGA2
  119    75    76    77	 9 ;       HGA2      CG321      CG321      CG321
  119    75    76   121	 9 ;       HGA2      CG321      CG321       HGA2
  119    75    76   122	 9 ;       HGA2      CG321      CG321       HGA2
  120    75    76    77	 9 ;       HGA2      CG321      CG321      CG321
  120    75    76   121	 9 ;       HGA2      CG321      CG321       HGA2
  120    75    76   122	 9 ;       HGA2      CG321      CG321       HGA2
   75    76    77    78	 9 ;      CG321      CG321      CG321      CG321
   75    76    77   123	 9 ;      CG321      CG321      CG321       HGA2
   75    76    77   124	 9 ;      CG321      CG321      CG321       HGA2
  121    76    77    78	 9 ;       HGA2      CG321      CG321      CG321
  121    76    77   123	 9 ;       HGA2      CG321      CG321       HGA2
  121    76    77   124	 9 ;       HGA2      CG321      CG321       HGA2
  122    76    77    78	 9 ;       HGA2      CG321      CG321      CG321
  122    76    77   123	 9 ;       HGA2      CG321      CG321       HGA2
  122    76    77   124	 9 ;       HGA2      CG321      CG321       HGA2
   76    77    78    79	 9 ;      CG321      CG321      CG321      CG321
   76    77    78   125	 9 ;      CG321      CG321      CG321       HGA2
   76    77    78   126	 9 ;      CG321      CG321      CG321       HGA2
  123    77    78    79	 9 ;       HGA2      CG321      CG321      CG321
  123    77    78   125	 9 ;       HGA2      CG321      CG321       HGA2
  123    77    78   126	 9 ;       HGA2      CG321      CG321       HGA2
  124    77    78    79	 9 ;       HGA2      CG321      CG321      CG321
  124    77    78   125	 9 ;       HGA2      CG321      CG321       HGA2
  124    77    78   126	 9 ;       HGA2      CG321      CG321       HGA2
   77    78    79    80	 9 ;      CG321      CG321      CG321      CG321
   77    78    79   127	 9 ;      CG321      CG321      CG321       HGA2
   77    78    79   128	 9 ;      CG321      CG321      CG321       HGA2
  125    78    79    80	 9 ;       HGA2      CG321      CG321      CG321
  125    78    79   127	 9 ;       HGA2      CG321      CG321       HGA2
  125    78    79   128	 9 ;       HGA2      CG321      CG321       HGA2
  126    78    79    80	 9 ;       HGA2      CG321      CG321      CG321
  126    78    79   127	 9 ;       HGA2      CG321      CG321       HGA2
  126    78    79   128	 9 ;       HGA2      CG321      CG321       HGA2
   78    79    80    81	 9 ;      CG321      CG321      CG321      CG321
   78    79    80   129	 9 ;      CG321      CG321      CG321       HGA2
   78    79    80   130	 9 ;      CG321      CG321      CG321       HGA2
  127    79    80    81	 9 ;       HGA2      CG321      CG321      CG321
  127    79    80   129	 9 ;       HGA2      CG321      CG321       HGA2
  127    79    80   130	 9 ;       HGA2      CG321      CG321       HGA2
  128    79    80    81	 9 ;       HGA2      CG321      CG321      CG321
  128    79    80   129	 9 ;       HGA2      CG321      CG321       HGA2
  128    79    80   130	 9 ;       HGA2      CG321      CG321       HGA2
   79    80    81    82	 9 ;      CG321      CG321      CG321      CG321
   79    80    81   131	 9 ;      CG321      CG321      CG321       HGA2
   79    80    81   132	 9 ;      CG321      CG321      CG321       HGA2
  129    80    81    82	 9 ;       HGA2      CG321      CG321      CG321
  129    80    81   131	 9 ;       HGA2      CG321      CG321       HGA2
  129    80    81   132	 9 ;       HGA2      CG321      CG321       HGA2
  130    80    81    82	 9 ;       HGA2      CG321      CG321      CG321
  130    80    81   131	 9 ;       HGA2      CG321      CG321       HGA2
  130    80    81   132	 9 ;       HGA2      CG321      CG321       HGA2
   80    81    82    83	 9 ;      CG321      CG321      CG321      CG331
   80    81    82   133	 9 ;      CG321      CG321      CG321       HGA2
   80    81    82   134	 9 ;      CG321      CG321      CG321       HGA2
  131    81    82    83	 9 ;       HGA2      CG321      CG321      CG331
  131    81    82   133	 9 ;       HGA2      CG321      CG321       HGA2
  131    81    82   134	 9 ;       HGA2      CG321      CG321       HGA2
  132    81    82    83	 9 ;       HGA2      CG321      CG321      CG331
  132    81    82   133	 9 ;       HGA2      CG321      CG321       HGA2
  132    81    82   134	 9 ;       HGA2      CG321      CG321       HGA2
   81    82    83   135	 9 ;      CG321      CG321      CG331       HGA3
   81    82    83   136	 9 ;      CG321      CG321      CG331       HGA3
   81    82    83   137	 9 ;      CG321      CG321      CG331       HGA3
  133    82    83   135	 9 ;       HGA2      CG321      CG331       HGA3
  133    82    83   136	 9 ;       HGA2      CG321      CG331       HGA3
  133    82    83   137	 9 ;       HGA2      CG321      CG331       HGA3
  134    82    83   135	 9 ;       HGA2      CG321      CG331       HGA3
  134    82    83   136	 9 ;       HGA2      CG321      CG331       HGA3
  134    82    83   137	 9 ;       HGA2      CG321      CG331       HGA3
   62    86    87    59	 9 ;     CG2R61     CG2R61     CG2R61     CG2R61
   62    86    87   145	 9 ;     CG2R61     CG2R61     CG2R61      HGR61
  144    86    87    59	 9 ;      HGR61     CG2R61     CG2R61     CG2R61
  144    86    87   145	 9 ;      HGR61     CG2R61     CG2R61      HGR61

[ dihedrals ]
;	ai	  aj	ak	  al funct			  c0			c1			  c2			c3
   57    89    26    88	 2

