; Created by cgenff_charmm2gmx.py

[ moleculetype ]
; Name			   nrexcl
PTX				 3

[ atoms ]
;	 nr		  type	resnr residue  atom   cgnr	   charge		mass  typeB    chargeB		massB
; residue	 1 PTX rtp PTX q	qsum
     1      CG331      1    PTL     C1      1     -0.090     12.011   ;
     2      CG301      1    PTL     C2      2      0.395     12.011   ;
     3      CG331      1    PTL     C3      3     -0.269     12.011   ;
     4      CG331      1    PTL     C4      4     -0.269     12.011   ;
     5      OG301      1    PTL     O1      5     -0.382     15.999   ;
     6       HGA3      1    PTL     H1      6      0.090      1.008   ;
     7       HGA3      1    PTL     H2      7      0.090      1.008   ;
     8       HGA3      1    PTL     H3      8      0.090      1.008   ;
     9       HGA3      1    PTL     H4      9      0.090      1.008   ;
    10       HGA3      1    PTL     H5     10      0.090      1.008   ;
    11       HGA3      1    PTL     H6     11      0.090      1.008   ;
    12       HGA3      1    PTL     H7     12      0.090      1.008   ;
    13       HGA3      1    PTL     H8     13      0.090      1.008   ;
    14       HGA3      1    PTL     H9     14      0.090      1.008   ;
    15      NG2S1      1    PTX      N     15     -0.405     14.007   ;
    16      CG311      1    PTX     C5     16      0.175     12.011   ;
    17      CG321      1    PTX     C6     17     -0.212     12.011   ;
    18     CG3RC1      1    PTX     C7     18      0.020     12.011   ;
    19     CG3C41      1    PTX     C8     19     -0.106     12.011   ;
    20     CG3RC1      1    PTX     C9     20      0.366     12.011   ;
    21      CG2O2      1    PTX    C10     21      0.885     12.011   ;
    22      CG331      1    PTX    C11     22     -0.313     12.011   ;
    23      CG311      1    PTX    C12     23     -0.074     12.011   ;
    24      CG311      1    PTX    C13     24      0.133     12.011   ;
    25      CG2O2      1    PTX    C14     25      0.459     12.011   ;
    26     CG2R61      1    PTX    C15     26      0.086     12.011   ;
    27     CG2R61      1    PTX    C16     27     -0.110     12.011   ;
    28     CG2R61      1    PTX    C17     28     -0.114     12.011   ;
    29     CG2R61      1    PTX    C18     29     -0.115     12.011   ;
    30     CG2R61      1    PTX    C19     30     -0.114     12.011   ;
    31     CG2R61      1    PTX    C20     31     -0.110     12.011   ;
    32      CG301      1    PTX    C21     32      0.186     12.011   ;
    33      CG321      1    PTX    C22     33     -0.212     12.011   ;
    34      CG311      1    PTX    C23     34      0.272     12.011   ;
    35      CG2O2      1    PTX    C24     35      0.853     12.011   ;
    36      CG311      1    PTX    C25     36      0.124     12.011   ;
    37      CG311      1    PTX    C26     37      0.118     12.011   ;
    38      CG2O1      1    PTX    C27     38      0.341     12.011   ;
    39     CG2R61      1    PTX    C28     39     -0.137     12.011   ;
    40     CG2R61      1    PTX    C29     40     -0.024     12.011   ;
    41     CG2R61      1    PTX    C30     41     -0.109     12.011   ;
    42     CG2R61      1    PTX    C31     42     -0.115     12.011   ;
    43     CG2R61      1    PTX    C32     43     -0.109     12.011   ;
    44     CG2R61      1    PTX    C33     44     -0.024     12.011   ;
    45     CG2R61      1    PTX    C34     45     -0.040     12.011   ;
    46     CG2R61      1    PTX    C35     46     -0.106     12.011   ;
    47     CG2R61      1    PTX    C36     47     -0.115     12.011   ;
    48     CG2R61      1    PTX    C37     48     -0.115     12.011   ;
    49     CG2R61      1    PTX    C38     49     -0.115     12.011   ;
    50     CG2R61      1    PTX    C39     50     -0.106     12.011   ;
    51      CG2D1      1    PTX    C40     51     -0.153     12.011   ;
    52      CG331      1    PTX    C41     52     -0.265     12.011   ;
    53      CG2D1      1    PTX    C42     53     -0.113     12.011   ;
    54      CG311      1    PTX    C43     54      0.432     12.011   ;
    55      CG2O2      1    PTX    C44     55      0.834     12.011   ;
    56      CG331      1    PTX    C45     56     -0.311     12.011   ;
    57      CG2O5      1    PTX    C46     57      0.300     12.011   ;
    58      CG301      1    PTX    C47     58      0.088     12.011   ;
    59      CG331      1    PTX    C48     59     -0.263     12.011   ;
    60      CG301      1    PTX    C49     60      0.016     12.011   ;
    61      CG331      1    PTX    C50     61     -0.269     12.011   ;
    62      CG331      1    PTX    C51     62     -0.269     12.011   ;
    63      OG301      1    PTX     O2     63     -0.450     15.999   ;
    64     OG3C51      1    PTX     O3     64     -0.343     15.999   ;
    65      OG302      1    PTX     O4     65     -0.422     15.999   ;
    66      OG2D1      1    PTX     O5     66     -0.617     15.999   ;
    67      OG302      1    PTX     O6     67     -0.310     15.999   ;
    68      OG2D1      1    PTX     O7     68     -0.496     15.999   ;
    69      OG311      1    PTX     O8     69     -0.460     15.999   ;
    70      OG302      1    PTX     O9     70     -0.419     15.999   ;
    71      OG2D1      1    PTX    O10     71     -0.628     15.999   ;
    72      OG311      1    PTX    O11     72     -0.662     15.999   ;
    73      OG2D1      1    PTX    O12     73     -0.458     15.999   ;
    74      OG302      1    PTX    O13     74     -0.427     15.999   ;
    75      OG2D1      1    PTX    O14     75     -0.625     15.999   ;
    76      OG2D3      1    PTX    O15     76     -0.515     15.999   ;
    77       HGA1      1    PTX    H10     77      0.090      1.008   ;
    78       HGA2      1    PTX    H11     78      0.090      1.008   ;
    79       HGA2      1    PTX    H12     79      0.090      1.008   ;
    80       HGA1      1    PTX    H13     80      0.090      1.008   ;
    81       HGA2      1    PTX    H14     81      0.090      1.008   ;
    82       HGA2      1    PTX    H15     82      0.090      1.008   ;
    83       HGA3      1    PTX    H16     83      0.090      1.008   ;
    84       HGA3      1    PTX    H17     84      0.090      1.008   ;
    85       HGA3      1    PTX    H18     85      0.090      1.008   ;
    86       HGA1      1    PTX    H19     86      0.090      1.008   ;
    87       HGA1      1    PTX    H20     87      0.090      1.008   ;
    88      HGR61      1    PTX    H21     88      0.115      1.008   ;
    89      HGR61      1    PTX    H22     89      0.115      1.008   ;
    90      HGR61      1    PTX    H23     90      0.115      1.008   ;
    91      HGR61      1    PTX    H24     91      0.115      1.008   ;
    92      HGR61      1    PTX    H25     92      0.115      1.008   ;
    93       HGP1      1    PTX    H26     93      0.292      1.008   ;
    94       HGA2      1    PTX    H27     94      0.090      1.008   ;
    95       HGA2      1    PTX    H28     95      0.090      1.008   ;
    96       HGA1      1    PTX    H29     96      0.090      1.008   ;
    97       HGA1      1    PTX    H30     97      0.090      1.008   ;
    98       HGP1      1    PTX    H31     98      0.421      1.008   ;
    99       HGA1      1    PTX    H32     99      0.090      1.008   ;
   100       HGP1      1    PTX    H33    100      0.274      1.008   ;
   101      HGR61      1    PTX    H34    101      0.115      1.008   ;
   102      HGR61      1    PTX    H35    102      0.115      1.008   ;
   103      HGR61      1    PTX    H36    103      0.115      1.008   ;
   104      HGR61      1    PTX    H37    104      0.115      1.008   ;
   105      HGR61      1    PTX    H38    105      0.115      1.008   ;
   106      HGR61      1    PTX    H39    106      0.115      1.008   ;
   107      HGR61      1    PTX    H40    107      0.115      1.008   ;
   108      HGR61      1    PTX    H41    108      0.115      1.008   ;
   109      HGR61      1    PTX    H42    109      0.115      1.008   ;
   110      HGR61      1    PTX    H43    110      0.115      1.008   ;
   111       HGA3      1    PTX    H44    111      0.090      1.008   ;
   112       HGA3      1    PTX    H45    112      0.090      1.008   ;
   113       HGA3      1    PTX    H46    113      0.090      1.008   ;
   114       HGA1      1    PTX    H47    114      0.090      1.008   ;
   115       HGA3      1    PTX    H48    115      0.090      1.008   ;
   116       HGA3      1    PTX    H49    116      0.090      1.008   ;
   117       HGA3      1    PTX    H50    117      0.090      1.008   ;
   118       HGA3      1    PTX    H51    118      0.090      1.008   ;
   119       HGA3      1    PTX    H52    119      0.090      1.008   ;
   120       HGA3      1    PTX    H53    120      0.090      1.008   ;
   121       HGA3      1    PTX    H54    121      0.090      1.008   ;
   122       HGA3      1    PTX    H55    122      0.090      1.008   ;
   123       HGA3      1    PTX    H56    123      0.090      1.008   ;
   124       HGA3      1    PTX    H57    124      0.090      1.008   ;
   125       HGA3      1    PTX    H58    125      0.090      1.008   ;
   126       HGA3      1    PTX    H59    126      0.090      1.008   ;

[ bonds ]
;	ai	  aj funct			  c0			c1			  c2			c3
    1     5	 1 ;       CG331      OG301
    1     6	 1 ;       CG331       HGA3
    1     7	 1 ;       CG331       HGA3
    1     8	 1 ;       CG331       HGA3
    2     3	 1 ;       CG301      CG331
    2     4	 1 ;       CG301      CG331
    2    63	 1 ;       CG301      OG301
    2     5	 1 ;       CG301      OG301
    3     9	 1 ;       CG331       HGA3
    3    10	 1 ;       CG331       HGA3
    3    11	 1 ;       CG331       HGA3
    4    12	 1 ;       CG331       HGA3
    4    13	 1 ;       CG331       HGA3
    4    14	 1 ;       CG331       HGA3
   15    38	 1 ;       NG2S1      CG2O1
   15   100	 1 ;       NG2S1       HGP1
   15    37	 1 ;       NG2S1      CG311
   16    17	 1 ;       CG311      CG321
   16    58	 1 ;       CG311      CG301
   16    77	 1 ;       CG311       HGA1
   16    63	 1 ;       CG311      OG301
   17    18	 1 ;       CG321     CG3RC1
   17    78	 1 ;       CG321       HGA2
   17    79	 1 ;       CG321       HGA2
   18    20	 1 ;      CG3RC1     CG3RC1
   18    64	 1 ;      CG3RC1     OG3C51
   18    80	 1 ;      CG3RC1       HGA1
   19    20	 1 ;      CG3C41     CG3RC1
   19    81	 1 ;      CG3C41       HGA2
   19    82	 1 ;      CG3C41       HGA2
   19    64	 1 ;      CG3C41     OG3C51
   20    23	 1 ;      CG3RC1      CG311
   20    65	 1 ;      CG3RC1      OG302
   21    22	 1 ;       CG2O2      CG331
   21    66	 1 ;       CG2O2      OG2D1
   21    65	 1 ;       CG2O2      OG302
   22    83	 1 ;       CG331       HGA3
   22    84	 1 ;       CG331       HGA3
   22    85	 1 ;       CG331       HGA3
   23    24	 1 ;       CG311      CG311
   23    58	 1 ;       CG311      CG301
   23    86	 1 ;       CG311       HGA1
   24    32	 1 ;       CG311      CG301
   24    67	 1 ;       CG311      OG302
   24    87	 1 ;       CG311       HGA1
   25    26	 1 ;       CG2O2     CG2R61
   25    68	 1 ;       CG2O2      OG2D1
   25    67	 1 ;       CG2O2      OG302
   26    27	 1 ;      CG2R61     CG2R61
   26    31	 1 ;      CG2R61     CG2R61
   27    28	 1 ;      CG2R61     CG2R61
   27    88	 1 ;      CG2R61      HGR61
   28    29	 1 ;      CG2R61     CG2R61
   28    89	 1 ;      CG2R61      HGR61
   29    30	 1 ;      CG2R61     CG2R61
   29    90	 1 ;      CG2R61      HGR61
   30    31	 1 ;      CG2R61     CG2R61
   30    91	 1 ;      CG2R61      HGR61
   31    92	 1 ;      CG2R61      HGR61
   32    33	 1 ;       CG301      CG321
   32    60	 1 ;       CG301      CG301
   32    69	 1 ;       CG301      OG311
   33    34	 1 ;       CG321      CG311
   33    94	 1 ;       CG321       HGA2
   33    95	 1 ;       CG321       HGA2
   34    51	 1 ;       CG311      CG2D1
   34    70	 1 ;       CG311      OG302
   34    96	 1 ;       CG311       HGA1
   35    36	 1 ;       CG2O2      CG311
   35    71	 1 ;       CG2O2      OG2D1
   35    70	 1 ;       CG2O2      OG302
   36    37	 1 ;       CG311      CG311
   36    72	 1 ;       CG311      OG311
   36    97	 1 ;       CG311       HGA1
   37    45	 1 ;       CG311     CG2R61
   37    99	 1 ;       CG311       HGA1
   38    39	 1 ;       CG2O1     CG2R61
   38    73	 1 ;       CG2O1      OG2D1
   39    40	 1 ;      CG2R61     CG2R61
   39    44	 1 ;      CG2R61     CG2R61
   40    41	 1 ;      CG2R61     CG2R61
   40   101	 1 ;      CG2R61      HGR61
   41    42	 1 ;      CG2R61     CG2R61
   41   102	 1 ;      CG2R61      HGR61
   42    43	 1 ;      CG2R61     CG2R61
   42   103	 1 ;      CG2R61      HGR61
   43    44	 1 ;      CG2R61     CG2R61
   43   104	 1 ;      CG2R61      HGR61
   44   105	 1 ;      CG2R61      HGR61
   45    46	 1 ;      CG2R61     CG2R61
   45    50	 1 ;      CG2R61     CG2R61
   46    47	 1 ;      CG2R61     CG2R61
   46   106	 1 ;      CG2R61      HGR61
   47    48	 1 ;      CG2R61     CG2R61
   47   107	 1 ;      CG2R61      HGR61
   48    49	 1 ;      CG2R61     CG2R61
   48   108	 1 ;      CG2R61      HGR61
   49    50	 1 ;      CG2R61     CG2R61
   49   109	 1 ;      CG2R61      HGR61
   50   110	 1 ;      CG2R61      HGR61
   51    52	 1 ;       CG2D1      CG331
   51    53	 1 ;       CG2D1      CG2D1
   52   111	 1 ;       CG331       HGA3
   52   112	 1 ;       CG331       HGA3
   52   113	 1 ;       CG331       HGA3
   53    54	 1 ;       CG2D1      CG311
   53    60	 1 ;       CG2D1      CG301
   54    57	 1 ;       CG311      CG2O5
   54    74	 1 ;       CG311      OG302
   54   114	 1 ;       CG311       HGA1
   55    56	 1 ;       CG2O2      CG331
   55    75	 1 ;       CG2O2      OG2D1
   55    74	 1 ;       CG2O2      OG302
   56   115	 1 ;       CG331       HGA3
   56   116	 1 ;       CG331       HGA3
   56   117	 1 ;       CG331       HGA3
   57    58	 1 ;       CG2O5      CG301
   57    76	 1 ;       CG2O5      OG2D3
   58    59	 1 ;       CG301      CG331
   59   118	 1 ;       CG331       HGA3
   59   119	 1 ;       CG331       HGA3
   59   120	 1 ;       CG331       HGA3
   60    61	 1 ;       CG301      CG331
   60    62	 1 ;       CG301      CG331
   61   121	 1 ;       CG331       HGA3
   61   122	 1 ;       CG331       HGA3
   61   123	 1 ;       CG331       HGA3
   62   124	 1 ;       CG331       HGA3
   62   125	 1 ;       CG331       HGA3
   62   126	 1 ;       CG331       HGA3
   69    93	 1 ;       OG311       HGP1
   72    98	 1 ;       OG311       HGP1

[ pairs ]
;	ai	  aj funct			  c0			c1			  c2			c3
    1     3	 1
    1     4	 1
    1    63	 1
    2     6	 1
    2     7	 1
    2     8	 1
    2    17	 1
    2    58	 1
    2    77	 1
    3    12	 1
    3    13	 1
    3    14	 1
    3    16	 1
    4     9	 1
    4    10	 1
    4    11	 1
    4    16	 1
    5     9	 1
    5    10	 1
    5    11	 1
    5    12	 1
    5    13	 1
    5    14	 1
    5    16	 1
    9    63	 1
   10    63	 1
   11    63	 1
   12    63	 1
   13    63	 1
   14    63	 1
   15    35	 1
   15    72	 1
   15    97	 1
   15    46	 1
   15    50	 1
   15    40	 1
   15    44	 1
   16    20	 1
   16    64	 1
   16    80	 1
   16    24	 1
   16    86	 1
   16    54	 1
   16    76	 1
   16   118	 1
   16   119	 1
   16   120	 1
   17    23	 1
   17    57	 1
   17    59	 1
   17    19	 1
   17    65	 1
   18    58	 1
   18    77	 1
   18    63	 1
   18    81	 1
   18    82	 1
   18    24	 1
   18    86	 1
   18    21	 1
   19    80	 1
   19    24	 1
   19    58	 1
   19    86	 1
   19    21	 1
   20    78	 1
   20    79	 1
   20    22	 1
   20    66	 1
   20    32	 1
   20    67	 1
   20    87	 1
   20    57	 1
   20    59	 1
   21    23	 1
   23    77	 1
   23    63	 1
   23    64	 1
   23    80	 1
   23    81	 1
   23    82	 1
   23    33	 1
   23    60	 1
   23    69	 1
   23    25	 1
   23    54	 1
   23    76	 1
   23   118	 1
   23   119	 1
   23   120	 1
   24    65	 1
   24    57	 1
   24    59	 1
   24    26	 1
   24    68	 1
   24    34	 1
   24    94	 1
   24    95	 1
   24    53	 1
   24    61	 1
   24    62	 1
   24    93	 1
   25    32	 1
   25    87	 1
   25    28	 1
   25    88	 1
   25    30	 1
   25    92	 1
   26    29	 1
   26    89	 1
   26    91	 1
   27    68	 1
   27    67	 1
   27    30	 1
   27    92	 1
   27    90	 1
   28    31	 1
   28    91	 1
   29    88	 1
   29    92	 1
   30    89	 1
   31    68	 1
   31    67	 1
   31    88	 1
   31    90	 1
   32    58	 1
   32    86	 1
   32    51	 1
   32    70	 1
   32    96	 1
   32    54	 1
   32   121	 1
   32   122	 1
   32   123	 1
   32   124	 1
   32   125	 1
   32   126	 1
   33    67	 1
   33    87	 1
   33    53	 1
   33    61	 1
   33    62	 1
   33    93	 1
   33    52	 1
   33    35	 1
   34    60	 1
   34    69	 1
   34    36	 1
   34    71	 1
   34   111	 1
   34   112	 1
   34   113	 1
   34    54	 1
   35    51	 1
   35    96	 1
   35    45	 1
   35    99	 1
   35    98	 1
   36    38	 1
   36   100	 1
   36    46	 1
   36    50	 1
   37    39	 1
   37    73	 1
   37    71	 1
   37    70	 1
   37    98	 1
   37    47	 1
   37   106	 1
   37    49	 1
   37   110	 1
   38    45	 1
   38    99	 1
   38    41	 1
   38   101	 1
   38    43	 1
   38   105	 1
   39   100	 1
   39    42	 1
   39   102	 1
   39   104	 1
   40    73	 1
   40    43	 1
   40   105	 1
   40   103	 1
   41    44	 1
   41   104	 1
   42   101	 1
   42   105	 1
   43   102	 1
   44    73	 1
   44   101	 1
   44   103	 1
   45   100	 1
   45    72	 1
   45    97	 1
   45    48	 1
   45   107	 1
   45   109	 1
   46    99	 1
   46    49	 1
   46   110	 1
   46   108	 1
   47    50	 1
   47   109	 1
   48   106	 1
   48   110	 1
   49   107	 1
   50    99	 1
   50   106	 1
   50   108	 1
   51    94	 1
   51    95	 1
   51    57	 1
   51    74	 1
   51   114	 1
   51    61	 1
   51    62	 1
   52    70	 1
   52    96	 1
   52    54	 1
   52    60	 1
   53    69	 1
   53    70	 1
   53    96	 1
   53   111	 1
   53   112	 1
   53   113	 1
   53    58	 1
   53    76	 1
   53    55	 1
   53   121	 1
   53   122	 1
   53   123	 1
   53   124	 1
   53   125	 1
   53   126	 1
   54    61	 1
   54    62	 1
   54    56	 1
   54    75	 1
   54    59	 1
   55    57	 1
   55   114	 1
   57    77	 1
   57    63	 1
   57    86	 1
   57    60	 1
   57   118	 1
   57   119	 1
   57   120	 1
   58    78	 1
   58    79	 1
   58    65	 1
   58    67	 1
   58    87	 1
   58    74	 1
   58   114	 1
   59    77	 1
   59    63	 1
   59    86	 1
   59    76	 1
   60    67	 1
   60    87	 1
   60    94	 1
   60    95	 1
   60    93	 1
   60    74	 1
   60   114	 1
   61    69	 1
   61   124	 1
   61   125	 1
   61   126	 1
   62    69	 1
   62   121	 1
   62   122	 1
   62   123	 1
   63    78	 1
   63    79	 1
   64    78	 1
   64    79	 1
   64    65	 1
   65    80	 1
   65    81	 1
   65    82	 1
   65    86	 1
   65    83	 1
   65    84	 1
   65    85	 1
   66    83	 1
   66    84	 1
   66    85	 1
   67    86	 1
   67    69	 1
   69    87	 1
   69    94	 1
   69    95	 1
   70    94	 1
   70    95	 1
   70    72	 1
   70    97	 1
   71    72	 1
   71    97	 1
   72    99	 1
   73   100	 1
   74    76	 1
   74   115	 1
   74   116	 1
   74   117	 1
   75   115	 1
   75   116	 1
   75   117	 1
   76   114	 1
   77    78	 1
   77    79	 1
   78    80	 1
   79    80	 1
   86    87	 1
   88    89	 1
   89    90	 1
   90    91	 1
   91    92	 1
   94    96	 1
   95    96	 1
   97    99	 1
   97    98	 1
   99   100	 1
  101   102	 1
  102   103	 1
  103   104	 1
  104   105	 1
  106   107	 1
  107   108	 1
  108   109	 1
  109   110	 1

[ angles ]
;	ai	  aj	ak funct			c0			  c1			c2			  c3
    5     1     6	5 ;      OG301      CG331       HGA3
    5     1     7	5 ;      OG301      CG331       HGA3
    5     1     8	5 ;      OG301      CG331       HGA3
    6     1     7	5 ;       HGA3      CG331       HGA3
    6     1     8	5 ;       HGA3      CG331       HGA3
    7     1     8	5 ;       HGA3      CG331       HGA3
    3     2     4	5 ;      CG331      CG301      CG331
    3     2    63	5 ;      CG331      CG301      OG301
    3     2     5	5 ;      CG331      CG301      OG301
    4     2    63	5 ;      CG331      CG301      OG301
    4     2     5	5 ;      CG331      CG301      OG301
   63     2     5	5 ;      OG301      CG301      OG301
    2     3     9	5 ;      CG301      CG331       HGA3
    2     3    10	5 ;      CG301      CG331       HGA3
    2     3    11	5 ;      CG301      CG331       HGA3
    9     3    10	5 ;       HGA3      CG331       HGA3
    9     3    11	5 ;       HGA3      CG331       HGA3
   10     3    11	5 ;       HGA3      CG331       HGA3
    2     4    12	5 ;      CG301      CG331       HGA3
    2     4    13	5 ;      CG301      CG331       HGA3
    2     4    14	5 ;      CG301      CG331       HGA3
   12     4    13	5 ;       HGA3      CG331       HGA3
   12     4    14	5 ;       HGA3      CG331       HGA3
   13     4    14	5 ;       HGA3      CG331       HGA3
    1     5     2	5 ;      CG331      OG301      CG301
   38    15   100	5 ;      CG2O1      NG2S1       HGP1
   38    15    37	5 ;      CG2O1      NG2S1      CG311
  100    15    37	5 ;       HGP1      NG2S1      CG311
   17    16    58	5 ;      CG321      CG311      CG301
   17    16    77	5 ;      CG321      CG311       HGA1
   17    16    63	5 ;      CG321      CG311      OG301
   58    16    77	5 ;      CG301      CG311       HGA1
   58    16    63	5 ;      CG301      CG311      OG301
   77    16    63	5 ;       HGA1      CG311      OG301
   16    17    18	5 ;      CG311      CG321     CG3RC1
   16    17    78	5 ;      CG311      CG321       HGA2
   16    17    79	5 ;      CG311      CG321       HGA2
   18    17    78	5 ;     CG3RC1      CG321       HGA2
   18    17    79	5 ;     CG3RC1      CG321       HGA2
   78    17    79	5 ;       HGA2      CG321       HGA2
   17    18    20	5 ;      CG321     CG3RC1     CG3RC1
   17    18    64	5 ;      CG321     CG3RC1     OG3C51
   17    18    80	5 ;      CG321     CG3RC1       HGA1
   20    18    64	5 ;     CG3RC1     CG3RC1     OG3C51
   20    18    80	5 ;     CG3RC1     CG3RC1       HGA1
   64    18    80	5 ;     OG3C51     CG3RC1       HGA1
   20    19    81	5 ;     CG3RC1     CG3C41       HGA2
   20    19    82	5 ;     CG3RC1     CG3C41       HGA2
   20    19    64	5 ;     CG3RC1     CG3C41     OG3C51
   81    19    82	5 ;       HGA2     CG3C41       HGA2
   81    19    64	5 ;       HGA2     CG3C41     OG3C51
   82    19    64	5 ;       HGA2     CG3C41     OG3C51
   18    20    19	5 ;     CG3RC1     CG3RC1     CG3C41
   18    20    23	5 ;     CG3RC1     CG3RC1      CG311
   18    20    65	5 ;     CG3RC1     CG3RC1      OG302
   19    20    23	5 ;     CG3C41     CG3RC1      CG311
   19    20    65	5 ;     CG3C41     CG3RC1      OG302
   23    20    65	5 ;      CG311     CG3RC1      OG302
   22    21    66	5 ;      CG331      CG2O2      OG2D1
   22    21    65	5 ;      CG331      CG2O2      OG302
   66    21    65	5 ;      OG2D1      CG2O2      OG302
   21    22    83	5 ;      CG2O2      CG331       HGA3
   21    22    84	5 ;      CG2O2      CG331       HGA3
   21    22    85	5 ;      CG2O2      CG331       HGA3
   83    22    84	5 ;       HGA3      CG331       HGA3
   83    22    85	5 ;       HGA3      CG331       HGA3
   84    22    85	5 ;       HGA3      CG331       HGA3
   20    23    24	5 ;     CG3RC1      CG311      CG311
   20    23    58	5 ;     CG3RC1      CG311      CG301
   20    23    86	5 ;     CG3RC1      CG311       HGA1
   24    23    58	5 ;      CG311      CG311      CG301
   24    23    86	5 ;      CG311      CG311       HGA1
   58    23    86	5 ;      CG301      CG311       HGA1
   23    24    32	5 ;      CG311      CG311      CG301
   23    24    67	5 ;      CG311      CG311      OG302
   23    24    87	5 ;      CG311      CG311       HGA1
   32    24    67	5 ;      CG301      CG311      OG302
   32    24    87	5 ;      CG301      CG311       HGA1
   67    24    87	5 ;      OG302      CG311       HGA1
   26    25    68	5 ;     CG2R61      CG2O2      OG2D1
   26    25    67	5 ;     CG2R61      CG2O2      OG302
   68    25    67	5 ;      OG2D1      CG2O2      OG302
   25    26    27	5 ;      CG2O2     CG2R61     CG2R61
   25    26    31	5 ;      CG2O2     CG2R61     CG2R61
   27    26    31	5 ;     CG2R61     CG2R61     CG2R61
   26    27    28	5 ;     CG2R61     CG2R61     CG2R61
   26    27    88	5 ;     CG2R61     CG2R61      HGR61
   28    27    88	5 ;     CG2R61     CG2R61      HGR61
   27    28    29	5 ;     CG2R61     CG2R61     CG2R61
   27    28    89	5 ;     CG2R61     CG2R61      HGR61
   29    28    89	5 ;     CG2R61     CG2R61      HGR61
   28    29    30	5 ;     CG2R61     CG2R61     CG2R61
   28    29    90	5 ;     CG2R61     CG2R61      HGR61
   30    29    90	5 ;     CG2R61     CG2R61      HGR61
   29    30    31	5 ;     CG2R61     CG2R61     CG2R61
   29    30    91	5 ;     CG2R61     CG2R61      HGR61
   31    30    91	5 ;     CG2R61     CG2R61      HGR61
   26    31    30	5 ;     CG2R61     CG2R61     CG2R61
   26    31    92	5 ;     CG2R61     CG2R61      HGR61
   30    31    92	5 ;     CG2R61     CG2R61      HGR61
   24    32    33	5 ;      CG311      CG301      CG321
   24    32    60	5 ;      CG311      CG301      CG301
   24    32    69	5 ;      CG311      CG301      OG311
   33    32    60	5 ;      CG321      CG301      CG301
   33    32    69	5 ;      CG321      CG301      OG311
   60    32    69	5 ;      CG301      CG301      OG311
   32    33    34	5 ;      CG301      CG321      CG311
   32    33    94	5 ;      CG301      CG321       HGA2
   32    33    95	5 ;      CG301      CG321       HGA2
   34    33    94	5 ;      CG311      CG321       HGA2
   34    33    95	5 ;      CG311      CG321       HGA2
   94    33    95	5 ;       HGA2      CG321       HGA2
   33    34    51	5 ;      CG321      CG311      CG2D1
   33    34    70	5 ;      CG321      CG311      OG302
   33    34    96	5 ;      CG321      CG311       HGA1
   51    34    70	5 ;      CG2D1      CG311      OG302
   51    34    96	5 ;      CG2D1      CG311       HGA1
   70    34    96	5 ;      OG302      CG311       HGA1
   36    35    71	5 ;      CG311      CG2O2      OG2D1
   36    35    70	5 ;      CG311      CG2O2      OG302
   71    35    70	5 ;      OG2D1      CG2O2      OG302
   35    36    37	5 ;      CG2O2      CG311      CG311
   35    36    72	5 ;      CG2O2      CG311      OG311
   35    36    97	5 ;      CG2O2      CG311       HGA1
   37    36    72	5 ;      CG311      CG311      OG311
   37    36    97	5 ;      CG311      CG311       HGA1
   72    36    97	5 ;      OG311      CG311       HGA1
   36    37    15	5 ;      CG311      CG311      NG2S1
   36    37    45	5 ;      CG311      CG311     CG2R61
   36    37    99	5 ;      CG311      CG311       HGA1
   15    37    45	5 ;      NG2S1      CG311     CG2R61
   15    37    99	5 ;      NG2S1      CG311       HGA1
   45    37    99	5 ;     CG2R61      CG311       HGA1
   15    38    39	5 ;      NG2S1      CG2O1     CG2R61
   15    38    73	5 ;      NG2S1      CG2O1      OG2D1
   39    38    73	5 ;     CG2R61      CG2O1      OG2D1
   38    39    40	5 ;      CG2O1     CG2R61     CG2R61
   38    39    44	5 ;      CG2O1     CG2R61     CG2R61
   40    39    44	5 ;     CG2R61     CG2R61     CG2R61
   39    40    41	5 ;     CG2R61     CG2R61     CG2R61
   39    40   101	5 ;     CG2R61     CG2R61      HGR61
   41    40   101	5 ;     CG2R61     CG2R61      HGR61
   40    41    42	5 ;     CG2R61     CG2R61     CG2R61
   40    41   102	5 ;     CG2R61     CG2R61      HGR61
   42    41   102	5 ;     CG2R61     CG2R61      HGR61
   41    42    43	5 ;     CG2R61     CG2R61     CG2R61
   41    42   103	5 ;     CG2R61     CG2R61      HGR61
   43    42   103	5 ;     CG2R61     CG2R61      HGR61
   42    43    44	5 ;     CG2R61     CG2R61     CG2R61
   42    43   104	5 ;     CG2R61     CG2R61      HGR61
   44    43   104	5 ;     CG2R61     CG2R61      HGR61
   39    44    43	5 ;     CG2R61     CG2R61     CG2R61
   39    44   105	5 ;     CG2R61     CG2R61      HGR61
   43    44   105	5 ;     CG2R61     CG2R61      HGR61
   37    45    46	5 ;      CG311     CG2R61     CG2R61
   37    45    50	5 ;      CG311     CG2R61     CG2R61
   46    45    50	5 ;     CG2R61     CG2R61     CG2R61
   45    46    47	5 ;     CG2R61     CG2R61     CG2R61
   45    46   106	5 ;     CG2R61     CG2R61      HGR61
   47    46   106	5 ;     CG2R61     CG2R61      HGR61
   46    47    48	5 ;     CG2R61     CG2R61     CG2R61
   46    47   107	5 ;     CG2R61     CG2R61      HGR61
   48    47   107	5 ;     CG2R61     CG2R61      HGR61
   47    48    49	5 ;     CG2R61     CG2R61     CG2R61
   47    48   108	5 ;     CG2R61     CG2R61      HGR61
   49    48   108	5 ;     CG2R61     CG2R61      HGR61
   48    49    50	5 ;     CG2R61     CG2R61     CG2R61
   48    49   109	5 ;     CG2R61     CG2R61      HGR61
   50    49   109	5 ;     CG2R61     CG2R61      HGR61
   45    50    49	5 ;     CG2R61     CG2R61     CG2R61
   45    50   110	5 ;     CG2R61     CG2R61      HGR61
   49    50   110	5 ;     CG2R61     CG2R61      HGR61
   34    51    52	5 ;      CG311      CG2D1      CG331
   34    51    53	5 ;      CG311      CG2D1      CG2D1
   52    51    53	5 ;      CG331      CG2D1      CG2D1
   51    52   111	5 ;      CG2D1      CG331       HGA3
   51    52   112	5 ;      CG2D1      CG331       HGA3
   51    52   113	5 ;      CG2D1      CG331       HGA3
  111    52   112	5 ;       HGA3      CG331       HGA3
  111    52   113	5 ;       HGA3      CG331       HGA3
  112    52   113	5 ;       HGA3      CG331       HGA3
   51    53    54	5 ;      CG2D1      CG2D1      CG311
   51    53    60	5 ;      CG2D1      CG2D1      CG301
   54    53    60	5 ;      CG311      CG2D1      CG301
   53    54    57	5 ;      CG2D1      CG311      CG2O5
   53    54    74	5 ;      CG2D1      CG311      OG302
   53    54   114	5 ;      CG2D1      CG311       HGA1
   57    54    74	5 ;      CG2O5      CG311      OG302
   57    54   114	5 ;      CG2O5      CG311       HGA1
   74    54   114	5 ;      OG302      CG311       HGA1
   56    55    75	5 ;      CG331      CG2O2      OG2D1
   56    55    74	5 ;      CG331      CG2O2      OG302
   75    55    74	5 ;      OG2D1      CG2O2      OG302
   55    56   115	5 ;      CG2O2      CG331       HGA3
   55    56   116	5 ;      CG2O2      CG331       HGA3
   55    56   117	5 ;      CG2O2      CG331       HGA3
  115    56   116	5 ;       HGA3      CG331       HGA3
  115    56   117	5 ;       HGA3      CG331       HGA3
  116    56   117	5 ;       HGA3      CG331       HGA3
   54    57    58	5 ;      CG311      CG2O5      CG301
   54    57    76	5 ;      CG311      CG2O5      OG2D3
   58    57    76	5 ;      CG301      CG2O5      OG2D3
   16    58    23	5 ;      CG311      CG301      CG311
   16    58    57	5 ;      CG311      CG301      CG2O5
   16    58    59	5 ;      CG311      CG301      CG331
   23    58    57	5 ;      CG311      CG301      CG2O5
   23    58    59	5 ;      CG311      CG301      CG331
   57    58    59	5 ;      CG2O5      CG301      CG331
   58    59   118	5 ;      CG301      CG331       HGA3
   58    59   119	5 ;      CG301      CG331       HGA3
   58    59   120	5 ;      CG301      CG331       HGA3
  118    59   119	5 ;       HGA3      CG331       HGA3
  118    59   120	5 ;       HGA3      CG331       HGA3
  119    59   120	5 ;       HGA3      CG331       HGA3
   32    60    53	5 ;      CG301      CG301      CG2D1
   32    60    61	5 ;      CG301      CG301      CG331
   32    60    62	5 ;      CG301      CG301      CG331
   53    60    61	5 ;      CG2D1      CG301      CG331
   53    60    62	5 ;      CG2D1      CG301      CG331
   61    60    62	5 ;      CG331      CG301      CG331
   60    61   121	5 ;      CG301      CG331       HGA3
   60    61   122	5 ;      CG301      CG331       HGA3
   60    61   123	5 ;      CG301      CG331       HGA3
  121    61   122	5 ;       HGA3      CG331       HGA3
  121    61   123	5 ;       HGA3      CG331       HGA3
  122    61   123	5 ;       HGA3      CG331       HGA3
   60    62   124	5 ;      CG301      CG331       HGA3
   60    62   125	5 ;      CG301      CG331       HGA3
   60    62   126	5 ;      CG301      CG331       HGA3
  124    62   125	5 ;       HGA3      CG331       HGA3
  124    62   126	5 ;       HGA3      CG331       HGA3
  125    62   126	5 ;       HGA3      CG331       HGA3
    2    63    16	5 ;      CG301      OG301      CG311
   18    64    19	5 ;     CG3RC1     OG3C51     CG3C41
   20    65    21	5 ;     CG3RC1      OG302      CG2O2
   24    67    25	5 ;      CG311      OG302      CG2O2
   32    69    93	5 ;      CG301      OG311       HGP1
   34    70    35	5 ;      CG311      OG302      CG2O2
   36    72    98	5 ;      CG311      OG311       HGP1
   54    74    55	5 ;      CG311      OG302      CG2O2

[ dihedrals ]
;	ai	  aj	ak	  al funct			  c0			c1			  c2			c3			  c4			c5
    6     1     5     2	 9 ;       HGA3      CG331      OG301      CG301
    7     1     5     2	 9 ;       HGA3      CG331      OG301      CG301
    8     1     5     2	 9 ;       HGA3      CG331      OG301      CG301
    4     2     3     9	 9 ;      CG331      CG301      CG331       HGA3
    4     2     3    10	 9 ;      CG331      CG301      CG331       HGA3
    4     2     3    11	 9 ;      CG331      CG301      CG331       HGA3
   63     2     3     9	 9 ;      OG301      CG301      CG331       HGA3
   63     2     3    10	 9 ;      OG301      CG301      CG331       HGA3
   63     2     3    11	 9 ;      OG301      CG301      CG331       HGA3
    5     2     3     9	 9 ;      OG301      CG301      CG331       HGA3
    5     2     3    10	 9 ;      OG301      CG301      CG331       HGA3
    5     2     3    11	 9 ;      OG301      CG301      CG331       HGA3
    3     2     4    12	 9 ;      CG331      CG301      CG331       HGA3
    3     2     4    13	 9 ;      CG331      CG301      CG331       HGA3
    3     2     4    14	 9 ;      CG331      CG301      CG331       HGA3
   63     2     4    12	 9 ;      OG301      CG301      CG331       HGA3
   63     2     4    13	 9 ;      OG301      CG301      CG331       HGA3
   63     2     4    14	 9 ;      OG301      CG301      CG331       HGA3
    5     2     4    12	 9 ;      OG301      CG301      CG331       HGA3
    5     2     4    13	 9 ;      OG301      CG301      CG331       HGA3
    5     2     4    14	 9 ;      OG301      CG301      CG331       HGA3
    3     2    63    16	 9 ;      CG331      CG301      OG301      CG311
    4     2    63    16	 9 ;      CG331      CG301      OG301      CG311
    5     2    63    16	 9 ;      OG301      CG301      OG301      CG311
    3     2     5     1	 9 ;      CG331      CG301      OG301      CG331
    4     2     5     1	 9 ;      CG331      CG301      OG301      CG331
   63     2     5     1	 9 ;      OG301      CG301      OG301      CG331
  100    15    38    39	 9 ;       HGP1      NG2S1      CG2O1     CG2R61
  100    15    38    73	 9 ;       HGP1      NG2S1      CG2O1      OG2D1
   37    15    38    39	 9 ;      CG311      NG2S1      CG2O1     CG2R61
   37    15    38    73	 9 ;      CG311      NG2S1      CG2O1      OG2D1
   38    15    37    36	 9 ;      CG2O1      NG2S1      CG311      CG311
   38    15    37    45	 9 ;      CG2O1      NG2S1      CG311     CG2R61
   38    15    37    99	 9 ;      CG2O1      NG2S1      CG311       HGA1
  100    15    37    36	 9 ;       HGP1      NG2S1      CG311      CG311
  100    15    37    45	 9 ;       HGP1      NG2S1      CG311     CG2R61
  100    15    37    99	 9 ;       HGP1      NG2S1      CG311       HGA1
   58    16    17    18	 9 ;      CG301      CG311      CG321     CG3RC1
   58    16    17    78	 9 ;      CG301      CG311      CG321       HGA2
   58    16    17    79	 9 ;      CG301      CG311      CG321       HGA2
   77    16    17    18	 9 ;       HGA1      CG311      CG321     CG3RC1
   77    16    17    78	 9 ;       HGA1      CG311      CG321       HGA2
   77    16    17    79	 9 ;       HGA1      CG311      CG321       HGA2
   63    16    17    18	 9 ;      OG301      CG311      CG321     CG3RC1
   63    16    17    78	 9 ;      OG301      CG311      CG321       HGA2
   63    16    17    79	 9 ;      OG301      CG311      CG321       HGA2
   17    16    58    23	 9 ;      CG321      CG311      CG301      CG311
   17    16    58    57	 9 ;      CG321      CG311      CG301      CG2O5
   17    16    58    59	 9 ;      CG321      CG311      CG301      CG331
   77    16    58    23	 9 ;       HGA1      CG311      CG301      CG311
   77    16    58    57	 9 ;       HGA1      CG311      CG301      CG2O5
   77    16    58    59	 9 ;       HGA1      CG311      CG301      CG331
   63    16    58    23	 9 ;      OG301      CG311      CG301      CG311
   63    16    58    57	 9 ;      OG301      CG311      CG301      CG2O5
   63    16    58    59	 9 ;      OG301      CG311      CG301      CG331
   17    16    63     2	 9 ;      CG321      CG311      OG301      CG301
   58    16    63     2	 9 ;      CG301      CG311      OG301      CG301
   77    16    63     2	 9 ;       HGA1      CG311      OG301      CG301
   16    17    18    20	 9 ;      CG311      CG321     CG3RC1     CG3RC1
   16    17    18    64	 9 ;      CG311      CG321     CG3RC1     OG3C51
   16    17    18    80	 9 ;      CG311      CG321     CG3RC1       HGA1
   78    17    18    20	 9 ;       HGA2      CG321     CG3RC1     CG3RC1
   78    17    18    64	 9 ;       HGA2      CG321     CG3RC1     OG3C51
   78    17    18    80	 9 ;       HGA2      CG321     CG3RC1       HGA1
   79    17    18    20	 9 ;       HGA2      CG321     CG3RC1     CG3RC1
   79    17    18    64	 9 ;       HGA2      CG321     CG3RC1     OG3C51
   79    17    18    80	 9 ;       HGA2      CG321     CG3RC1       HGA1
   17    18    20    19	 9 ;      CG321     CG3RC1     CG3RC1     CG3C41
   17    18    20    23	 9 ;      CG321     CG3RC1     CG3RC1      CG311
   17    18    20    65	 9 ;      CG321     CG3RC1     CG3RC1      OG302
   64    18    20    19	 9 ;     OG3C51     CG3RC1     CG3RC1     CG3C41
   64    18    20    23	 9 ;     OG3C51     CG3RC1     CG3RC1      CG311
   64    18    20    65	 9 ;     OG3C51     CG3RC1     CG3RC1      OG302
   80    18    20    19	 9 ;       HGA1     CG3RC1     CG3RC1     CG3C41
   80    18    20    23	 9 ;       HGA1     CG3RC1     CG3RC1      CG311
   80    18    20    65	 9 ;       HGA1     CG3RC1     CG3RC1      OG302
   17    18    64    19	 9 ;      CG321     CG3RC1     OG3C51     CG3C41
   20    18    64    19	 9 ;     CG3RC1     CG3RC1     OG3C51     CG3C41
   80    18    64    19	 9 ;       HGA1     CG3RC1     OG3C51     CG3C41
   81    19    20    18	 9 ;       HGA2     CG3C41     CG3RC1     CG3RC1
   81    19    20    23	 9 ;       HGA2     CG3C41     CG3RC1      CG311
   81    19    20    65	 9 ;       HGA2     CG3C41     CG3RC1      OG302
   82    19    20    18	 9 ;       HGA2     CG3C41     CG3RC1     CG3RC1
   82    19    20    23	 9 ;       HGA2     CG3C41     CG3RC1      CG311
   82    19    20    65	 9 ;       HGA2     CG3C41     CG3RC1      OG302
   64    19    20    18	 9 ;     OG3C51     CG3C41     CG3RC1     CG3RC1
   64    19    20    23	 9 ;     OG3C51     CG3C41     CG3RC1      CG311
   64    19    20    65	 9 ;     OG3C51     CG3C41     CG3RC1      OG302
   20    19    64    18	 9 ;     CG3RC1     CG3C41     OG3C51     CG3RC1
   81    19    64    18	 9 ;       HGA2     CG3C41     OG3C51     CG3RC1
   82    19    64    18	 9 ;       HGA2     CG3C41     OG3C51     CG3RC1
   18    20    23    24	 9 ;     CG3RC1     CG3RC1      CG311      CG311
   18    20    23    58	 9 ;     CG3RC1     CG3RC1      CG311      CG301
   18    20    23    86	 9 ;     CG3RC1     CG3RC1      CG311       HGA1
   19    20    23    24	 9 ;     CG3C41     CG3RC1      CG311      CG311
   19    20    23    58	 9 ;     CG3C41     CG3RC1      CG311      CG301
   19    20    23    86	 9 ;     CG3C41     CG3RC1      CG311       HGA1
   65    20    23    24	 9 ;      OG302     CG3RC1      CG311      CG311
   65    20    23    58	 9 ;      OG302     CG3RC1      CG311      CG301
   65    20    23    86	 9 ;      OG302     CG3RC1      CG311       HGA1
   18    20    65    21	 9 ;     CG3RC1     CG3RC1      OG302      CG2O2
   19    20    65    21	 9 ;     CG3C41     CG3RC1      OG302      CG2O2
   23    20    65    21	 9 ;      CG311     CG3RC1      OG302      CG2O2
   66    21    22    83	 9 ;      OG2D1      CG2O2      CG331       HGA3
   66    21    22    84	 9 ;      OG2D1      CG2O2      CG331       HGA3
   66    21    22    85	 9 ;      OG2D1      CG2O2      CG331       HGA3
   65    21    22    83	 9 ;      OG302      CG2O2      CG331       HGA3
   65    21    22    84	 9 ;      OG302      CG2O2      CG331       HGA3
   65    21    22    85	 9 ;      OG302      CG2O2      CG331       HGA3
   22    21    65    20	 9 ;      CG331      CG2O2      OG302     CG3RC1
   66    21    65    20	 9 ;      OG2D1      CG2O2      OG302     CG3RC1
   20    23    24    32	 9 ;     CG3RC1      CG311      CG311      CG301
   20    23    24    67	 9 ;     CG3RC1      CG311      CG311      OG302
   20    23    24    87	 9 ;     CG3RC1      CG311      CG311       HGA1
   58    23    24    32	 9 ;      CG301      CG311      CG311      CG301
   58    23    24    67	 9 ;      CG301      CG311      CG311      OG302
   58    23    24    87	 9 ;      CG301      CG311      CG311       HGA1
   86    23    24    32	 9 ;       HGA1      CG311      CG311      CG301
   86    23    24    67	 9 ;       HGA1      CG311      CG311      OG302
   86    23    24    87	 9 ;       HGA1      CG311      CG311       HGA1
   20    23    58    16	 9 ;     CG3RC1      CG311      CG301      CG311
   20    23    58    57	 9 ;     CG3RC1      CG311      CG301      CG2O5
   20    23    58    59	 9 ;     CG3RC1      CG311      CG301      CG331
   24    23    58    16	 9 ;      CG311      CG311      CG301      CG311
   24    23    58    57	 9 ;      CG311      CG311      CG301      CG2O5
   24    23    58    59	 9 ;      CG311      CG311      CG301      CG331
   86    23    58    16	 9 ;       HGA1      CG311      CG301      CG311
   86    23    58    57	 9 ;       HGA1      CG311      CG301      CG2O5
   86    23    58    59	 9 ;       HGA1      CG311      CG301      CG331
   23    24    32    33	 9 ;      CG311      CG311      CG301      CG321
   23    24    32    60	 9 ;      CG311      CG311      CG301      CG301
   23    24    32    69	 9 ;      CG311      CG311      CG301      OG311
   67    24    32    33	 9 ;      OG302      CG311      CG301      CG321
   67    24    32    60	 9 ;      OG302      CG311      CG301      CG301
   67    24    32    69	 9 ;      OG302      CG311      CG301      OG311
   87    24    32    33	 9 ;       HGA1      CG311      CG301      CG321
   87    24    32    60	 9 ;       HGA1      CG311      CG301      CG301
   87    24    32    69	 9 ;       HGA1      CG311      CG301      OG311
   23    24    67    25	 9 ;      CG311      CG311      OG302      CG2O2
   32    24    67    25	 9 ;      CG301      CG311      OG302      CG2O2
   87    24    67    25	 9 ;       HGA1      CG311      OG302      CG2O2
   68    25    26    27	 9 ;      OG2D1      CG2O2     CG2R61     CG2R61
   68    25    26    31	 9 ;      OG2D1      CG2O2     CG2R61     CG2R61
   67    25    26    27	 9 ;      OG302      CG2O2     CG2R61     CG2R61
   67    25    26    31	 9 ;      OG302      CG2O2     CG2R61     CG2R61
   26    25    67    24	 9 ;     CG2R61      CG2O2      OG302      CG311
   68    25    67    24	 9 ;      OG2D1      CG2O2      OG302      CG311
   25    26    27    28	 9 ;      CG2O2     CG2R61     CG2R61     CG2R61
   25    26    27    88	 9 ;      CG2O2     CG2R61     CG2R61      HGR61
   31    26    27    28	 9 ;     CG2R61     CG2R61     CG2R61     CG2R61
   31    26    27    88	 9 ;     CG2R61     CG2R61     CG2R61      HGR61
   25    26    31    30	 9 ;      CG2O2     CG2R61     CG2R61     CG2R61
   25    26    31    92	 9 ;      CG2O2     CG2R61     CG2R61      HGR61
   27    26    31    30	 9 ;     CG2R61     CG2R61     CG2R61     CG2R61
   27    26    31    92	 9 ;     CG2R61     CG2R61     CG2R61      HGR61
   26    27    28    29	 9 ;     CG2R61     CG2R61     CG2R61     CG2R61
   26    27    28    89	 9 ;     CG2R61     CG2R61     CG2R61      HGR61
   88    27    28    29	 9 ;      HGR61     CG2R61     CG2R61     CG2R61
   88    27    28    89	 9 ;      HGR61     CG2R61     CG2R61      HGR61
   27    28    29    30	 9 ;     CG2R61     CG2R61     CG2R61     CG2R61
   27    28    29    90	 9 ;     CG2R61     CG2R61     CG2R61      HGR61
   89    28    29    30	 9 ;      HGR61     CG2R61     CG2R61     CG2R61
   89    28    29    90	 9 ;      HGR61     CG2R61     CG2R61      HGR61
   28    29    30    31	 9 ;     CG2R61     CG2R61     CG2R61     CG2R61
   28    29    30    91	 9 ;     CG2R61     CG2R61     CG2R61      HGR61
   90    29    30    31	 9 ;      HGR61     CG2R61     CG2R61     CG2R61
   90    29    30    91	 9 ;      HGR61     CG2R61     CG2R61      HGR61
   29    30    31    26	 9 ;     CG2R61     CG2R61     CG2R61     CG2R61
   29    30    31    92	 9 ;     CG2R61     CG2R61     CG2R61      HGR61
   91    30    31    26	 9 ;      HGR61     CG2R61     CG2R61     CG2R61
   91    30    31    92	 9 ;      HGR61     CG2R61     CG2R61      HGR61
   24    32    33    34	 9 ;      CG311      CG301      CG321      CG311
   24    32    33    94	 9 ;      CG311      CG301      CG321       HGA2
   24    32    33    95	 9 ;      CG311      CG301      CG321       HGA2
   60    32    33    34	 9 ;      CG301      CG301      CG321      CG311
   60    32    33    94	 9 ;      CG301      CG301      CG321       HGA2
   60    32    33    95	 9 ;      CG301      CG301      CG321       HGA2
   69    32    33    34	 9 ;      OG311      CG301      CG321      CG311
   69    32    33    94	 9 ;      OG311      CG301      CG321       HGA2
   69    32    33    95	 9 ;      OG311      CG301      CG321       HGA2
   24    32    60    53	 9 ;      CG311      CG301      CG301      CG2D1
   24    32    60    61	 9 ;      CG311      CG301      CG301      CG331
   24    32    60    62	 9 ;      CG311      CG301      CG301      CG331
   33    32    60    53	 9 ;      CG321      CG301      CG301      CG2D1
   33    32    60    61	 9 ;      CG321      CG301      CG301      CG331
   33    32    60    62	 9 ;      CG321      CG301      CG301      CG331
   69    32    60    53	 9 ;      OG311      CG301      CG301      CG2D1
   69    32    60    61	 9 ;      OG311      CG301      CG301      CG331
   69    32    60    62	 9 ;      OG311      CG301      CG301      CG331
   24    32    69    93	 9 ;      CG311      CG301      OG311       HGP1
   33    32    69    93	 9 ;      CG321      CG301      OG311       HGP1
   60    32    69    93	 9 ;      CG301      CG301      OG311       HGP1
   32    33    34    51	 9 ;      CG301      CG321      CG311      CG2D1
   32    33    34    70	 9 ;      CG301      CG321      CG311      OG302
   32    33    34    96	 9 ;      CG301      CG321      CG311       HGA1
   94    33    34    51	 9 ;       HGA2      CG321      CG311      CG2D1
   94    33    34    70	 9 ;       HGA2      CG321      CG311      OG302
   94    33    34    96	 9 ;       HGA2      CG321      CG311       HGA1
   95    33    34    51	 9 ;       HGA2      CG321      CG311      CG2D1
   95    33    34    70	 9 ;       HGA2      CG321      CG311      OG302
   95    33    34    96	 9 ;       HGA2      CG321      CG311       HGA1
   33    34    51    52	 9 ;      CG321      CG311      CG2D1      CG331
   33    34    51    53	 9 ;      CG321      CG311      CG2D1      CG2D1
   70    34    51    52	 9 ;      OG302      CG311      CG2D1      CG331
   70    34    51    53	 9 ;      OG302      CG311      CG2D1      CG2D1
   96    34    51    52	 9 ;       HGA1      CG311      CG2D1      CG331
   96    34    51    53	 9 ;       HGA1      CG311      CG2D1      CG2D1
   33    34    70    35	 9 ;      CG321      CG311      OG302      CG2O2
   51    34    70    35	 9 ;      CG2D1      CG311      OG302      CG2O2
   96    34    70    35	 9 ;       HGA1      CG311      OG302      CG2O2
   71    35    36    37	 9 ;      OG2D1      CG2O2      CG311      CG311
   71    35    36    72	 9 ;      OG2D1      CG2O2      CG311      OG311
   71    35    36    97	 9 ;      OG2D1      CG2O2      CG311       HGA1
   70    35    36    37	 9 ;      OG302      CG2O2      CG311      CG311
   70    35    36    72	 9 ;      OG302      CG2O2      CG311      OG311
   70    35    36    97	 9 ;      OG302      CG2O2      CG311       HGA1
   36    35    70    34	 9 ;      CG311      CG2O2      OG302      CG311
   71    35    70    34	 9 ;      OG2D1      CG2O2      OG302      CG311
   35    36    37    15	 9 ;      CG2O2      CG311      CG311      NG2S1
   35    36    37    45	 9 ;      CG2O2      CG311      CG311     CG2R61
   35    36    37    99	 9 ;      CG2O2      CG311      CG311       HGA1
   72    36    37    15	 9 ;      OG311      CG311      CG311      NG2S1
   72    36    37    45	 9 ;      OG311      CG311      CG311     CG2R61
   72    36    37    99	 9 ;      OG311      CG311      CG311       HGA1
   97    36    37    15	 9 ;       HGA1      CG311      CG311      NG2S1
   97    36    37    45	 9 ;       HGA1      CG311      CG311     CG2R61
   97    36    37    99	 9 ;       HGA1      CG311      CG311       HGA1
   35    36    72    98	 9 ;      CG2O2      CG311      OG311       HGP1
   37    36    72    98	 9 ;      CG311      CG311      OG311       HGP1
   97    36    72    98	 9 ;       HGA1      CG311      OG311       HGP1
   36    37    45    46	 9 ;      CG311      CG311     CG2R61     CG2R61
   36    37    45    50	 9 ;      CG311      CG311     CG2R61     CG2R61
   15    37    45    46	 9 ;      NG2S1      CG311     CG2R61     CG2R61
   15    37    45    50	 9 ;      NG2S1      CG311     CG2R61     CG2R61
   99    37    45    46	 9 ;       HGA1      CG311     CG2R61     CG2R61
   99    37    45    50	 9 ;       HGA1      CG311     CG2R61     CG2R61
   15    38    39    40	 9 ;      NG2S1      CG2O1     CG2R61     CG2R61
   15    38    39    44	 9 ;      NG2S1      CG2O1     CG2R61     CG2R61
   73    38    39    40	 9 ;      OG2D1      CG2O1     CG2R61     CG2R61
   73    38    39    44	 9 ;      OG2D1      CG2O1     CG2R61     CG2R61
   38    39    40    41	 9 ;      CG2O1     CG2R61     CG2R61     CG2R61
   38    39    40   101	 9 ;      CG2O1     CG2R61     CG2R61      HGR61
   44    39    40    41	 9 ;     CG2R61     CG2R61     CG2R61     CG2R61
   44    39    40   101	 9 ;     CG2R61     CG2R61     CG2R61      HGR61
   38    39    44    43	 9 ;      CG2O1     CG2R61     CG2R61     CG2R61
   38    39    44   105	 9 ;      CG2O1     CG2R61     CG2R61      HGR61
   40    39    44    43	 9 ;     CG2R61     CG2R61     CG2R61     CG2R61
   40    39    44   105	 9 ;     CG2R61     CG2R61     CG2R61      HGR61
   39    40    41    42	 9 ;     CG2R61     CG2R61     CG2R61     CG2R61
   39    40    41   102	 9 ;     CG2R61     CG2R61     CG2R61      HGR61
  101    40    41    42	 9 ;      HGR61     CG2R61     CG2R61     CG2R61
  101    40    41   102	 9 ;      HGR61     CG2R61     CG2R61      HGR61
   40    41    42    43	 9 ;     CG2R61     CG2R61     CG2R61     CG2R61
   40    41    42   103	 9 ;     CG2R61     CG2R61     CG2R61      HGR61
  102    41    42    43	 9 ;      HGR61     CG2R61     CG2R61     CG2R61
  102    41    42   103	 9 ;      HGR61     CG2R61     CG2R61      HGR61
   41    42    43    44	 9 ;     CG2R61     CG2R61     CG2R61     CG2R61
   41    42    43   104	 9 ;     CG2R61     CG2R61     CG2R61      HGR61
  103    42    43    44	 9 ;      HGR61     CG2R61     CG2R61     CG2R61
  103    42    43   104	 9 ;      HGR61     CG2R61     CG2R61      HGR61
   42    43    44    39	 9 ;     CG2R61     CG2R61     CG2R61     CG2R61
   42    43    44   105	 9 ;     CG2R61     CG2R61     CG2R61      HGR61
  104    43    44    39	 9 ;      HGR61     CG2R61     CG2R61     CG2R61
  104    43    44   105	 9 ;      HGR61     CG2R61     CG2R61      HGR61
   37    45    46    47	 9 ;      CG311     CG2R61     CG2R61     CG2R61
   37    45    46   106	 9 ;      CG311     CG2R61     CG2R61      HGR61
   50    45    46    47	 9 ;     CG2R61     CG2R61     CG2R61     CG2R61
   50    45    46   106	 9 ;     CG2R61     CG2R61     CG2R61      HGR61
   37    45    50    49	 9 ;      CG311     CG2R61     CG2R61     CG2R61
   37    45    50   110	 9 ;      CG311     CG2R61     CG2R61      HGR61
   46    45    50    49	 9 ;     CG2R61     CG2R61     CG2R61     CG2R61
   46    45    50   110	 9 ;     CG2R61     CG2R61     CG2R61      HGR61
   45    46    47    48	 9 ;     CG2R61     CG2R61     CG2R61     CG2R61
   45    46    47   107	 9 ;     CG2R61     CG2R61     CG2R61      HGR61
  106    46    47    48	 9 ;      HGR61     CG2R61     CG2R61     CG2R61
  106    46    47   107	 9 ;      HGR61     CG2R61     CG2R61      HGR61
   46    47    48    49	 9 ;     CG2R61     CG2R61     CG2R61     CG2R61
   46    47    48   108	 9 ;     CG2R61     CG2R61     CG2R61      HGR61
  107    47    48    49	 9 ;      HGR61     CG2R61     CG2R61     CG2R61
  107    47    48   108	 9 ;      HGR61     CG2R61     CG2R61      HGR61
   47    48    49    50	 9 ;     CG2R61     CG2R61     CG2R61     CG2R61
   47    48    49   109	 9 ;     CG2R61     CG2R61     CG2R61      HGR61
  108    48    49    50	 9 ;      HGR61     CG2R61     CG2R61     CG2R61
  108    48    49   109	 9 ;      HGR61     CG2R61     CG2R61      HGR61
   48    49    50    45	 9 ;     CG2R61     CG2R61     CG2R61     CG2R61
   48    49    50   110	 9 ;     CG2R61     CG2R61     CG2R61      HGR61
  109    49    50    45	 9 ;      HGR61     CG2R61     CG2R61     CG2R61
  109    49    50   110	 9 ;      HGR61     CG2R61     CG2R61      HGR61
   34    51    52   111	 9 ;      CG311      CG2D1      CG331       HGA3
   34    51    52   112	 9 ;      CG311      CG2D1      CG331       HGA3
   34    51    52   113	 9 ;      CG311      CG2D1      CG331       HGA3
   53    51    52   111	 9 ;      CG2D1      CG2D1      CG331       HGA3
   53    51    52   112	 9 ;      CG2D1      CG2D1      CG331       HGA3
   53    51    52   113	 9 ;      CG2D1      CG2D1      CG331       HGA3
   34    51    53    54	 9 ;      CG311      CG2D1      CG2D1      CG311
   34    51    53    60	 9 ;      CG311      CG2D1      CG2D1      CG301
   52    51    53    54	 9 ;      CG331      CG2D1      CG2D1      CG311
   52    51    53    60	 9 ;      CG331      CG2D1      CG2D1      CG301
   51    53    54    57	 9 ;      CG2D1      CG2D1      CG311      CG2O5
   51    53    54    74	 9 ;      CG2D1      CG2D1      CG311      OG302
   51    53    54   114	 9 ;      CG2D1      CG2D1      CG311       HGA1
   60    53    54    57	 9 ;      CG301      CG2D1      CG311      CG2O5
   60    53    54    74	 9 ;      CG301      CG2D1      CG311      OG302
   60    53    54   114	 9 ;      CG301      CG2D1      CG311       HGA1
   51    53    60    32	 9 ;      CG2D1      CG2D1      CG301      CG301
   51    53    60    61	 9 ;      CG2D1      CG2D1      CG301      CG331
   51    53    60    62	 9 ;      CG2D1      CG2D1      CG301      CG331
   54    53    60    32	 9 ;      CG311      CG2D1      CG301      CG301
   54    53    60    61	 9 ;      CG311      CG2D1      CG301      CG331
   54    53    60    62	 9 ;      CG311      CG2D1      CG301      CG331
   53    54    57    58	 9 ;      CG2D1      CG311      CG2O5      CG301
   53    54    57    76	 9 ;      CG2D1      CG311      CG2O5      OG2D3
   74    54    57    58	 9 ;      OG302      CG311      CG2O5      CG301
   74    54    57    76	 9 ;      OG302      CG311      CG2O5      OG2D3
  114    54    57    58	 9 ;       HGA1      CG311      CG2O5      CG301
  114    54    57    76	 9 ;       HGA1      CG311      CG2O5      OG2D3
   53    54    74    55	 9 ;      CG2D1      CG311      OG302      CG2O2
   57    54    74    55	 9 ;      CG2O5      CG311      OG302      CG2O2
  114    54    74    55	 9 ;       HGA1      CG311      OG302      CG2O2
   75    55    56   115	 9 ;      OG2D1      CG2O2      CG331       HGA3
   75    55    56   116	 9 ;      OG2D1      CG2O2      CG331       HGA3
   75    55    56   117	 9 ;      OG2D1      CG2O2      CG331       HGA3
   74    55    56   115	 9 ;      OG302      CG2O2      CG331       HGA3
   74    55    56   116	 9 ;      OG302      CG2O2      CG331       HGA3
   74    55    56   117	 9 ;      OG302      CG2O2      CG331       HGA3
   56    55    74    54	 9 ;      CG331      CG2O2      OG302      CG311
   75    55    74    54	 9 ;      OG2D1      CG2O2      OG302      CG311
   54    57    58    16	 9 ;      CG311      CG2O5      CG301      CG311
   54    57    58    23	 9 ;      CG311      CG2O5      CG301      CG311
   54    57    58    59	 9 ;      CG311      CG2O5      CG301      CG331
   76    57    58    16	 9 ;      OG2D3      CG2O5      CG301      CG311
   76    57    58    23	 9 ;      OG2D3      CG2O5      CG301      CG311
   76    57    58    59	 9 ;      OG2D3      CG2O5      CG301      CG331
   16    58    59   118	 9 ;      CG311      CG301      CG331       HGA3
   16    58    59   119	 9 ;      CG311      CG301      CG331       HGA3
   16    58    59   120	 9 ;      CG311      CG301      CG331       HGA3
   23    58    59   118	 9 ;      CG311      CG301      CG331       HGA3
   23    58    59   119	 9 ;      CG311      CG301      CG331       HGA3
   23    58    59   120	 9 ;      CG311      CG301      CG331       HGA3
   57    58    59   118	 9 ;      CG2O5      CG301      CG331       HGA3
   57    58    59   119	 9 ;      CG2O5      CG301      CG331       HGA3
   57    58    59   120	 9 ;      CG2O5      CG301      CG331       HGA3
   32    60    61   121	 9 ;      CG301      CG301      CG331       HGA3
   32    60    61   122	 9 ;      CG301      CG301      CG331       HGA3
   32    60    61   123	 9 ;      CG301      CG301      CG331       HGA3
   53    60    61   121	 9 ;      CG2D1      CG301      CG331       HGA3
   53    60    61   122	 9 ;      CG2D1      CG301      CG331       HGA3
   53    60    61   123	 9 ;      CG2D1      CG301      CG331       HGA3
   62    60    61   121	 9 ;      CG331      CG301      CG331       HGA3
   62    60    61   122	 9 ;      CG331      CG301      CG331       HGA3
   62    60    61   123	 9 ;      CG331      CG301      CG331       HGA3
   32    60    62   124	 9 ;      CG301      CG301      CG331       HGA3
   32    60    62   125	 9 ;      CG301      CG301      CG331       HGA3
   32    60    62   126	 9 ;      CG301      CG301      CG331       HGA3
   53    60    62   124	 9 ;      CG2D1      CG301      CG331       HGA3
   53    60    62   125	 9 ;      CG2D1      CG301      CG331       HGA3
   53    60    62   126	 9 ;      CG2D1      CG301      CG331       HGA3
   61    60    62   124	 9 ;      CG331      CG301      CG331       HGA3
   61    60    62   125	 9 ;      CG331      CG301      CG331       HGA3
   61    60    62   126	 9 ;      CG331      CG301      CG331       HGA3

[ dihedrals ]
;	ai	  aj	ak	  al funct			  c0			c1			  c2			c3
   21    22    66    65	 2
   25    26    68    67	 2
   35    36    71    70	 2
   38    39    15    73	 2
   55    56    75    74	 2
   57    58    54    76	 2

