Built with Packmol
  722
    1MEG     C1    1   3.544   2.031  -0.268
    1MEG     O1    2   3.622   2.113  -0.345
    1MEG     C2    3   3.542   2.195  -0.430
    1MEG     C3    4   3.619   2.261  -0.542
    1MEG     O2    5   3.673   2.172  -0.645
    1MEG     H1    6   3.596   1.966  -0.195
    1MEG     H2    7   3.478   2.096  -0.207
    1MEG     H3    8   3.473   1.970  -0.328
    1MEG     H4    9   3.468   2.134  -0.486
    1MEG     H5   10   3.476   2.270  -0.381
    1MEG     H6   11   3.551   2.334  -0.591
    1MEG     H7   12   3.702   2.314  -0.492
    2EGO     C6   13   3.751   2.239  -0.738
    2EGO     C7   14   3.676   2.312  -0.846
    2EGO     O4   15   3.610   2.237  -0.948
    2EGO    H12   16   3.816   2.316  -0.692
    2EGO    H13   17   3.826   2.169  -0.780
    2EGO    H14   18   3.746   2.380  -0.898
    2EGO    H15   19   3.613   2.389  -0.798
    3EGO     C6   20   3.512   2.314  -1.018
    3EGO     C7   21   3.451   2.236  -1.135
    3EGO     O4   22   3.380   2.122  -1.089
    3EGO    H12   23   3.429   2.352  -0.954
    3EGO    H13   24   3.564   2.398  -1.069
    3EGO    H14   25   3.524   2.185  -1.202
    3EGO    H15   26   3.385   2.309  -1.186
    4EGO     C6   27   3.308   2.062  -1.198
    4EGO     C7   28   3.212   1.953  -1.149
    4EGO     O4   29   3.282   1.845  -1.096
    4EGO    H12   30   3.241   2.133  -1.252
    4EGO    H13   31   3.373   2.020  -1.277
    4EGO    H14   32   3.150   1.919  -1.235
    4EGO    H15   33   3.142   1.993  -1.072
    5EGO     C6   34   3.202   1.740  -1.040
    5EGO     C7   35   3.299   1.622  -1.003
    5EGO     O4   36   3.359   1.560  -1.117
    5EGO    H12   37   3.169   1.776  -0.940
    5EGO    H13   38   3.119   1.720  -1.110
    5EGO    H14   39   3.241   1.542  -0.953
    5EGO    H15   40   3.376   1.649  -0.928
    6EGO     C6   41   3.443   1.452  -1.086
    6EGO     C7   42   3.587   1.489  -1.064
    6EGO     O4   43   3.606   1.528  -0.929
    6EGO    H12   44   3.408   1.396  -0.998
    6EGO    H13   45   3.447   1.382  -1.173
    6EGO    H14   46   3.603   1.582  -1.122
    6EGO    H15   47   3.659   1.413  -1.100
    7EGO     C6   48   3.735   1.578  -0.900
    7EGO     C7   49   3.726   1.642  -0.766
    7EGO     O4   50   3.849   1.687  -0.716
    7EGO    H12   51   3.813   1.497  -0.899
    7EGO    H13   52   3.778   1.651  -0.972
    7EGO    H14   53   3.666   1.579  -0.697
    7EGO    H15   54   3.659   1.730  -0.786
    8EGO     C6   55   3.896   1.797  -0.791
    8EGO     C7   56   3.983   1.889  -0.698
    8EGO     O4   57   3.916   1.953  -0.588
    8EGO    H12   58   3.946   1.750  -0.879
    8EGO    H13   59   3.809   1.857  -0.826
    8EGO    H14   60   4.021   1.972  -0.760
    8EGO    H15   61   4.070   1.826  -0.669
    9EGO     C6   62   4.011   2.029  -0.515
    9EGO     C7   63   3.966   2.068  -0.376
    9EGO     O4   64   4.006   1.975  -0.286
    9EGO    H12   65   4.112   1.982  -0.508
    9EGO    H13   66   4.028   2.118  -0.579
    9EGO    H14   67   3.855   2.074  -0.365
    9EGO    H15   68   4.023   2.163  -0.370
   10EGO     C6   69   4.022   2.021  -0.153
   10EGO     C7   70   4.007   1.910  -0.053
   10EGO     O4   71   4.108   1.808  -0.060
   10EGO    H12   72   4.121   2.069  -0.134
   10EGO    H13   73   3.948   2.102  -0.135
   10EGO    H14   74   3.910   1.861  -0.074
   10EGO    H15   75   4.008   1.949   0.051
   11EGO     C6   76   4.073   1.685   0.004
   11EGO     C7   77   4.180   1.586  -0.040
   11EGO     O4   78   4.307   1.619   0.019
   11EGO    H12   79   4.079   1.696   0.114
   11EGO    H13   80   3.971   1.651  -0.025
   11EGO    H14   81   4.190   1.597  -0.150
   11EGO    H15   82   4.157   1.481  -0.011
   12EGO     C6   83   4.416   1.582  -0.060
   12EGO     C7   84   4.556   1.630  -0.001
   12EGO     O4   85   4.587   1.563   0.119
   12EGO    H12   86   4.410   1.471  -0.056
   12EGO    H13   87   4.406   1.622  -0.163
   12EGO    H14   88   4.539   1.737   0.022
   12EGO    H15   89   4.641   1.610  -0.070
   13EGO     C6   90   4.689   1.629   0.188
   13EGO     C7   91   4.708   1.542   0.317
   13EGO     O4   92   4.603   1.573   0.409
   13EGO    H12   93   4.784   1.625   0.132
   13EGO    H13   94   4.655   1.732   0.215
   13EGO    H14   95   4.804   1.576   0.362
   13EGO    H15   96   4.728   1.435   0.295
   14EGO     C6   97   4.611   1.481   0.524
   14EGO     C7   98   4.497   1.484   0.631
   14EGO     O4   99   4.528   1.564   0.742
   14EGO    H12  100   4.596   1.385   0.470
   14EGO    H13  101   4.708   1.489   0.577
   14EGO    H14  102   4.480   1.381   0.666
   14EGO    H15  103   4.403   1.519   0.581
   15EGO     C6  104   4.418   1.587   0.831
   15EGO     C7  105   4.333   1.706   0.772
   15EGO     O4  106   4.404   1.826   0.801
   15EGO    H12  107   4.360   1.494   0.840
   15EGO    H13  108   4.460   1.610   0.931
   15EGO    H14  109   4.239   1.721   0.830
   15EGO    H15  110   4.311   1.698   0.664
   16EGO     C6  111   4.381   1.931   0.711
   16EGO     C7  112   4.446   2.064   0.749
   16EGO     O4  113   4.379   2.136   0.851
   16EGO    H12  114   4.405   1.892   0.609
   16EGO    H13  115   4.270   1.939   0.709
   16EGO    H14  116   4.468   2.128   0.660
   16EGO    H15  117   4.544   2.033   0.792
   17EGO     C6  118   4.439   2.267   0.882
   17EGO     C7  119   4.560   2.257   0.980
   17EGO     O4  120   4.526   2.217   1.111
   17EGO    H12  121   4.477   2.310   0.787
   17EGO    H13  122   4.359   2.332   0.924
   17EGO    H14  123   4.608   2.357   0.975
   17EGO    H15  124   4.635   2.184   0.943
   18EGO     C6  125   4.634   2.188   1.194
   18EGO     C7  126   4.589   2.171   1.335
   18EGO     O4  127   4.574   2.292   1.406
   18EGO    H12  128   4.681   2.093   1.161
   18EGO    H13  129   4.708   2.271   1.192
   18EGO    H14  130   4.666   2.115   1.394
   18EGO    H15  131   4.493   2.114   1.331
   19EGO     C6  132   4.502   2.270   1.531
   19EGO     C7  133   4.499   2.396   1.613
   19EGO     O4  134   4.441   2.505   1.542
   19EGO    H12  135   4.405   2.232   1.496
   19EGO    H13  136   4.554   2.202   1.601
   19EGO    H14  137   4.596   2.432   1.653
   19EGO    H15  138   4.450   2.389   1.713
   20EGO     C6  139   4.298   2.519   1.572
   20EGO     C7  140   4.251   2.554   1.724
   20EGO     O4  141   4.306   2.679   1.775
   20EGO    H12  142   4.264   2.603   1.507
   20EGO    H13  143   4.240   2.430   1.539
   20EGO    H14  144   4.271   2.476   1.800
   20EGO    H15  145   4.141   2.563   1.735
   21EGO     C6  146   4.435   2.662   1.830
   21EGO     C7  147   4.501   2.792   1.884
   21EGO     O4  148   4.541   2.880   1.778
   21EGO    H12  149   4.407   2.605   1.921
   21EGO    H13  150   4.517   2.622   1.767
   21EGO    H14  151   4.589   2.783   1.949
   21EGO    H15  152   4.412   2.836   1.932
   22EGO     C6  153   4.559   3.012   1.824
   22EGO     C7  154   4.678   3.081   1.764
   22EGO     O4  155   4.653   3.129   1.633
   22EGO    H12  156   4.467   3.076   1.816
   22EGO    H13  157   4.593   3.013   1.930
   22EGO    H14  158   4.758   3.005   1.757
   22EGO    H15  159   4.716   3.164   1.827
   23EGO     C6  160   4.747   3.228   1.599
   23EGO     C7  161   4.746   3.291   1.457
   23EGO     O4  162   4.619   3.354   1.430
   23EGO    H12  163   4.731   3.316   1.664
   23EGO    H13  164   4.850   3.188   1.611
   23EGO    H14  165   4.746   3.209   1.382
   23EGO    H15  166   4.828   3.364   1.433
   24EGO     C6  167   4.619   3.431   1.305
   24EGO     C7  168   4.487   3.496   1.270
   24EGO     O4  169   4.482   3.615   1.354
   24EGO    H12  170   4.701   3.505   1.314
   24EGO    H13  171   4.660   3.363   1.227
   24EGO    H14  172   4.407   3.423   1.302
   24EGO    H15  173   4.486   3.523   1.163
   25EGO     C6  174   4.356   3.664   1.388
   25EGO     C7  175   4.364   3.751   1.509
   25EGO     O4  176   4.361   3.675   1.631
   25EGO    H12  177   4.329   3.739   1.310
   25EGO    H13  178   4.282   3.581   1.396
   25EGO    H14  179   4.274   3.816   1.505
   25EGO    H15  180   4.460   3.805   1.495
   26EGO     C6  181   4.358   3.772   1.736
   26EGO     C7  182   4.361   3.701   1.866
   26EGO     O4  183   4.399   3.774   1.981
   26EGO    H12  184   4.435   3.852   1.724
   26EGO    H13  185   4.262   3.827   1.730
   26EGO    H14  186   4.418   3.606   1.855
   26EGO    H15  187   4.256   3.670   1.882
   27EGO     C6  188   4.388   3.684   2.097
   27EGO     C7  189   4.395   3.746   2.240
   27EGO     O4  190   4.525   3.796   2.276
   27EGO    H12  191   4.292   3.629   2.087
   27EGO    H13  192   4.461   3.601   2.089
   27EGO    H14  193   4.368   3.679   2.324
   27EGO    H15  194   4.318   3.826   2.233
   28EGO     C6  195   4.515   3.916   2.349
   28EGO     C7  196   4.465   3.913   2.493
   28EGO     O4  197   4.323   3.892   2.481
   28EGO    H12  198   4.621   3.945   2.354
   28EGO    H13  199   4.475   3.999   2.288
   28EGO    H14  200   4.491   3.999   2.558
   28EGO    H15  201   4.506   3.822   2.541
   29EGO     C6  202   4.272   3.848   2.610
   29EGO     C7  203   4.126   3.853   2.634
   29EGO     O4  204   4.065   3.975   2.645
   29EGO    H12  205   4.298   3.740   2.616
   29EGO    H13  206   4.313   3.905   2.696
   29EGO    H14  207   4.105   3.793   2.724
   29EGO    H15  208   4.080   3.786   2.558
   30EGO     C6  209   3.932   3.964   2.636
   30EGO     C7  210   3.846   4.099   2.621
   30EGO     O4  211   3.816   4.145   2.757
   30EGO    H12  212   3.918   3.916   2.537
   30EGO    H13  213   3.883   3.909   2.718
   30EGO    H14  214   3.753   4.085   2.561
   30EGO    H15  215   3.914   4.173   2.574
   31EGO     C6  216   3.832   4.285   2.774
   31EGO     C7  217   3.774   4.318   2.921
   31EGO     O4  218   3.633   4.347   2.908
   31EGO    H12  219   3.939   4.315   2.771
   31EGO    H13  220   3.775   4.337   2.694
   31EGO    H14  221   3.815   4.411   2.966
   31EGO    H15  222   3.793   4.230   2.988
   32EGO     C6  223   3.565   4.341   3.037
   32EGO     C7  224   3.424   4.407   3.034
   32EGO     O4  225   3.424   4.539   2.985
   32EGO    H12  226   3.554   4.238   3.077
   32EGO    H13  227   3.618   4.405   3.111
   32EGO    H14  228   3.376   4.399   3.133
   32EGO    H15  229   3.363   4.346   2.964
   33EGO     C6  230   3.304   4.604   3.022
   33EGO     C7  231   3.294   4.753   2.975
   33EGO     O4  232   3.376   4.838   3.052
   33EGO    H12  233   3.217   4.543   2.990
   33EGO    H13  234   3.311   4.613   3.132
   33EGO    H14  235   3.195   4.803   2.983
   33EGO    H15  236   3.316   4.767   2.867
   34EGO     C6  237   3.383   4.979   3.013
   34EGO     C7  238   3.395   5.064   3.143
   34EGO     O4  239   3.528   5.051   3.193
   34EGO    H12  240   3.459   5.016   2.941
   34EGO    H13  241   3.290   5.002   2.958
   34EGO    H14  242   3.319   5.041   3.220
   34EGO    H15  243   3.384   5.171   3.115
   35EGO     C6  244   3.539   5.124   3.317
   35EGO     C7  245   3.669   5.110   3.390
   35EGO     O4  246   3.654   5.175   3.511
   35EGO    H12  247   3.499   5.225   3.298
   35EGO    H13  248   3.469   5.066   3.380
   35EGO    H14  249   3.765   5.149   3.348
   35EGO    H15  250   3.687   5.002   3.410
   36EGO     C6  251   3.741   5.104   3.609
   36EGO     C7  252   3.719   5.162   3.752
   36EGO     O4  253   3.591   5.144   3.817
   36EGO    H12  254   3.716   4.996   3.611
   36EGO    H13  255   3.849   5.118   3.587
   36EGO    H14  256   3.734   5.272   3.752
   36EGO    H15  257   3.795   5.123   3.822
   37EGO     C6  258   3.570   5.226   3.930
   37EGO     C7  259   3.568   5.153   4.059
   37EGO     O4  260   3.448   5.088   4.088
   37EGO    H12  261   3.637   5.315   3.924
   37EGO    H13  262   3.466   5.266   3.920
   37EGO    H14  263   3.599   5.205   4.152
   37EGO    H15  264   3.641   5.068   4.052
   38EGO     C6  265   3.354   5.161   4.164
   38EGO     C7  266   3.354   5.112   4.313
   38EGO     O4  267   3.297   4.986   4.332
   38EGO    H12  268   3.373   5.270   4.167
   38EGO    H13  269   3.254   5.139   4.121
   38EGO    H14  270   3.288   5.186   4.364
   38EGO    H15  271   3.450   5.119   4.368
   39EGO     C6  272   3.302   4.949   4.466
   39EGO     C7  273   3.201   5.021   4.551
   39EGO     O4  274   3.238   5.152   4.585
   39EGO    H12  275   3.288   4.839   4.468
   39EGO    H13  276   3.403   4.973   4.505
   39EGO    H14  277   3.194   4.964   4.646
   39EGO    H15  278   3.105   5.016   4.493
   40EGO     C6  279   3.128   5.237   4.607
   40EGO     C7  280   3.176   5.379   4.632
   40EGO     O4  281   3.202   5.411   4.767
   40EGO    H12  282   3.061   5.255   4.519
   40EGO    H13  283   3.068   5.206   4.695
   40EGO    H14  284   3.094   5.444   4.593
   40EGO    H15  285   3.259   5.408   4.565
   41EGO     C6  286   3.207   5.548   4.790
   41EGO     C7  287   3.232   5.552   4.942
   41EGO     O4  288   3.111   5.518   5.014
   41EGO    H12  289   3.291   5.578   4.724
   41EGO    H13  290   3.120   5.607   4.754
   41EGO    H14  291   3.253   5.657   4.973
   41EGO    H15  292   3.321   5.493   4.973
   42EGO     C6  293   3.110   5.571   5.147
   42EGO     C7  294   2.981   5.541   5.225
   42EGO     O4  295   2.972   5.403   5.255
   42EGO    H12  296   3.197   5.529   5.202
   42EGO    H13  297   3.129   5.680   5.144
   42EGO    H14  298   2.900   5.581   5.160
   42EGO    H15  299   2.968   5.590   5.323
   43EGO     C6  300   2.844   5.373   5.305
   43EGO     C7  301   2.829   5.229   5.354
   43EGO     O4  302   2.834   5.129   5.256
   43EGO    H12  303   2.824   5.440   5.391
   43EGO    H13  304   2.765   5.396   5.230
   43EGO    H14  305   2.725   5.227   5.394
   43EGO    H15  306   2.909   5.207   5.428
   44EGO     C6  307   2.801   5.000   5.317
   44EGO     C7  308   2.787   4.884   5.214
   44EGO     O4  309   2.920   4.833   5.190
   44EGO    H12  310   2.872   4.976   5.398
   44EGO    H13  311   2.708   5.020   5.374
   44EGO    H14  312   2.735   4.926   5.125
   44EGO    H15  313   2.735   4.796   5.258
   45ECC    C12  314   2.933   4.695   5.222
   45ECC    C13  315   3.082   4.642   5.225
   45ECC     O7  316   3.134   4.633   5.087
   45ECC    C14  317   3.270   4.617   5.092
   45ECC    C15  318   3.334   4.611   4.949
   45ECC     O8  319   3.330   4.582   5.190
   45ECC    C16  320   3.288   4.731   4.865
   45ECC    C17  321   3.303   4.870   4.929
   45ECC    C18  322   3.448   4.903   4.991
   45ECC    C19  323   3.568   4.886   4.894
   45ECC     O9  324   3.682   4.958   4.949
   45ECC    H24  325   2.897   4.675   5.325
   45ECC    H25  326   2.877   4.637   5.145
   45ECC    H26  327   3.089   4.538   5.262
   45ECC    H27  328   3.140   4.716   5.283
   45ECC    H28  329   3.441   4.629   4.974
   45ECC    H29  330   3.318   4.506   4.915
   45ECC    H30  331   3.184   4.718   4.826
   45ECC    H31  332   3.349   4.715   4.773
   45ECC    H32  333   3.288   4.951   4.854
   45ECC    H33  334   3.217   4.874   4.999
   45ECC    H34  335   3.463   4.841   5.083
   45ECC    H35  336   3.434   5.013   5.004
   45ECC    H36  337   3.603   4.784   4.870
   45ECC    H37  338   3.534   4.926   4.796
   46PCL    C32  339   3.790   4.956   4.871
   46PCL    C33  340   3.901   5.047   4.938
   46PCL    O14  341   3.796   4.919   4.752
   46PCL    C34  342   4.051   5.036   4.879
   46PCL    C35  343   4.103   4.897   4.905
   46PCL    C36  344   4.252   4.882   4.871
   46PCL    C37  345   4.311   4.748   4.902
   46PCL    O15  346   4.238   4.650   4.821
   46PCL    H58  347   3.905   5.018   5.045
   46PCL    H59  348   3.855   5.148   4.931
   46PCL    H60  349   4.057   5.052   4.769
   46PCL    H61  350   4.120   5.110   4.926
   46PCL    H62  351   4.051   4.820   4.843
   46PCL    H63  352   4.092   4.864   5.010
   46PCL    H64  353   4.279   4.904   4.765
   46PCL    H65  354   4.308   4.958   4.930
   46PCL    H66  355   4.279   4.733   5.008
   46PCL    H67  356   4.422   4.745   4.889
   47PCL    C32  357   4.271   4.527   4.841
   47PCL    C33  358   4.201   4.432   4.747
   47PCL    O14  359   4.352   4.497   4.929
   47PCL    C34  360   4.133   4.311   4.808
   47PCL    C35  361   4.024   4.339   4.915
   47PCL    C36  362   3.929   4.446   4.864
   47PCL    C37  363   3.827   4.504   4.957
   47PCL    O15  364   3.883   4.598   5.053
   47PCL    H58  365   4.280   4.388   4.682
   47PCL    H59  366   4.137   4.495   4.682
   47PCL    H60  367   4.089   4.251   4.725
   47PCL    H61  368   4.218   4.264   4.862
   47PCL    H62  369   4.081   4.361   5.007
   47PCL    H63  370   3.954   4.256   4.937
   47PCL    H64  371   3.982   4.524   4.806
   47PCL    H65  372   3.867   4.404   4.782
   47PCL    H66  373   3.761   4.430   5.006
   47PCL    H67  374   3.760   4.559   4.887
   48PCL    C32  375   3.790   4.655   5.107
   48PCL    C33  376   3.848   4.755   5.209
   48PCL    O14  377   3.672   4.627   5.098
   48PCL    C34  378   3.880   4.692   5.344
   48PCL    C35  379   3.769   4.624   5.419
   48PCL    C36  380   3.681   4.724   5.492
   48PCL    C37  381   3.559   4.753   5.404
   48PCL    O15  382   3.470   4.841   5.466
   48PCL    H58  383   3.787   4.847   5.202
   48PCL    H59  384   3.944   4.800   5.180
   48PCL    H60  385   3.951   4.606   5.345
   48PCL    H61  386   3.916   4.772   5.413
   48PCL    H62  387   3.828   4.565   5.492
   48PCL    H63  388   3.706   4.562   5.352
   48PCL    H64  389   3.642   4.694   5.591
   48PCL    H65  390   3.741   4.815   5.511
   48PCL    H66  391   3.500   4.659   5.396
   48PCL    H67  392   3.567   4.797   5.304
   49PCL    C32  393   3.368   4.796   5.547
   49PCL    C33  394   3.303   4.915   5.619
   49PCL    O14  395   3.350   4.681   5.584
   49PCL    C34  396   3.178   4.960   5.546
   49PCL    C35  397   3.208   4.999   5.398
   49PCL    C36  398   3.315   5.113   5.373
   49PCL    C37  399   3.244   5.249   5.371
   49PCL    O15  400   3.342   5.355   5.368
   49PCL    H58  401   3.383   4.992   5.627
   49PCL    H59  402   3.292   4.885   5.725
   49PCL    H60  403   3.097   4.884   5.545
   49PCL    H61  404   3.118   5.039   5.594
   49PCL    H62  405   3.125   5.043   5.337
   49PCL    H63  406   3.242   4.900   5.361
   49PCL    H64  407   3.394   5.121   5.452
   49PCL    H65  408   3.372   5.099   5.279
   49PCL    H66  409   3.170   5.268   5.451
   49PCL    H67  410   3.189   5.245   5.274
   50PCL    C32  411   3.402   5.371   5.482
   50PCL    C33  412   3.529   5.452   5.463
   50PCL    O14  413   3.375   5.314   5.589
   50PCL    C34  414   3.657   5.402   5.520
   50PCL    C35  415   3.668   5.255   5.489
   50PCL    C36  416   3.705   5.236   5.338
   50PCL    C37  417   3.749   5.094   5.315
   50PCL    O15  418   3.877   5.071   5.373
   50PCL    H58  419   3.513   5.550   5.513
   50PCL    H59  420   3.560   5.471   5.358
   50PCL    H60  421   3.735   5.468   5.477
   50PCL    H61  422   3.660   5.411   5.631
   50PCL    H62  423   3.578   5.201   5.527
   50PCL    H63  424   3.750   5.224   5.558
   50PCL    H64  425   3.616   5.246   5.272
   50PCL    H65  426   3.770   5.316   5.296
   50PCL    H66  427   3.750   5.066   5.208
   50PCL    H67  428   3.683   5.024   5.371
   51PCL    C32  429   3.983   5.148   5.314
   51PCL    C33  430   4.107   5.098   5.399
   51PCL    O14  431   3.981   5.219   5.216
   51PCL    C34  432   4.173   5.203   5.487
   51PCL    C35  433   4.069   5.259   5.575
   51PCL    C36  434   4.127   5.384   5.656
   51PCL    C37  435   4.017   5.482   5.708
   51PCL    O15  436   3.930   5.404   5.790
   51PCL    H58  437   4.174   5.055   5.322
   51PCL    H59  438   4.079   5.016   5.469
   51PCL    H60  439   4.252   5.155   5.549
   51PCL    H61  440   4.217   5.285   5.426
   51PCL    H62  441   4.022   5.183   5.640
   51PCL    H63  442   3.983   5.300   5.517
   51PCL    H64  443   4.192   5.355   5.742
   51PCL    H65  444   4.182   5.462   5.598
   51PCL    H66  445   3.973   5.516   5.613
   51PCL    H67  446   4.064   5.555   5.778
   52PCL    C32  447   3.842   5.471   5.867
   52PCL    C33  448   3.741   5.372   5.924
   52PCL    O14  449   3.830   5.591   5.858
   52PCL    C34  450   3.600   5.427   5.962
   52PCL    C35  451   3.609   5.525   6.082
   52PCL    C36  452   3.471   5.559   6.147
   52PCL    C37  453   3.374   5.636   6.052
   52PCL    O15  454   3.238   5.633   6.104
   52PCL    H58  455   3.785   5.315   6.008
   52PCL    H59  456   3.718   5.299   5.842
   52PCL    H60  457   3.578   5.479   5.867
   52PCL    H61  458   3.529   5.342   5.976
   52PCL    H62  459   3.660   5.618   6.051
   52PCL    H63  460   3.672   5.475   6.159
   52PCL    H64  461   3.419   5.464   6.176
   52PCL    H65  462   3.481   5.623   6.238
   52PCL    H66  463   3.377   5.600   5.946
   52PCL    H67  464   3.416   5.738   6.064
   53PCL    C32  465   3.159   5.706   6.029
   53PCL    C33  466   3.028   5.728   6.100
   53PCL    O14  467   3.192   5.772   5.934
   53PCL    C34  468   2.964   5.596   6.149
   53PCL    C35  469   2.922   5.499   6.035
   53PCL    C36  470   2.898   5.356   6.078
   53PCL    C37  471   2.796   5.349   6.187
   53PCL    O15  472   2.800   5.209   6.224
   53PCL    H58  473   2.952   5.779   6.035
   53PCL    H59  474   3.045   5.792   6.188
   53PCL    H60  475   3.036   5.552   6.221
   53PCL    H61  476   2.880   5.630   6.212
   53PCL    H62  477   3.009   5.491   5.968
   53PCL    H63  478   2.837   5.543   5.979
   53PCL    H64  479   2.877   5.295   5.988
   53PCL    H65  480   2.986   5.305   6.124
   53PCL    H66  481   2.700   5.361   6.132
   53PCL    H67  482   2.800   5.426   6.266
   54PCL    C32  483   2.695   5.170   6.316
   54PCL    C33  484   2.695   5.019   6.345
   54PCL    O14  485   2.598   5.243   6.323
   54PCL    C34  486   2.731   5.014   6.488
   54PCL    C35  487   2.884   5.046   6.503
   54PCL    C36  488   2.937   5.028   6.641
   54PCL    C37  489   3.078   4.970   6.629
   54PCL    O15  490   3.169   5.084   6.613
   54PCL    H58  491   2.761   4.967   6.273
   54PCL    H59  492   2.592   4.980   6.337
   54PCL    H60  493   2.667   5.084   6.547
   54PCL    H61  494   2.720   4.909   6.521
   54PCL    H62  495   2.895   5.155   6.484
   54PCL    H63  496   2.949   4.993   6.430
   54PCL    H64  497   2.933   5.119   6.703
   54PCL    H65  498   2.868   4.954   6.687
   54PCL    H66  499   3.087   4.888   6.554
   54PCL    H67  500   3.085   4.922   6.728
   55PCL    C32  501   3.303   5.046   6.620
   55PCL    C33  502   3.380   5.178   6.609
   55PCL    O14  503   3.336   4.944   6.679
   55PCL    C34  504   3.531   5.153   6.589
   55PCL    C35  505   3.579   5.051   6.487
   55PCL    C36  506   3.515   5.050   6.346
   55PCL    C37  507   3.523   5.173   6.268
   55PCL    O15  508   3.454   5.150   6.144
   55PCL    H58  509   3.358   5.240   6.699
   55PCL    H59  510   3.331   5.230   6.524
   55PCL    H60  511   3.583   5.247   6.561
   55PCL    H61  512   3.574   5.117   6.684
   55PCL    H62  513   3.544   4.954   6.530
   55PCL    H63  514   3.690   5.048   6.480
   55PCL    H64  515   3.576   4.978   6.285
   55PCL    H65  516   3.413   5.012   6.368
   55PCL    H66  517   3.629   5.203   6.253
   55PCL    H67  518   3.479   5.262   6.318
   56PCL    C32  519   3.329   5.185   6.143
   56PCL    C33  520   3.261   5.167   6.004
   56PCL    O14  521   3.273   5.250   6.233
   56PCL    C34  522   3.151   5.057   5.990
   56PCL    C35  523   3.213   4.912   5.989
   56PCL    C36  524   3.119   4.808   5.925
   56PCL    C37  525   2.976   4.804   5.964
   56PCL    O15  526   2.967   4.777   6.103
   56PCL    H58  527   3.343   5.156   5.929
   56PCL    H59  528   3.213   5.264   5.980
   56PCL    H60  529   3.077   5.074   6.070
   56PCL    H61  530   3.086   5.089   5.906
   56PCL    H62  531   3.227   4.879   6.095
   56PCL    H63  532   3.306   4.901   5.928
   56PCL    H64  533   3.131   4.846   5.822
   56PCL    H65  534   3.159   4.705   5.935
   56PCL    H66  535   2.931   4.724   5.901
   56PCL    H67  536   2.924   4.903   5.955
   57PCL    C32  537   2.980   4.648   6.146
   57PCL    C33  538   2.946   4.648   6.296
   57PCL    O14  539   3.007   4.546   6.080
   57PCL    C34  540   3.035   4.542   6.381
   57PCL    C35  541   3.180   4.589   6.391
   57PCL    C36  542   3.257   4.495   6.479
   57PCL    C37  543   3.400   4.543   6.507
   57PCL    O15  544   3.491   4.550   6.392
   57PCL    H58  545   2.838   4.621   6.304
   57PCL    H59  546   2.953   4.753   6.330
   57PCL    H60  547   3.000   4.535   6.486
   57PCL    H61  548   3.029   4.439   6.341
   57PCL    H62  549   3.172   4.689   6.441
   57PCL    H63  550   3.236   4.607   6.298
   57PCL    H64  551   3.194   4.472   6.567
   57PCL    H65  552   3.276   4.401   6.422
   57PCL    H66  553   3.445   4.482   6.588
   57PCL    H67  554   3.387   4.647   6.542
   58PCL    C32  555   3.612   4.606   6.409
   58PCL    C33  556   3.678   4.615   6.277
   58PCL    O14  557   3.657   4.643   6.518
   58PCL    C34  558   3.818   4.670   6.300
   58PCL    C35  559   3.827   4.820   6.318
   58PCL    C36  560   3.966   4.884   6.343
   58PCL    C37  561   3.984   5.027   6.296
   58PCL    O15  562   3.974   5.042   6.149
   58PCL    H58  563   3.619   4.654   6.192
   58PCL    H59  564   3.696   4.512   6.241
   58PCL    H60  565   3.865   4.617   6.386
   58PCL    H61  566   3.883   4.653   6.212
   58PCL    H62  567   3.753   4.853   6.395
   58PCL    H63  568   3.784   4.850   6.221
   58PCL    H64  569   3.991   4.886   6.451
   58PCL    H65  570   4.035   4.816   6.288
   58PCL    H66  571   4.080   5.082   6.313
   58PCL    H67  572   3.902   5.081   6.346
   59PCL    C32  573   4.088   5.027   6.077
   59PCL    C33  574   4.060   5.082   5.940
   59PCL    O14  575   4.199   5.003   6.126
   59PCL    C34  576   3.970   4.986   5.861
   59PCL    C35  577   3.835   5.044   5.837
   59PCL    C36  578   3.737   4.962   5.770
   59PCL    C37  579   3.701   4.828   5.834
   59PCL    O15  580   3.811   4.733   5.820
   59PCL    H58  581   4.160   5.097   5.896
   59PCL    H59  582   4.020   5.185   5.956
   59PCL    H60  583   4.024   4.962   5.766
   59PCL    H61  584   3.953   4.886   5.906
   59PCL    H62  585   3.846   5.137   5.777
   59PCL    H63  586   3.788   5.062   5.936
   59PCL    H64  587   3.656   5.037   5.768
   59PCL    H65  588   3.761   4.945   5.662
   59PCL    H66  589   3.617   4.789   5.773
   59PCL    H67  590   3.667   4.839   5.940
   60CLO    C44  591   3.769   4.610   5.839
   60CLO    C45  592   3.887   4.527   5.895
   60CLO    O18  593   3.661   4.583   5.876
   60CLO    C46  594   3.956   4.440   5.783
   60CLO    C47  595   4.062   4.517   5.694
   60CLO    C48  596   4.174   4.590   5.772
   60CLO    C49  597   4.269   4.497   5.848
   60CLO    O19  598   4.348   4.435   5.747
   60CLO    H78  599   3.845   4.459   5.972
   60CLO    H79  600   3.958   4.595   5.948
   60CLO    H80  601   4.017   4.361   5.830
   60CLO    H81  602   3.890   4.384   5.715
   60CLO    H82  603   4.104   4.454   5.614
   60CLO    H83  604   4.004   4.600   5.647
   60CLO    H84  605   4.123   4.666   5.836
   60CLO    H85  606   4.241   4.647   5.704
   60CLO    H86  607   4.331   4.548   5.924
   60CLO    H87  608   4.210   4.418   5.897
   60CLO    H88  609   4.300   4.354   5.731
    1PTX     O1  610   5.709   3.424   5.622
    1PTX     C1  611   5.746   3.511   5.697
    1PTX     C2  612   5.893   3.531   5.736
    1PTX     O2  613   5.951   3.633   5.657
    1PTX     C3  614   5.978   3.403   5.724
    1PTX     C4  615   5.921   3.299   5.819
    1PTX     C5  616   5.935   3.312   5.952
    1PTX     C6  617   5.884   3.221   6.036
    1PTX     C7  618   5.817   3.115   5.988
    1PTX     C8  619   5.802   3.101   5.856
    1PTX     C9  620   5.854   3.193   5.773
    1PTX      N  621   6.116   3.441   5.758
    1PTX    C10  622   6.217   3.361   5.802
    1PTX    C11  623   6.215   3.224   5.797
    1PTX    C12  624   6.281   3.152   5.890
    1PTX    C13  625   6.280   3.018   5.888
    1PTX    C14  626   6.215   2.952   5.791
    1PTX    C15  627   6.152   3.022   5.696
    1PTX    C16  628   6.153   3.157   5.699
    1PTX     O3  629   6.304   3.419   5.863
    1PTX     O4  630   5.669   3.601   5.764
    1PTX    C17  631   5.528   3.593   5.767
    1PTX    C18  632   5.465   3.456   5.743
    1PTX    C19  633   5.515   3.351   5.840
    1PTX    C20  634   5.366   3.439   5.651
    1PTX    C21  635   5.272   3.320   5.644
    1PTX     O5  636   5.305   3.215   5.733
    1PTX    C22  637   5.269   3.087   5.707
    1PTX    C23  638   5.317   2.997   5.819
    1PTX     O6  639   5.208   3.049   5.609
    1PTX    C24  640   5.122   3.359   5.663
    1PTX     O7  641   5.045   3.319   5.578
    1PTX    C25  642   5.342   3.553   5.551
    1PTX    C26  643   5.235   3.532   5.439
    1PTX    C27  644   5.468   3.563   5.459
    1PTX    C28  645   5.321   3.677   5.642
    1PTX    C29  646   5.224   3.662   5.763
    1PTX     O8  647   5.210   3.788   5.823
    1PTX    C30  648   5.253   3.817   5.951
    1PTX    C31  649   5.226   3.940   6.005
    1PTX    C32  650   5.265   3.972   6.130
    1PTX    C33  651   5.237   4.093   6.182
    1PTX    C34  652   5.171   4.184   6.109
    1PTX    C35  653   5.132   4.153   5.985
    1PTX    C36  654   5.160   4.032   5.933
    1PTX     O9  655   5.314   3.733   6.015
    1PTX    C37  656   5.085   3.600   5.736
    1PTX    C38  657   5.068   3.449   5.778
    1PTX    C39  658   5.140   3.409   5.909
    1PTX    C40  659   4.918   3.413   5.800
    1PTX    O10  660   4.880   3.428   5.935
    1PTX    C41  661   4.820   3.493   5.715
    1PTX    C42  662   4.827   3.642   5.744
    1PTX    C43  663   4.968   3.699   5.755
    1PTX    O11  664   4.987   3.809   5.671
    1PTX    C44  665   4.909   3.921   5.668
    1PTX    C45  666   4.963   4.016   5.563
    1PTX    O12  667   4.812   3.944   5.736
    1PTX    C46  668   4.925   3.728   5.899
    1PTX    O13  669   4.796   3.673   5.878
    1PTX    O14  670   5.274   3.784   5.566
    1PTX    C47  671   5.461   3.713   5.697
    1PTX     H1  672   5.897   3.568   5.841
    1PTX     H2  673   5.917   3.719   5.681
    1PTX     H3  674   5.974   3.372   5.617
    1PTX     H4  675   5.989   3.398   5.994
    1PTX     H5  676   5.897   3.233   6.145
    1PTX     H6  677   5.775   3.040   6.057
    1PTX     H7  678   5.747   3.014   5.816
    1PTX     H8  679   5.839   3.179   5.664
    1PTX     H9  680   6.136   3.541   5.760
    1PTX    H10  681   6.335   3.200   5.973
    1PTX    H11  682   6.333   2.961   5.966
    1PTX    H12  683   6.214   2.842   5.789
    1PTX    H13  684   6.100   2.969   5.614
    1PTX    H14  685   6.104   3.208   5.615
    1PTX    H15  686   5.503   3.609   5.875
    1PTX    H16  687   5.442   3.328   5.921
    1PTX    H17  688   5.544   3.258   5.788
    1PTX    H18  689   5.607   3.384   5.893
    1PTX    H19  690   5.286   3.280   5.540
    1PTX    H20  691   5.272   3.028   5.916
    1PTX    H21  692   5.287   2.891   5.800
    1PTX    H22  693   5.428   3.000   5.827
    1PTX    H23  694   5.230   3.620   5.371
    1PTX    H24  695   5.259   3.444   5.375
    1PTX    H25  696   5.131   3.515   5.468
    1PTX    H26  697   5.460   3.649   5.388
    1PTX    H27  698   5.565   3.577   5.510
    1PTX    H28  699   5.483   3.471   5.399
    1PTX    H29  700   5.274   3.595   5.834
    1PTX    H30  701   5.320   3.902   6.195
    1PTX    H31  702   5.269   4.118   6.284
    1PTX    H32  703   5.148   4.283   6.151
    1PTX    H33  704   5.077   4.227   5.924
    1PTX    H34  705   5.126   4.012   5.831
    1PTX    H35  706   5.076   3.596   5.625
    1PTX    H36  707   5.119   3.479   5.992
    1PTX    H37  708   5.111   3.306   5.941
    1PTX    H38  709   5.250   3.406   5.901
    1PTX    H39  710   4.901   3.304   5.780
    1PTX    H40  711   4.791   3.462   5.942
    1PTX    H41  712   4.840   3.478   5.606
    1PTX    H42  713   4.716   3.458   5.733
    1PTX    H43  714   4.758   3.699   5.676
    1PTX    H44  715   5.070   4.040   5.583
    1PTX    H45  716   4.955   3.970   5.461
    1PTX    H46  717   4.906   4.111   5.562
    1PTX    H47  718   4.919   3.835   5.929
    1PTX    H48  719   4.980   3.669   5.975
    1PTX    H49  720   5.258   3.859   5.624
    1PTX    H50  721   5.457   3.800   5.766
    1PTX    H51  722   5.526   3.754   5.616
   8.00000   8.00000   8.00000
