; Created by cgenff_charmm2gmx.py

[ moleculetype ]
; Name			   nrexcl
PTX				 3

[ atoms ]
;	 nr		  type	resnr residue  atom   cgnr	   charge		mass  typeB    chargeB		massB
; residue	 1 PTX rtp PTX q	qsum
     1      CG331      1    PTL     C1      1     -0.273     12.011   ;
     2      CG321      1    PTL     C2      2     -0.177     12.011   ;
     3      CG321      1    PTL     C3      3     -0.181     12.011   ;
     4      CG321      1    PTL     C4      4     -0.179     12.011   ;
     5      CG321      1    PTL     C5      5     -0.180     12.011   ;
     6      CG321      1    PTL     C6      6     -0.180     12.011   ;
     7      CG321      1    PTL     C7      7     -0.180     12.011   ;
     8      CG321      1    PTL     C8      8     -0.179     12.011   ;
     9      CG2D1      1    PTL     C9      9     -0.151     12.011   ;
    10      CG2D1      1    PTL    C10     10     -0.151     12.011   ;
    11      CG321      1    PTL    C11     11     -0.179     12.011   ;
    12      CG321      1    PTL    C12     12     -0.180     12.011   ;
    13      CG321      1    PTL    C13     13     -0.180     12.011   ;
    14      CG321      1    PTL    C14     14     -0.180     12.011   ;
    15      CG321      1    PTL    C15     15     -0.180     12.011   ;
    16      CG321      1    PTL    C16     16     -0.180     12.011   ;
    17      CG321      1    PTL    C17     17     -0.180     12.011   ;
    18      CG321      1    PTL    C18     18      0.036     12.011   ;
    19      CG301      1    PTL    C19     19      0.379     12.011   ;
    20      CG331      1    PTL    C20     20     -0.269     12.011   ;
    21      CG331      1    PTL    C21     21     -0.269     12.011   ;
    22      OG301      1    PTL     O1     22     -0.402     15.999   ;
    23       HGA3      1    PTL     H1     23      0.090      1.008   ;
    24       HGA3      1    PTL     H2     24      0.090      1.008   ;
    25       HGA3      1    PTL     H3     25      0.090      1.008   ;
    26       HGA2      1    PTL     H4     26      0.090      1.008   ;
    27       HGA2      1    PTL     H5     27      0.090      1.008   ;
    28       HGA2      1    PTL     H6     28      0.090      1.008   ;
    29       HGA2      1    PTL     H7     29      0.090      1.008   ;
    30       HGA2      1    PTL     H8     30      0.090      1.008   ;
    31       HGA2      1    PTL     H9     31      0.090      1.008   ;
    32       HGA2      1    PTL    H10     32      0.090      1.008   ;
    33       HGA2      1    PTL    H11     33      0.090      1.008   ;
    34       HGA2      1    PTL    H12     34      0.090      1.008   ;
    35       HGA2      1    PTL    H13     35      0.090      1.008   ;
    36       HGA2      1    PTL    H14     36      0.090      1.008   ;
    37       HGA2      1    PTL    H15     37      0.090      1.008   ;
    38       HGA2      1    PTL    H16     38      0.090      1.008   ;
    39       HGA2      1    PTL    H17     39      0.090      1.008   ;
    40       HGA4      1    PTL    H18     40      0.150      1.008   ;
    41       HGA4      1    PTL    H19     41      0.150      1.008   ;
    42       HGA2      1    PTL    H20     42      0.090      1.008   ;
    43       HGA2      1    PTL    H21     43      0.090      1.008   ;
    44       HGA2      1    PTL    H22     44      0.090      1.008   ;
    45       HGA2      1    PTL    H23     45      0.090      1.008   ;
    46       HGA2      1    PTL    H24     46      0.090      1.008   ;
    47       HGA2      1    PTL    H25     47      0.090      1.008   ;
    48       HGA2      1    PTL    H26     48      0.090      1.008   ;
    49       HGA2      1    PTL    H27     49      0.090      1.008   ;
    50       HGA2      1    PTL    H28     50      0.090      1.008   ;
    51       HGA2      1    PTL    H29     51      0.090      1.008   ;
    52       HGA2      1    PTL    H30     52      0.090      1.008   ;
    53       HGA2      1    PTL    H31     53      0.090      1.008   ;
    54       HGA2      1    PTL    H32     54      0.090      1.008   ;
    55       HGA2      1    PTL    H33     55      0.090      1.008   ;
    56       HGA2      1    PTL    H34     56      0.090      1.008   ;
    57       HGA2      1    PTL    H35     57      0.090      1.008   ;
    58       HGA3      1    PTL    H36     58      0.090      1.008   ;
    59       HGA3      1    PTL    H37     59      0.090      1.008   ;
    60       HGA3      1    PTL    H38     60      0.090      1.008   ;
    61       HGA3      1    PTL    H39     61      0.090      1.008   ;
    62       HGA3      1    PTL    H40     62      0.090      1.008   ;
    63       HGA3      1    PTL    H41     63      0.090      1.008   ;
    64      NG2S1      1    PTX      N     64     -0.405     14.007   ;
    65      CG311      1    PTX    C22     65      0.175     12.011   ;
    66      CG321      1    PTX    C23     66     -0.212     12.011   ;
    67     CG3RC1      1    PTX    C24     67      0.020     12.011   ;
    68     CG3C41      1    PTX    C25     68     -0.106     12.011   ;
    69     CG3RC1      1    PTX    C26     69      0.366     12.011   ;
    70      CG2O2      1    PTX    C27     70      0.885     12.011   ;
    71      CG331      1    PTX    C28     71     -0.313     12.011   ;
    72      CG311      1    PTX    C29     72     -0.074     12.011   ;
    73      CG311      1    PTX    C30     73      0.133     12.011   ;
    74      CG2O2      1    PTX    C31     74      0.459     12.011   ;
    75     CG2R61      1    PTX    C32     75      0.086     12.011   ;
    76     CG2R61      1    PTX    C33     76     -0.110     12.011   ;
    77     CG2R61      1    PTX    C34     77     -0.114     12.011   ;
    78     CG2R61      1    PTX    C35     78     -0.115     12.011   ;
    79     CG2R61      1    PTX    C36     79     -0.114     12.011   ;
    80     CG2R61      1    PTX    C37     80     -0.110     12.011   ;
    81      CG301      1    PTX    C38     81      0.186     12.011   ;
    82      CG321      1    PTX    C39     82     -0.212     12.011   ;
    83      CG311      1    PTX    C40     83      0.272     12.011   ;
    84      CG2O2      1    PTX    C41     84      0.853     12.011   ;
    85      CG311      1    PTX    C42     85      0.124     12.011   ;
    86      CG311      1    PTX    C43     86      0.118     12.011   ;
    87      CG2O1      1    PTX    C44     87      0.341     12.011   ;
    88     CG2R61      1    PTX    C45     88     -0.137     12.011   ;
    89     CG2R61      1    PTX    C46     89     -0.024     12.011   ;
    90     CG2R61      1    PTX    C47     90     -0.109     12.011   ;
    91     CG2R61      1    PTX    C48     91     -0.115     12.011   ;
    92     CG2R61      1    PTX    C49     92     -0.109     12.011   ;
    93     CG2R61      1    PTX    C50     93     -0.024     12.011   ;
    94     CG2R61      1    PTX    C51     94     -0.040     12.011   ;
    95     CG2R61      1    PTX    C52     95     -0.106     12.011   ;
    96     CG2R61      1    PTX    C53     96     -0.115     12.011   ;
    97     CG2R61      1    PTX    C54     97     -0.115     12.011   ;
    98     CG2R61      1    PTX    C55     98     -0.115     12.011   ;
    99     CG2R61      1    PTX    C56     99     -0.106     12.011   ;
   100      CG2D1      1    PTX    C57    100     -0.153     12.011   ;
   101      CG331      1    PTX    C58    101     -0.265     12.011   ;
   102      CG2D1      1    PTX    C59    102     -0.113     12.011   ;
   103      CG311      1    PTX    C60    103      0.432     12.011   ;
   104      CG2O2      1    PTX    C61    104      0.834     12.011   ;
   105      CG331      1    PTX    C62    105     -0.311     12.011   ;
   106      CG2O5      1    PTX    C63    106      0.300     12.011   ;
   107      CG301      1    PTX    C64    107      0.088     12.011   ;
   108      CG331      1    PTX    C65    108     -0.263     12.011   ;
   109      CG301      1    PTX    C66    109      0.016     12.011   ;
   110      CG331      1    PTX    C67    110     -0.269     12.011   ;
   111      CG331      1    PTX    C68    111     -0.269     12.011   ;
   112      OG301      1    PTX     O2    112     -0.450     15.999   ;
   113     OG3C51      1    PTX     O3    113     -0.343     15.999   ;
   114      OG302      1    PTX     O4    114     -0.422     15.999   ;
   115      OG2D1      1    PTX     O5    115     -0.617     15.999   ;
   116      OG302      1    PTX     O6    116     -0.310     15.999   ;
   117      OG2D1      1    PTX     O7    117     -0.496     15.999   ;
   118      OG311      1    PTX     O8    118     -0.460     15.999   ;
   119      OG302      1    PTX     O9    119     -0.419     15.999   ;
   120      OG2D1      1    PTX    O10    120     -0.628     15.999   ;
   121      OG311      1    PTX    O11    121     -0.662     15.999   ;
   122      OG2D1      1    PTX    O12    122     -0.458     15.999   ;
   123      OG302      1    PTX    O13    123     -0.427     15.999   ;
   124      OG2D1      1    PTX    O14    124     -0.625     15.999   ;
   125      OG2D3      1    PTX    O15    125     -0.515     15.999   ;
   126       HGA1      1    PTX    H42    126      0.090      1.008   ;
   127       HGA2      1    PTX    H43    127      0.090      1.008   ;
   128       HGA2      1    PTX    H44    128      0.090      1.008   ;
   129       HGA1      1    PTX    H45    129      0.090      1.008   ;
   130       HGA2      1    PTX    H46    130      0.090      1.008   ;
   131       HGA2      1    PTX    H47    131      0.090      1.008   ;
   132       HGA3      1    PTX    H48    132      0.090      1.008   ;
   133       HGA3      1    PTX    H49    133      0.090      1.008   ;
   134       HGA3      1    PTX    H50    134      0.090      1.008   ;
   135       HGA1      1    PTX    H51    135      0.090      1.008   ;
   136       HGA1      1    PTX    H52    136      0.090      1.008   ;
   137      HGR61      1    PTX    H53    137      0.115      1.008   ;
   138      HGR61      1    PTX    H54    138      0.115      1.008   ;
   139      HGR61      1    PTX    H55    139      0.115      1.008   ;
   140      HGR61      1    PTX    H56    140      0.115      1.008   ;
   141      HGR61      1    PTX    H57    141      0.115      1.008   ;
   142       HGP1      1    PTX    H58    142      0.292      1.008   ;
   143       HGA2      1    PTX    H59    143      0.090      1.008   ;
   144       HGA2      1    PTX    H60    144      0.090      1.008   ;
   145       HGA1      1    PTX    H61    145      0.090      1.008   ;
   146       HGA1      1    PTX    H62    146      0.090      1.008   ;
   147       HGP1      1    PTX    H63    147      0.421      1.008   ;
   148       HGA1      1    PTX    H64    148      0.090      1.008   ;
   149       HGP1      1    PTX    H65    149      0.274      1.008   ;
   150      HGR61      1    PTX    H66    150      0.115      1.008   ;
   151      HGR61      1    PTX    H67    151      0.115      1.008   ;
   152      HGR61      1    PTX    H68    152      0.115      1.008   ;
   153      HGR61      1    PTX    H69    153      0.115      1.008   ;
   154      HGR61      1    PTX    H70    154      0.115      1.008   ;
   155      HGR61      1    PTX    H71    155      0.115      1.008   ;
   156      HGR61      1    PTX    H72    156      0.115      1.008   ;
   157      HGR61      1    PTX    H73    157      0.115      1.008   ;
   158      HGR61      1    PTX    H74    158      0.115      1.008   ;
   159      HGR61      1    PTX    H75    159      0.115      1.008   ;
   160       HGA3      1    PTX    H76    160      0.090      1.008   ;
   161       HGA3      1    PTX    H77    161      0.090      1.008   ;
   162       HGA3      1    PTX    H78    162      0.090      1.008   ;
   163       HGA1      1    PTX    H79    163      0.090      1.008   ;
   164       HGA3      1    PTX    H80    164      0.090      1.008   ;
   165       HGA3      1    PTX    H81    165      0.090      1.008   ;
   166       HGA3      1    PTX    H82    166      0.090      1.008   ;
   167       HGA3      1    PTX    H83    167      0.090      1.008   ;
   168       HGA3      1    PTX    H84    168      0.090      1.008   ;
   169       HGA3      1    PTX    H85    169      0.090      1.008   ;
   170       HGA3      1    PTX    H86    170      0.090      1.008   ;
   171       HGA3      1    PTX    H87    171      0.090      1.008   ;
   172       HGA3      1    PTX    H88    172      0.090      1.008   ;
   173       HGA3      1    PTX    H89    173      0.090      1.008   ;
   174       HGA3      1    PTX    H90    174      0.090      1.008   ;
   175       HGA3      1    PTX    H91    175      0.090      1.008   ;

[ bonds ]
;	ai	  aj funct			  c0			c1			  c2			c3
    1     2	 1 ;       CG331      CG321
    1    23	 1 ;       CG331       HGA3
    1    24	 1 ;       CG331       HGA3
    1    25	 1 ;       CG331       HGA3
    2     3	 1 ;       CG321      CG321
    2    26	 1 ;       CG321       HGA2
    2    27	 1 ;       CG321       HGA2
    3     4	 1 ;       CG321      CG321
    3    28	 1 ;       CG321       HGA2
    3    29	 1 ;       CG321       HGA2
    4     5	 1 ;       CG321      CG321
    4    30	 1 ;       CG321       HGA2
    4    31	 1 ;       CG321       HGA2
    5     6	 1 ;       CG321      CG321
    5    32	 1 ;       CG321       HGA2
    5    33	 1 ;       CG321       HGA2
    6     7	 1 ;       CG321      CG321
    6    34	 1 ;       CG321       HGA2
    6    35	 1 ;       CG321       HGA2
    7     8	 1 ;       CG321      CG321
    7    36	 1 ;       CG321       HGA2
    7    37	 1 ;       CG321       HGA2
    8     9	 1 ;       CG321      CG2D1
    8    38	 1 ;       CG321       HGA2
    8    39	 1 ;       CG321       HGA2
    9    10	 1 ;       CG2D1      CG2D1
    9    40	 1 ;       CG2D1       HGA4
   10    11	 1 ;       CG2D1      CG321
   10    41	 1 ;       CG2D1       HGA4
   11    12	 1 ;       CG321      CG321
   11    42	 1 ;       CG321       HGA2
   11    43	 1 ;       CG321       HGA2
   12    13	 1 ;       CG321      CG321
   12    44	 1 ;       CG321       HGA2
   12    45	 1 ;       CG321       HGA2
   13    14	 1 ;       CG321      CG321
   13    46	 1 ;       CG321       HGA2
   13    47	 1 ;       CG321       HGA2
   14    15	 1 ;       CG321      CG321
   14    48	 1 ;       CG321       HGA2
   14    49	 1 ;       CG321       HGA2
   15    16	 1 ;       CG321      CG321
   15    50	 1 ;       CG321       HGA2
   15    51	 1 ;       CG321       HGA2
   16    17	 1 ;       CG321      CG321
   16    52	 1 ;       CG321       HGA2
   16    53	 1 ;       CG321       HGA2
   17    18	 1 ;       CG321      CG321
   17    54	 1 ;       CG321       HGA2
   17    55	 1 ;       CG321       HGA2
   18    22	 1 ;       CG321      OG301
   18    56	 1 ;       CG321       HGA2
   18    57	 1 ;       CG321       HGA2
   19    20	 1 ;       CG301      CG331
   19    21	 1 ;       CG301      CG331
   19   112	 1 ;       CG301      OG301
   19    22	 1 ;       CG301      OG301
   20    58	 1 ;       CG331       HGA3
   20    59	 1 ;       CG331       HGA3
   20    60	 1 ;       CG331       HGA3
   21    61	 1 ;       CG331       HGA3
   21    62	 1 ;       CG331       HGA3
   21    63	 1 ;       CG331       HGA3
   64    87	 1 ;       NG2S1      CG2O1
   64   149	 1 ;       NG2S1       HGP1
   64    86	 1 ;       NG2S1      CG311
   65    66	 1 ;       CG311      CG321
   65   107	 1 ;       CG311      CG301
   65   126	 1 ;       CG311       HGA1
   65   112	 1 ;       CG311      OG301
   66    67	 1 ;       CG321     CG3RC1
   66   127	 1 ;       CG321       HGA2
   66   128	 1 ;       CG321       HGA2
   67    69	 1 ;      CG3RC1     CG3RC1
   67   113	 1 ;      CG3RC1     OG3C51
   67   129	 1 ;      CG3RC1       HGA1
   68    69	 1 ;      CG3C41     CG3RC1
   68   130	 1 ;      CG3C41       HGA2
   68   131	 1 ;      CG3C41       HGA2
   68   113	 1 ;      CG3C41     OG3C51
   69    72	 1 ;      CG3RC1      CG311
   69   114	 1 ;      CG3RC1      OG302
   70    71	 1 ;       CG2O2      CG331
   70   115	 1 ;       CG2O2      OG2D1
   70   114	 1 ;       CG2O2      OG302
   71   132	 1 ;       CG331       HGA3
   71   133	 1 ;       CG331       HGA3
   71   134	 1 ;       CG331       HGA3
   72    73	 1 ;       CG311      CG311
   72   107	 1 ;       CG311      CG301
   72   135	 1 ;       CG311       HGA1
   73    81	 1 ;       CG311      CG301
   73   116	 1 ;       CG311      OG302
   73   136	 1 ;       CG311       HGA1
   74    75	 1 ;       CG2O2     CG2R61
   74   117	 1 ;       CG2O2      OG2D1
   74   116	 1 ;       CG2O2      OG302
   75    76	 1 ;      CG2R61     CG2R61
   75    80	 1 ;      CG2R61     CG2R61
   76    77	 1 ;      CG2R61     CG2R61
   76   137	 1 ;      CG2R61      HGR61
   77    78	 1 ;      CG2R61     CG2R61
   77   138	 1 ;      CG2R61      HGR61
   78    79	 1 ;      CG2R61     CG2R61
   78   139	 1 ;      CG2R61      HGR61
   79    80	 1 ;      CG2R61     CG2R61
   79   140	 1 ;      CG2R61      HGR61
   80   141	 1 ;      CG2R61      HGR61
   81    82	 1 ;       CG301      CG321
   81   109	 1 ;       CG301      CG301
   81   118	 1 ;       CG301      OG311
   82    83	 1 ;       CG321      CG311
   82   143	 1 ;       CG321       HGA2
   82   144	 1 ;       CG321       HGA2
   83   100	 1 ;       CG311      CG2D1
   83   119	 1 ;       CG311      OG302
   83   145	 1 ;       CG311       HGA1
   84    85	 1 ;       CG2O2      CG311
   84   120	 1 ;       CG2O2      OG2D1
   84   119	 1 ;       CG2O2      OG302
   85    86	 1 ;       CG311      CG311
   85   121	 1 ;       CG311      OG311
   85   146	 1 ;       CG311       HGA1
   86    94	 1 ;       CG311     CG2R61
   86   148	 1 ;       CG311       HGA1
   87    88	 1 ;       CG2O1     CG2R61
   87   122	 1 ;       CG2O1      OG2D1
   88    89	 1 ;      CG2R61     CG2R61
   88    93	 1 ;      CG2R61     CG2R61
   89    90	 1 ;      CG2R61     CG2R61
   89   150	 1 ;      CG2R61      HGR61
   90    91	 1 ;      CG2R61     CG2R61
   90   151	 1 ;      CG2R61      HGR61
   91    92	 1 ;      CG2R61     CG2R61
   91   152	 1 ;      CG2R61      HGR61
   92    93	 1 ;      CG2R61     CG2R61
   92   153	 1 ;      CG2R61      HGR61
   93   154	 1 ;      CG2R61      HGR61
   94    95	 1 ;      CG2R61     CG2R61
   94    99	 1 ;      CG2R61     CG2R61
   95    96	 1 ;      CG2R61     CG2R61
   95   155	 1 ;      CG2R61      HGR61
   96    97	 1 ;      CG2R61     CG2R61
   96   156	 1 ;      CG2R61      HGR61
   97    98	 1 ;      CG2R61     CG2R61
   97   157	 1 ;      CG2R61      HGR61
   98    99	 1 ;      CG2R61     CG2R61
   98   158	 1 ;      CG2R61      HGR61
   99   159	 1 ;      CG2R61      HGR61
  100   101	 1 ;       CG2D1      CG331
  100   102	 1 ;       CG2D1      CG2D1
  101   160	 1 ;       CG331       HGA3
  101   161	 1 ;       CG331       HGA3
  101   162	 1 ;       CG331       HGA3
  102   103	 1 ;       CG2D1      CG311
  102   109	 1 ;       CG2D1      CG301
  103   106	 1 ;       CG311      CG2O5
  103   123	 1 ;       CG311      OG302
  103   163	 1 ;       CG311       HGA1
  104   105	 1 ;       CG2O2      CG331
  104   124	 1 ;       CG2O2      OG2D1
  104   123	 1 ;       CG2O2      OG302
  105   164	 1 ;       CG331       HGA3
  105   165	 1 ;       CG331       HGA3
  105   166	 1 ;       CG331       HGA3
  106   107	 1 ;       CG2O5      CG301
  106   125	 1 ;       CG2O5      OG2D3
  107   108	 1 ;       CG301      CG331
  108   167	 1 ;       CG331       HGA3
  108   168	 1 ;       CG331       HGA3
  108   169	 1 ;       CG331       HGA3
  109   110	 1 ;       CG301      CG331
  109   111	 1 ;       CG301      CG331
  110   170	 1 ;       CG331       HGA3
  110   171	 1 ;       CG331       HGA3
  110   172	 1 ;       CG331       HGA3
  111   173	 1 ;       CG331       HGA3
  111   174	 1 ;       CG331       HGA3
  111   175	 1 ;       CG331       HGA3
  118   142	 1 ;       OG311       HGP1
  121   147	 1 ;       OG311       HGP1

[ pairs ]
;	ai	  aj funct			  c0			c1			  c2			c3
    1     4	 1
    1    28	 1
    1    29	 1
    2     5	 1
    2    30	 1
    2    31	 1
    3    23	 1
    3    24	 1
    3    25	 1
    3     6	 1
    3    32	 1
    3    33	 1
    4    26	 1
    4    27	 1
    4     7	 1
    4    34	 1
    4    35	 1
    5    28	 1
    5    29	 1
    5     8	 1
    5    36	 1
    5    37	 1
    6    30	 1
    6    31	 1
    6     9	 1
    6    38	 1
    6    39	 1
    7    32	 1
    7    33	 1
    7    10	 1
    7    40	 1
    8    34	 1
    8    35	 1
    8    11	 1
    8    41	 1
    9    36	 1
    9    37	 1
    9    12	 1
    9    42	 1
    9    43	 1
   10    38	 1
   10    39	 1
   10    13	 1
   10    44	 1
   10    45	 1
   11    40	 1
   11    14	 1
   11    46	 1
   11    47	 1
   12    41	 1
   12    15	 1
   12    48	 1
   12    49	 1
   13    42	 1
   13    43	 1
   13    16	 1
   13    50	 1
   13    51	 1
   14    44	 1
   14    45	 1
   14    17	 1
   14    52	 1
   14    53	 1
   15    46	 1
   15    47	 1
   15    18	 1
   15    54	 1
   15    55	 1
   16    48	 1
   16    49	 1
   16    22	 1
   16    56	 1
   16    57	 1
   17    50	 1
   17    51	 1
   17    19	 1
   18    52	 1
   18    53	 1
   18    20	 1
   18    21	 1
   18   112	 1
   19    56	 1
   19    57	 1
   19    66	 1
   19   107	 1
   19   126	 1
   20    61	 1
   20    62	 1
   20    63	 1
   20    65	 1
   21    58	 1
   21    59	 1
   21    60	 1
   21    65	 1
   22    54	 1
   22    55	 1
   22    58	 1
   22    59	 1
   22    60	 1
   22    61	 1
   22    62	 1
   22    63	 1
   22    65	 1
   23    26	 1
   23    27	 1
   24    26	 1
   24    27	 1
   25    26	 1
   25    27	 1
   26    28	 1
   26    29	 1
   27    28	 1
   27    29	 1
   28    30	 1
   28    31	 1
   29    30	 1
   29    31	 1
   30    32	 1
   30    33	 1
   31    32	 1
   31    33	 1
   32    34	 1
   32    35	 1
   33    34	 1
   33    35	 1
   34    36	 1
   34    37	 1
   35    36	 1
   35    37	 1
   36    38	 1
   36    39	 1
   37    38	 1
   37    39	 1
   38    40	 1
   39    40	 1
   40    41	 1
   41    42	 1
   41    43	 1
   42    44	 1
   42    45	 1
   43    44	 1
   43    45	 1
   44    46	 1
   44    47	 1
   45    46	 1
   45    47	 1
   46    48	 1
   46    49	 1
   47    48	 1
   47    49	 1
   48    50	 1
   48    51	 1
   49    50	 1
   49    51	 1
   50    52	 1
   50    53	 1
   51    52	 1
   51    53	 1
   52    54	 1
   52    55	 1
   53    54	 1
   53    55	 1
   54    56	 1
   54    57	 1
   55    56	 1
   55    57	 1
   58   112	 1
   59   112	 1
   60   112	 1
   61   112	 1
   62   112	 1
   63   112	 1
   64    84	 1
   64   121	 1
   64   146	 1
   64    95	 1
   64    99	 1
   64    89	 1
   64    93	 1
   65    69	 1
   65   113	 1
   65   129	 1
   65    73	 1
   65   135	 1
   65   103	 1
   65   125	 1
   65   167	 1
   65   168	 1
   65   169	 1
   66    72	 1
   66   106	 1
   66   108	 1
   66    68	 1
   66   114	 1
   67   107	 1
   67   126	 1
   67   112	 1
   67   130	 1
   67   131	 1
   67    73	 1
   67   135	 1
   67    70	 1
   68   129	 1
   68    73	 1
   68   107	 1
   68   135	 1
   68    70	 1
   69   127	 1
   69   128	 1
   69    71	 1
   69   115	 1
   69    81	 1
   69   116	 1
   69   136	 1
   69   106	 1
   69   108	 1
   70    72	 1
   72   126	 1
   72   112	 1
   72   113	 1
   72   129	 1
   72   130	 1
   72   131	 1
   72    82	 1
   72   109	 1
   72   118	 1
   72    74	 1
   72   103	 1
   72   125	 1
   72   167	 1
   72   168	 1
   72   169	 1
   73   114	 1
   73   106	 1
   73   108	 1
   73    75	 1
   73   117	 1
   73    83	 1
   73   143	 1
   73   144	 1
   73   102	 1
   73   110	 1
   73   111	 1
   73   142	 1
   74    81	 1
   74   136	 1
   74    77	 1
   74   137	 1
   74    79	 1
   74   141	 1
   75    78	 1
   75   138	 1
   75   140	 1
   76   117	 1
   76   116	 1
   76    79	 1
   76   141	 1
   76   139	 1
   77    80	 1
   77   140	 1
   78   137	 1
   78   141	 1
   79   138	 1
   80   117	 1
   80   116	 1
   80   137	 1
   80   139	 1
   81   107	 1
   81   135	 1
   81   100	 1
   81   119	 1
   81   145	 1
   81   103	 1
   81   170	 1
   81   171	 1
   81   172	 1
   81   173	 1
   81   174	 1
   81   175	 1
   82   116	 1
   82   136	 1
   82   102	 1
   82   110	 1
   82   111	 1
   82   142	 1
   82   101	 1
   82    84	 1
   83   109	 1
   83   118	 1
   83    85	 1
   83   120	 1
   83   160	 1
   83   161	 1
   83   162	 1
   83   103	 1
   84   100	 1
   84   145	 1
   84    94	 1
   84   148	 1
   84   147	 1
   85    87	 1
   85   149	 1
   85    95	 1
   85    99	 1
   86    88	 1
   86   122	 1
   86   120	 1
   86   119	 1
   86   147	 1
   86    96	 1
   86   155	 1
   86    98	 1
   86   159	 1
   87    94	 1
   87   148	 1
   87    90	 1
   87   150	 1
   87    92	 1
   87   154	 1
   88   149	 1
   88    91	 1
   88   151	 1
   88   153	 1
   89   122	 1
   89    92	 1
   89   154	 1
   89   152	 1
   90    93	 1
   90   153	 1
   91   150	 1
   91   154	 1
   92   151	 1
   93   122	 1
   93   150	 1
   93   152	 1
   94   149	 1
   94   121	 1
   94   146	 1
   94    97	 1
   94   156	 1
   94   158	 1
   95   148	 1
   95    98	 1
   95   159	 1
   95   157	 1
   96    99	 1
   96   158	 1
   97   155	 1
   97   159	 1
   98   156	 1
   99   148	 1
   99   155	 1
   99   157	 1
  100   143	 1
  100   144	 1
  100   106	 1
  100   123	 1
  100   163	 1
  100   110	 1
  100   111	 1
  101   119	 1
  101   145	 1
  101   103	 1
  101   109	 1
  102   118	 1
  102   119	 1
  102   145	 1
  102   160	 1
  102   161	 1
  102   162	 1
  102   107	 1
  102   125	 1
  102   104	 1
  102   170	 1
  102   171	 1
  102   172	 1
  102   173	 1
  102   174	 1
  102   175	 1
  103   110	 1
  103   111	 1
  103   105	 1
  103   124	 1
  103   108	 1
  104   106	 1
  104   163	 1
  106   126	 1
  106   112	 1
  106   135	 1
  106   109	 1
  106   167	 1
  106   168	 1
  106   169	 1
  107   127	 1
  107   128	 1
  107   114	 1
  107   116	 1
  107   136	 1
  107   123	 1
  107   163	 1
  108   126	 1
  108   112	 1
  108   135	 1
  108   125	 1
  109   116	 1
  109   136	 1
  109   143	 1
  109   144	 1
  109   142	 1
  109   123	 1
  109   163	 1
  110   118	 1
  110   173	 1
  110   174	 1
  110   175	 1
  111   118	 1
  111   170	 1
  111   171	 1
  111   172	 1
  112   127	 1
  112   128	 1
  113   127	 1
  113   128	 1
  113   114	 1
  114   129	 1
  114   130	 1
  114   131	 1
  114   135	 1
  114   132	 1
  114   133	 1
  114   134	 1
  115   132	 1
  115   133	 1
  115   134	 1
  116   135	 1
  116   118	 1
  118   136	 1
  118   143	 1
  118   144	 1
  119   143	 1
  119   144	 1
  119   121	 1
  119   146	 1
  120   121	 1
  120   146	 1
  121   148	 1
  122   149	 1
  123   125	 1
  123   164	 1
  123   165	 1
  123   166	 1
  124   164	 1
  124   165	 1
  124   166	 1
  125   163	 1
  126   127	 1
  126   128	 1
  127   129	 1
  128   129	 1
  135   136	 1
  137   138	 1
  138   139	 1
  139   140	 1
  140   141	 1
  143   145	 1
  144   145	 1
  146   148	 1
  146   147	 1
  148   149	 1
  150   151	 1
  151   152	 1
  152   153	 1
  153   154	 1
  155   156	 1
  156   157	 1
  157   158	 1
  158   159	 1

[ angles ]
;	ai	  aj	ak funct			c0			  c1			c2			  c3
    2     1    23	5 ;      CG321      CG331       HGA3
    2     1    24	5 ;      CG321      CG331       HGA3
    2     1    25	5 ;      CG321      CG331       HGA3
   23     1    24	5 ;       HGA3      CG331       HGA3
   23     1    25	5 ;       HGA3      CG331       HGA3
   24     1    25	5 ;       HGA3      CG331       HGA3
    1     2     3	5 ;      CG331      CG321      CG321
    1     2    26	5 ;      CG331      CG321       HGA2
    1     2    27	5 ;      CG331      CG321       HGA2
    3     2    26	5 ;      CG321      CG321       HGA2
    3     2    27	5 ;      CG321      CG321       HGA2
   26     2    27	5 ;       HGA2      CG321       HGA2
    2     3     4	5 ;      CG321      CG321      CG321
    2     3    28	5 ;      CG321      CG321       HGA2
    2     3    29	5 ;      CG321      CG321       HGA2
    4     3    28	5 ;      CG321      CG321       HGA2
    4     3    29	5 ;      CG321      CG321       HGA2
   28     3    29	5 ;       HGA2      CG321       HGA2
    3     4     5	5 ;      CG321      CG321      CG321
    3     4    30	5 ;      CG321      CG321       HGA2
    3     4    31	5 ;      CG321      CG321       HGA2
    5     4    30	5 ;      CG321      CG321       HGA2
    5     4    31	5 ;      CG321      CG321       HGA2
   30     4    31	5 ;       HGA2      CG321       HGA2
    4     5     6	5 ;      CG321      CG321      CG321
    4     5    32	5 ;      CG321      CG321       HGA2
    4     5    33	5 ;      CG321      CG321       HGA2
    6     5    32	5 ;      CG321      CG321       HGA2
    6     5    33	5 ;      CG321      CG321       HGA2
   32     5    33	5 ;       HGA2      CG321       HGA2
    5     6     7	5 ;      CG321      CG321      CG321
    5     6    34	5 ;      CG321      CG321       HGA2
    5     6    35	5 ;      CG321      CG321       HGA2
    7     6    34	5 ;      CG321      CG321       HGA2
    7     6    35	5 ;      CG321      CG321       HGA2
   34     6    35	5 ;       HGA2      CG321       HGA2
    6     7     8	5 ;      CG321      CG321      CG321
    6     7    36	5 ;      CG321      CG321       HGA2
    6     7    37	5 ;      CG321      CG321       HGA2
    8     7    36	5 ;      CG321      CG321       HGA2
    8     7    37	5 ;      CG321      CG321       HGA2
   36     7    37	5 ;       HGA2      CG321       HGA2
    7     8     9	5 ;      CG321      CG321      CG2D1
    7     8    38	5 ;      CG321      CG321       HGA2
    7     8    39	5 ;      CG321      CG321       HGA2
    9     8    38	5 ;      CG2D1      CG321       HGA2
    9     8    39	5 ;      CG2D1      CG321       HGA2
   38     8    39	5 ;       HGA2      CG321       HGA2
    8     9    10	5 ;      CG321      CG2D1      CG2D1
    8     9    40	5 ;      CG321      CG2D1       HGA4
   10     9    40	5 ;      CG2D1      CG2D1       HGA4
    9    10    11	5 ;      CG2D1      CG2D1      CG321
    9    10    41	5 ;      CG2D1      CG2D1       HGA4
   11    10    41	5 ;      CG321      CG2D1       HGA4
   10    11    12	5 ;      CG2D1      CG321      CG321
   10    11    42	5 ;      CG2D1      CG321       HGA2
   10    11    43	5 ;      CG2D1      CG321       HGA2
   12    11    42	5 ;      CG321      CG321       HGA2
   12    11    43	5 ;      CG321      CG321       HGA2
   42    11    43	5 ;       HGA2      CG321       HGA2
   11    12    13	5 ;      CG321      CG321      CG321
   11    12    44	5 ;      CG321      CG321       HGA2
   11    12    45	5 ;      CG321      CG321       HGA2
   13    12    44	5 ;      CG321      CG321       HGA2
   13    12    45	5 ;      CG321      CG321       HGA2
   44    12    45	5 ;       HGA2      CG321       HGA2
   12    13    14	5 ;      CG321      CG321      CG321
   12    13    46	5 ;      CG321      CG321       HGA2
   12    13    47	5 ;      CG321      CG321       HGA2
   14    13    46	5 ;      CG321      CG321       HGA2
   14    13    47	5 ;      CG321      CG321       HGA2
   46    13    47	5 ;       HGA2      CG321       HGA2
   13    14    15	5 ;      CG321      CG321      CG321
   13    14    48	5 ;      CG321      CG321       HGA2
   13    14    49	5 ;      CG321      CG321       HGA2
   15    14    48	5 ;      CG321      CG321       HGA2
   15    14    49	5 ;      CG321      CG321       HGA2
   48    14    49	5 ;       HGA2      CG321       HGA2
   14    15    16	5 ;      CG321      CG321      CG321
   14    15    50	5 ;      CG321      CG321       HGA2
   14    15    51	5 ;      CG321      CG321       HGA2
   16    15    50	5 ;      CG321      CG321       HGA2
   16    15    51	5 ;      CG321      CG321       HGA2
   50    15    51	5 ;       HGA2      CG321       HGA2
   15    16    17	5 ;      CG321      CG321      CG321
   15    16    52	5 ;      CG321      CG321       HGA2
   15    16    53	5 ;      CG321      CG321       HGA2
   17    16    52	5 ;      CG321      CG321       HGA2
   17    16    53	5 ;      CG321      CG321       HGA2
   52    16    53	5 ;       HGA2      CG321       HGA2
   16    17    18	5 ;      CG321      CG321      CG321
   16    17    54	5 ;      CG321      CG321       HGA2
   16    17    55	5 ;      CG321      CG321       HGA2
   18    17    54	5 ;      CG321      CG321       HGA2
   18    17    55	5 ;      CG321      CG321       HGA2
   54    17    55	5 ;       HGA2      CG321       HGA2
   17    18    22	5 ;      CG321      CG321      OG301
   17    18    56	5 ;      CG321      CG321       HGA2
   17    18    57	5 ;      CG321      CG321       HGA2
   22    18    56	5 ;      OG301      CG321       HGA2
   22    18    57	5 ;      OG301      CG321       HGA2
   56    18    57	5 ;       HGA2      CG321       HGA2
   20    19    21	5 ;      CG331      CG301      CG331
   20    19   112	5 ;      CG331      CG301      OG301
   20    19    22	5 ;      CG331      CG301      OG301
   21    19   112	5 ;      CG331      CG301      OG301
   21    19    22	5 ;      CG331      CG301      OG301
  112    19    22	5 ;      OG301      CG301      OG301
   19    20    58	5 ;      CG301      CG331       HGA3
   19    20    59	5 ;      CG301      CG331       HGA3
   19    20    60	5 ;      CG301      CG331       HGA3
   58    20    59	5 ;       HGA3      CG331       HGA3
   58    20    60	5 ;       HGA3      CG331       HGA3
   59    20    60	5 ;       HGA3      CG331       HGA3
   19    21    61	5 ;      CG301      CG331       HGA3
   19    21    62	5 ;      CG301      CG331       HGA3
   19    21    63	5 ;      CG301      CG331       HGA3
   61    21    62	5 ;       HGA3      CG331       HGA3
   61    21    63	5 ;       HGA3      CG331       HGA3
   62    21    63	5 ;       HGA3      CG331       HGA3
   18    22    19	5 ;      CG321      OG301      CG301
   87    64   149	5 ;      CG2O1      NG2S1       HGP1
   87    64    86	5 ;      CG2O1      NG2S1      CG311
  149    64    86	5 ;       HGP1      NG2S1      CG311
   66    65   107	5 ;      CG321      CG311      CG301
   66    65   126	5 ;      CG321      CG311       HGA1
   66    65   112	5 ;      CG321      CG311      OG301
  107    65   126	5 ;      CG301      CG311       HGA1
  107    65   112	5 ;      CG301      CG311      OG301
  126    65   112	5 ;       HGA1      CG311      OG301
   65    66    67	5 ;      CG311      CG321     CG3RC1
   65    66   127	5 ;      CG311      CG321       HGA2
   65    66   128	5 ;      CG311      CG321       HGA2
   67    66   127	5 ;     CG3RC1      CG321       HGA2
   67    66   128	5 ;     CG3RC1      CG321       HGA2
  127    66   128	5 ;       HGA2      CG321       HGA2
   66    67    69	5 ;      CG321     CG3RC1     CG3RC1
   66    67   113	5 ;      CG321     CG3RC1     OG3C51
   66    67   129	5 ;      CG321     CG3RC1       HGA1
   69    67   113	5 ;     CG3RC1     CG3RC1     OG3C51
   69    67   129	5 ;     CG3RC1     CG3RC1       HGA1
  113    67   129	5 ;     OG3C51     CG3RC1       HGA1
   69    68   130	5 ;     CG3RC1     CG3C41       HGA2
   69    68   131	5 ;     CG3RC1     CG3C41       HGA2
   69    68   113	5 ;     CG3RC1     CG3C41     OG3C51
  130    68   131	5 ;       HGA2     CG3C41       HGA2
  130    68   113	5 ;       HGA2     CG3C41     OG3C51
  131    68   113	5 ;       HGA2     CG3C41     OG3C51
   67    69    68	5 ;     CG3RC1     CG3RC1     CG3C41
   67    69    72	5 ;     CG3RC1     CG3RC1      CG311
   67    69   114	5 ;     CG3RC1     CG3RC1      OG302
   68    69    72	5 ;     CG3C41     CG3RC1      CG311
   68    69   114	5 ;     CG3C41     CG3RC1      OG302
   72    69   114	5 ;      CG311     CG3RC1      OG302
   71    70   115	5 ;      CG331      CG2O2      OG2D1
   71    70   114	5 ;      CG331      CG2O2      OG302
  115    70   114	5 ;      OG2D1      CG2O2      OG302
   70    71   132	5 ;      CG2O2      CG331       HGA3
   70    71   133	5 ;      CG2O2      CG331       HGA3
   70    71   134	5 ;      CG2O2      CG331       HGA3
  132    71   133	5 ;       HGA3      CG331       HGA3
  132    71   134	5 ;       HGA3      CG331       HGA3
  133    71   134	5 ;       HGA3      CG331       HGA3
   69    72    73	5 ;     CG3RC1      CG311      CG311
   69    72   107	5 ;     CG3RC1      CG311      CG301
   69    72   135	5 ;     CG3RC1      CG311       HGA1
   73    72   107	5 ;      CG311      CG311      CG301
   73    72   135	5 ;      CG311      CG311       HGA1
  107    72   135	5 ;      CG301      CG311       HGA1
   72    73    81	5 ;      CG311      CG311      CG301
   72    73   116	5 ;      CG311      CG311      OG302
   72    73   136	5 ;      CG311      CG311       HGA1
   81    73   116	5 ;      CG301      CG311      OG302
   81    73   136	5 ;      CG301      CG311       HGA1
  116    73   136	5 ;      OG302      CG311       HGA1
   75    74   117	5 ;     CG2R61      CG2O2      OG2D1
   75    74   116	5 ;     CG2R61      CG2O2      OG302
  117    74   116	5 ;      OG2D1      CG2O2      OG302
   74    75    76	5 ;      CG2O2     CG2R61     CG2R61
   74    75    80	5 ;      CG2O2     CG2R61     CG2R61
   76    75    80	5 ;     CG2R61     CG2R61     CG2R61
   75    76    77	5 ;     CG2R61     CG2R61     CG2R61
   75    76   137	5 ;     CG2R61     CG2R61      HGR61
   77    76   137	5 ;     CG2R61     CG2R61      HGR61
   76    77    78	5 ;     CG2R61     CG2R61     CG2R61
   76    77   138	5 ;     CG2R61     CG2R61      HGR61
   78    77   138	5 ;     CG2R61     CG2R61      HGR61
   77    78    79	5 ;     CG2R61     CG2R61     CG2R61
   77    78   139	5 ;     CG2R61     CG2R61      HGR61
   79    78   139	5 ;     CG2R61     CG2R61      HGR61
   78    79    80	5 ;     CG2R61     CG2R61     CG2R61
   78    79   140	5 ;     CG2R61     CG2R61      HGR61
   80    79   140	5 ;     CG2R61     CG2R61      HGR61
   75    80    79	5 ;     CG2R61     CG2R61     CG2R61
   75    80   141	5 ;     CG2R61     CG2R61      HGR61
   79    80   141	5 ;     CG2R61     CG2R61      HGR61
   73    81    82	5 ;      CG311      CG301      CG321
   73    81   109	5 ;      CG311      CG301      CG301
   73    81   118	5 ;      CG311      CG301      OG311
   82    81   109	5 ;      CG321      CG301      CG301
   82    81   118	5 ;      CG321      CG301      OG311
  109    81   118	5 ;      CG301      CG301      OG311
   81    82    83	5 ;      CG301      CG321      CG311
   81    82   143	5 ;      CG301      CG321       HGA2
   81    82   144	5 ;      CG301      CG321       HGA2
   83    82   143	5 ;      CG311      CG321       HGA2
   83    82   144	5 ;      CG311      CG321       HGA2
  143    82   144	5 ;       HGA2      CG321       HGA2
   82    83   100	5 ;      CG321      CG311      CG2D1
   82    83   119	5 ;      CG321      CG311      OG302
   82    83   145	5 ;      CG321      CG311       HGA1
  100    83   119	5 ;      CG2D1      CG311      OG302
  100    83   145	5 ;      CG2D1      CG311       HGA1
  119    83   145	5 ;      OG302      CG311       HGA1
   85    84   120	5 ;      CG311      CG2O2      OG2D1
   85    84   119	5 ;      CG311      CG2O2      OG302
  120    84   119	5 ;      OG2D1      CG2O2      OG302
   84    85    86	5 ;      CG2O2      CG311      CG311
   84    85   121	5 ;      CG2O2      CG311      OG311
   84    85   146	5 ;      CG2O2      CG311       HGA1
   86    85   121	5 ;      CG311      CG311      OG311
   86    85   146	5 ;      CG311      CG311       HGA1
  121    85   146	5 ;      OG311      CG311       HGA1
   85    86    64	5 ;      CG311      CG311      NG2S1
   85    86    94	5 ;      CG311      CG311     CG2R61
   85    86   148	5 ;      CG311      CG311       HGA1
   64    86    94	5 ;      NG2S1      CG311     CG2R61
   64    86   148	5 ;      NG2S1      CG311       HGA1
   94    86   148	5 ;     CG2R61      CG311       HGA1
   64    87    88	5 ;      NG2S1      CG2O1     CG2R61
   64    87   122	5 ;      NG2S1      CG2O1      OG2D1
   88    87   122	5 ;     CG2R61      CG2O1      OG2D1
   87    88    89	5 ;      CG2O1     CG2R61     CG2R61
   87    88    93	5 ;      CG2O1     CG2R61     CG2R61
   89    88    93	5 ;     CG2R61     CG2R61     CG2R61
   88    89    90	5 ;     CG2R61     CG2R61     CG2R61
   88    89   150	5 ;     CG2R61     CG2R61      HGR61
   90    89   150	5 ;     CG2R61     CG2R61      HGR61
   89    90    91	5 ;     CG2R61     CG2R61     CG2R61
   89    90   151	5 ;     CG2R61     CG2R61      HGR61
   91    90   151	5 ;     CG2R61     CG2R61      HGR61
   90    91    92	5 ;     CG2R61     CG2R61     CG2R61
   90    91   152	5 ;     CG2R61     CG2R61      HGR61
   92    91   152	5 ;     CG2R61     CG2R61      HGR61
   91    92    93	5 ;     CG2R61     CG2R61     CG2R61
   91    92   153	5 ;     CG2R61     CG2R61      HGR61
   93    92   153	5 ;     CG2R61     CG2R61      HGR61
   88    93    92	5 ;     CG2R61     CG2R61     CG2R61
   88    93   154	5 ;     CG2R61     CG2R61      HGR61
   92    93   154	5 ;     CG2R61     CG2R61      HGR61
   86    94    95	5 ;      CG311     CG2R61     CG2R61
   86    94    99	5 ;      CG311     CG2R61     CG2R61
   95    94    99	5 ;     CG2R61     CG2R61     CG2R61
   94    95    96	5 ;     CG2R61     CG2R61     CG2R61
   94    95   155	5 ;     CG2R61     CG2R61      HGR61
   96    95   155	5 ;     CG2R61     CG2R61      HGR61
   95    96    97	5 ;     CG2R61     CG2R61     CG2R61
   95    96   156	5 ;     CG2R61     CG2R61      HGR61
   97    96   156	5 ;     CG2R61     CG2R61      HGR61
   96    97    98	5 ;     CG2R61     CG2R61     CG2R61
   96    97   157	5 ;     CG2R61     CG2R61      HGR61
   98    97   157	5 ;     CG2R61     CG2R61      HGR61
   97    98    99	5 ;     CG2R61     CG2R61     CG2R61
   97    98   158	5 ;     CG2R61     CG2R61      HGR61
   99    98   158	5 ;     CG2R61     CG2R61      HGR61
   94    99    98	5 ;     CG2R61     CG2R61     CG2R61
   94    99   159	5 ;     CG2R61     CG2R61      HGR61
   98    99   159	5 ;     CG2R61     CG2R61      HGR61
   83   100   101	5 ;      CG311      CG2D1      CG331
   83   100   102	5 ;      CG311      CG2D1      CG2D1
  101   100   102	5 ;      CG331      CG2D1      CG2D1
  100   101   160	5 ;      CG2D1      CG331       HGA3
  100   101   161	5 ;      CG2D1      CG331       HGA3
  100   101   162	5 ;      CG2D1      CG331       HGA3
  160   101   161	5 ;       HGA3      CG331       HGA3
  160   101   162	5 ;       HGA3      CG331       HGA3
  161   101   162	5 ;       HGA3      CG331       HGA3
  100   102   103	5 ;      CG2D1      CG2D1      CG311
  100   102   109	5 ;      CG2D1      CG2D1      CG301
  103   102   109	5 ;      CG311      CG2D1      CG301
  102   103   106	5 ;      CG2D1      CG311      CG2O5
  102   103   123	5 ;      CG2D1      CG311      OG302
  102   103   163	5 ;      CG2D1      CG311       HGA1
  106   103   123	5 ;      CG2O5      CG311      OG302
  106   103   163	5 ;      CG2O5      CG311       HGA1
  123   103   163	5 ;      OG302      CG311       HGA1
  105   104   124	5 ;      CG331      CG2O2      OG2D1
  105   104   123	5 ;      CG331      CG2O2      OG302
  124   104   123	5 ;      OG2D1      CG2O2      OG302
  104   105   164	5 ;      CG2O2      CG331       HGA3
  104   105   165	5 ;      CG2O2      CG331       HGA3
  104   105   166	5 ;      CG2O2      CG331       HGA3
  164   105   165	5 ;       HGA3      CG331       HGA3
  164   105   166	5 ;       HGA3      CG331       HGA3
  165   105   166	5 ;       HGA3      CG331       HGA3
  103   106   107	5 ;      CG311      CG2O5      CG301
  103   106   125	5 ;      CG311      CG2O5      OG2D3
  107   106   125	5 ;      CG301      CG2O5      OG2D3
   65   107    72	5 ;      CG311      CG301      CG311
   65   107   106	5 ;      CG311      CG301      CG2O5
   65   107   108	5 ;      CG311      CG301      CG331
   72   107   106	5 ;      CG311      CG301      CG2O5
   72   107   108	5 ;      CG311      CG301      CG331
  106   107   108	5 ;      CG2O5      CG301      CG331
  107   108   167	5 ;      CG301      CG331       HGA3
  107   108   168	5 ;      CG301      CG331       HGA3
  107   108   169	5 ;      CG301      CG331       HGA3
  167   108   168	5 ;       HGA3      CG331       HGA3
  167   108   169	5 ;       HGA3      CG331       HGA3
  168   108   169	5 ;       HGA3      CG331       HGA3
   81   109   102	5 ;      CG301      CG301      CG2D1
   81   109   110	5 ;      CG301      CG301      CG331
   81   109   111	5 ;      CG301      CG301      CG331
  102   109   110	5 ;      CG2D1      CG301      CG331
  102   109   111	5 ;      CG2D1      CG301      CG331
  110   109   111	5 ;      CG331      CG301      CG331
  109   110   170	5 ;      CG301      CG331       HGA3
  109   110   171	5 ;      CG301      CG331       HGA3
  109   110   172	5 ;      CG301      CG331       HGA3
  170   110   171	5 ;       HGA3      CG331       HGA3
  170   110   172	5 ;       HGA3      CG331       HGA3
  171   110   172	5 ;       HGA3      CG331       HGA3
  109   111   173	5 ;      CG301      CG331       HGA3
  109   111   174	5 ;      CG301      CG331       HGA3
  109   111   175	5 ;      CG301      CG331       HGA3
  173   111   174	5 ;       HGA3      CG331       HGA3
  173   111   175	5 ;       HGA3      CG331       HGA3
  174   111   175	5 ;       HGA3      CG331       HGA3
   19   112    65	5 ;      CG301      OG301      CG311
   67   113    68	5 ;     CG3RC1     OG3C51     CG3C41
   69   114    70	5 ;     CG3RC1      OG302      CG2O2
   73   116    74	5 ;      CG311      OG302      CG2O2
   81   118   142	5 ;      CG301      OG311       HGP1
   83   119    84	5 ;      CG311      OG302      CG2O2
   85   121   147	5 ;      CG311      OG311       HGP1
  103   123   104	5 ;      CG311      OG302      CG2O2

[ dihedrals ]
;	ai	  aj	ak	  al funct			  c0			c1			  c2			c3			  c4			c5
   23     1     2     3	 9 ;       HGA3      CG331      CG321      CG321
   23     1     2    26	 9 ;       HGA3      CG331      CG321       HGA2
   23     1     2    27	 9 ;       HGA3      CG331      CG321       HGA2
   24     1     2     3	 9 ;       HGA3      CG331      CG321      CG321
   24     1     2    26	 9 ;       HGA3      CG331      CG321       HGA2
   24     1     2    27	 9 ;       HGA3      CG331      CG321       HGA2
   25     1     2     3	 9 ;       HGA3      CG331      CG321      CG321
   25     1     2    26	 9 ;       HGA3      CG331      CG321       HGA2
   25     1     2    27	 9 ;       HGA3      CG331      CG321       HGA2
    1     2     3     4	 9 ;      CG331      CG321      CG321      CG321
    1     2     3    28	 9 ;      CG331      CG321      CG321       HGA2
    1     2     3    29	 9 ;      CG331      CG321      CG321       HGA2
   26     2     3     4	 9 ;       HGA2      CG321      CG321      CG321
   26     2     3    28	 9 ;       HGA2      CG321      CG321       HGA2
   26     2     3    29	 9 ;       HGA2      CG321      CG321       HGA2
   27     2     3     4	 9 ;       HGA2      CG321      CG321      CG321
   27     2     3    28	 9 ;       HGA2      CG321      CG321       HGA2
   27     2     3    29	 9 ;       HGA2      CG321      CG321       HGA2
    2     3     4     5	 9 ;      CG321      CG321      CG321      CG321
    2     3     4    30	 9 ;      CG321      CG321      CG321       HGA2
    2     3     4    31	 9 ;      CG321      CG321      CG321       HGA2
   28     3     4     5	 9 ;       HGA2      CG321      CG321      CG321
   28     3     4    30	 9 ;       HGA2      CG321      CG321       HGA2
   28     3     4    31	 9 ;       HGA2      CG321      CG321       HGA2
   29     3     4     5	 9 ;       HGA2      CG321      CG321      CG321
   29     3     4    30	 9 ;       HGA2      CG321      CG321       HGA2
   29     3     4    31	 9 ;       HGA2      CG321      CG321       HGA2
    3     4     5     6	 9 ;      CG321      CG321      CG321      CG321
    3     4     5    32	 9 ;      CG321      CG321      CG321       HGA2
    3     4     5    33	 9 ;      CG321      CG321      CG321       HGA2
   30     4     5     6	 9 ;       HGA2      CG321      CG321      CG321
   30     4     5    32	 9 ;       HGA2      CG321      CG321       HGA2
   30     4     5    33	 9 ;       HGA2      CG321      CG321       HGA2
   31     4     5     6	 9 ;       HGA2      CG321      CG321      CG321
   31     4     5    32	 9 ;       HGA2      CG321      CG321       HGA2
   31     4     5    33	 9 ;       HGA2      CG321      CG321       HGA2
    4     5     6     7	 9 ;      CG321      CG321      CG321      CG321
    4     5     6    34	 9 ;      CG321      CG321      CG321       HGA2
    4     5     6    35	 9 ;      CG321      CG321      CG321       HGA2
   32     5     6     7	 9 ;       HGA2      CG321      CG321      CG321
   32     5     6    34	 9 ;       HGA2      CG321      CG321       HGA2
   32     5     6    35	 9 ;       HGA2      CG321      CG321       HGA2
   33     5     6     7	 9 ;       HGA2      CG321      CG321      CG321
   33     5     6    34	 9 ;       HGA2      CG321      CG321       HGA2
   33     5     6    35	 9 ;       HGA2      CG321      CG321       HGA2
    5     6     7     8	 9 ;      CG321      CG321      CG321      CG321
    5     6     7    36	 9 ;      CG321      CG321      CG321       HGA2
    5     6     7    37	 9 ;      CG321      CG321      CG321       HGA2
   34     6     7     8	 9 ;       HGA2      CG321      CG321      CG321
   34     6     7    36	 9 ;       HGA2      CG321      CG321       HGA2
   34     6     7    37	 9 ;       HGA2      CG321      CG321       HGA2
   35     6     7     8	 9 ;       HGA2      CG321      CG321      CG321
   35     6     7    36	 9 ;       HGA2      CG321      CG321       HGA2
   35     6     7    37	 9 ;       HGA2      CG321      CG321       HGA2
    6     7     8     9	 9 ;      CG321      CG321      CG321      CG2D1
    6     7     8    38	 9 ;      CG321      CG321      CG321       HGA2
    6     7     8    39	 9 ;      CG321      CG321      CG321       HGA2
   36     7     8     9	 9 ;       HGA2      CG321      CG321      CG2D1
   36     7     8    38	 9 ;       HGA2      CG321      CG321       HGA2
   36     7     8    39	 9 ;       HGA2      CG321      CG321       HGA2
   37     7     8     9	 9 ;       HGA2      CG321      CG321      CG2D1
   37     7     8    38	 9 ;       HGA2      CG321      CG321       HGA2
   37     7     8    39	 9 ;       HGA2      CG321      CG321       HGA2
    7     8     9    10	 9 ;      CG321      CG321      CG2D1      CG2D1
    7     8     9    40	 9 ;      CG321      CG321      CG2D1       HGA4
   38     8     9    10	 9 ;       HGA2      CG321      CG2D1      CG2D1
   38     8     9    40	 9 ;       HGA2      CG321      CG2D1       HGA4
   39     8     9    10	 9 ;       HGA2      CG321      CG2D1      CG2D1
   39     8     9    40	 9 ;       HGA2      CG321      CG2D1       HGA4
    8     9    10    11	 9 ;      CG321      CG2D1      CG2D1      CG321
    8     9    10    41	 9 ;      CG321      CG2D1      CG2D1       HGA4
   40     9    10    11	 9 ;       HGA4      CG2D1      CG2D1      CG321
   40     9    10    41	 9 ;       HGA4      CG2D1      CG2D1       HGA4
    9    10    11    12	 9 ;      CG2D1      CG2D1      CG321      CG321
    9    10    11    42	 9 ;      CG2D1      CG2D1      CG321       HGA2
    9    10    11    43	 9 ;      CG2D1      CG2D1      CG321       HGA2
   41    10    11    12	 9 ;       HGA4      CG2D1      CG321      CG321
   41    10    11    42	 9 ;       HGA4      CG2D1      CG321       HGA2
   41    10    11    43	 9 ;       HGA4      CG2D1      CG321       HGA2
   10    11    12    13	 9 ;      CG2D1      CG321      CG321      CG321
   10    11    12    44	 9 ;      CG2D1      CG321      CG321       HGA2
   10    11    12    45	 9 ;      CG2D1      CG321      CG321       HGA2
   42    11    12    13	 9 ;       HGA2      CG321      CG321      CG321
   42    11    12    44	 9 ;       HGA2      CG321      CG321       HGA2
   42    11    12    45	 9 ;       HGA2      CG321      CG321       HGA2
   43    11    12    13	 9 ;       HGA2      CG321      CG321      CG321
   43    11    12    44	 9 ;       HGA2      CG321      CG321       HGA2
   43    11    12    45	 9 ;       HGA2      CG321      CG321       HGA2
   11    12    13    14	 9 ;      CG321      CG321      CG321      CG321
   11    12    13    46	 9 ;      CG321      CG321      CG321       HGA2
   11    12    13    47	 9 ;      CG321      CG321      CG321       HGA2
   44    12    13    14	 9 ;       HGA2      CG321      CG321      CG321
   44    12    13    46	 9 ;       HGA2      CG321      CG321       HGA2
   44    12    13    47	 9 ;       HGA2      CG321      CG321       HGA2
   45    12    13    14	 9 ;       HGA2      CG321      CG321      CG321
   45    12    13    46	 9 ;       HGA2      CG321      CG321       HGA2
   45    12    13    47	 9 ;       HGA2      CG321      CG321       HGA2
   12    13    14    15	 9 ;      CG321      CG321      CG321      CG321
   12    13    14    48	 9 ;      CG321      CG321      CG321       HGA2
   12    13    14    49	 9 ;      CG321      CG321      CG321       HGA2
   46    13    14    15	 9 ;       HGA2      CG321      CG321      CG321
   46    13    14    48	 9 ;       HGA2      CG321      CG321       HGA2
   46    13    14    49	 9 ;       HGA2      CG321      CG321       HGA2
   47    13    14    15	 9 ;       HGA2      CG321      CG321      CG321
   47    13    14    48	 9 ;       HGA2      CG321      CG321       HGA2
   47    13    14    49	 9 ;       HGA2      CG321      CG321       HGA2
   13    14    15    16	 9 ;      CG321      CG321      CG321      CG321
   13    14    15    50	 9 ;      CG321      CG321      CG321       HGA2
   13    14    15    51	 9 ;      CG321      CG321      CG321       HGA2
   48    14    15    16	 9 ;       HGA2      CG321      CG321      CG321
   48    14    15    50	 9 ;       HGA2      CG321      CG321       HGA2
   48    14    15    51	 9 ;       HGA2      CG321      CG321       HGA2
   49    14    15    16	 9 ;       HGA2      CG321      CG321      CG321
   49    14    15    50	 9 ;       HGA2      CG321      CG321       HGA2
   49    14    15    51	 9 ;       HGA2      CG321      CG321       HGA2
   14    15    16    17	 9 ;      CG321      CG321      CG321      CG321
   14    15    16    52	 9 ;      CG321      CG321      CG321       HGA2
   14    15    16    53	 9 ;      CG321      CG321      CG321       HGA2
   50    15    16    17	 9 ;       HGA2      CG321      CG321      CG321
   50    15    16    52	 9 ;       HGA2      CG321      CG321       HGA2
   50    15    16    53	 9 ;       HGA2      CG321      CG321       HGA2
   51    15    16    17	 9 ;       HGA2      CG321      CG321      CG321
   51    15    16    52	 9 ;       HGA2      CG321      CG321       HGA2
   51    15    16    53	 9 ;       HGA2      CG321      CG321       HGA2
   15    16    17    18	 9 ;      CG321      CG321      CG321      CG321
   15    16    17    54	 9 ;      CG321      CG321      CG321       HGA2
   15    16    17    55	 9 ;      CG321      CG321      CG321       HGA2
   52    16    17    18	 9 ;       HGA2      CG321      CG321      CG321
   52    16    17    54	 9 ;       HGA2      CG321      CG321       HGA2
   52    16    17    55	 9 ;       HGA2      CG321      CG321       HGA2
   53    16    17    18	 9 ;       HGA2      CG321      CG321      CG321
   53    16    17    54	 9 ;       HGA2      CG321      CG321       HGA2
   53    16    17    55	 9 ;       HGA2      CG321      CG321       HGA2
   16    17    18    22	 9 ;      CG321      CG321      CG321      OG301
   16    17    18    56	 9 ;      CG321      CG321      CG321       HGA2
   16    17    18    57	 9 ;      CG321      CG321      CG321       HGA2
   54    17    18    22	 9 ;       HGA2      CG321      CG321      OG301
   54    17    18    56	 9 ;       HGA2      CG321      CG321       HGA2
   54    17    18    57	 9 ;       HGA2      CG321      CG321       HGA2
   55    17    18    22	 9 ;       HGA2      CG321      CG321      OG301
   55    17    18    56	 9 ;       HGA2      CG321      CG321       HGA2
   55    17    18    57	 9 ;       HGA2      CG321      CG321       HGA2
   17    18    22    19	 9 ;      CG321      CG321      OG301      CG301
   56    18    22    19	 9 ;       HGA2      CG321      OG301      CG301
   57    18    22    19	 9 ;       HGA2      CG321      OG301      CG301
   21    19    20    58	 9 ;      CG331      CG301      CG331       HGA3
   21    19    20    59	 9 ;      CG331      CG301      CG331       HGA3
   21    19    20    60	 9 ;      CG331      CG301      CG331       HGA3
  112    19    20    58	 9 ;      OG301      CG301      CG331       HGA3
  112    19    20    59	 9 ;      OG301      CG301      CG331       HGA3
  112    19    20    60	 9 ;      OG301      CG301      CG331       HGA3
   22    19    20    58	 9 ;      OG301      CG301      CG331       HGA3
   22    19    20    59	 9 ;      OG301      CG301      CG331       HGA3
   22    19    20    60	 9 ;      OG301      CG301      CG331       HGA3
   20    19    21    61	 9 ;      CG331      CG301      CG331       HGA3
   20    19    21    62	 9 ;      CG331      CG301      CG331       HGA3
   20    19    21    63	 9 ;      CG331      CG301      CG331       HGA3
  112    19    21    61	 9 ;      OG301      CG301      CG331       HGA3
  112    19    21    62	 9 ;      OG301      CG301      CG331       HGA3
  112    19    21    63	 9 ;      OG301      CG301      CG331       HGA3
   22    19    21    61	 9 ;      OG301      CG301      CG331       HGA3
   22    19    21    62	 9 ;      OG301      CG301      CG331       HGA3
   22    19    21    63	 9 ;      OG301      CG301      CG331       HGA3
   20    19   112    65	 9 ;      CG331      CG301      OG301      CG311
   21    19   112    65	 9 ;      CG331      CG301      OG301      CG311
   22    19   112    65	 9 ;      OG301      CG301      OG301      CG311
   20    19    22    18	 9 ;      CG331      CG301      OG301      CG321
   21    19    22    18	 9 ;      CG331      CG301      OG301      CG321
  112    19    22    18	 9 ;      OG301      CG301      OG301      CG321
  149    64    87    88	 9 ;       HGP1      NG2S1      CG2O1     CG2R61
  149    64    87   122	 9 ;       HGP1      NG2S1      CG2O1      OG2D1
   86    64    87    88	 9 ;      CG311      NG2S1      CG2O1     CG2R61
   86    64    87   122	 9 ;      CG311      NG2S1      CG2O1      OG2D1
   87    64    86    85	 9 ;      CG2O1      NG2S1      CG311      CG311
   87    64    86    94	 9 ;      CG2O1      NG2S1      CG311     CG2R61
   87    64    86   148	 9 ;      CG2O1      NG2S1      CG311       HGA1
  149    64    86    85	 9 ;       HGP1      NG2S1      CG311      CG311
  149    64    86    94	 9 ;       HGP1      NG2S1      CG311     CG2R61
  149    64    86   148	 9 ;       HGP1      NG2S1      CG311       HGA1
  107    65    66    67	 9 ;      CG301      CG311      CG321     CG3RC1
  107    65    66   127	 9 ;      CG301      CG311      CG321       HGA2
  107    65    66   128	 9 ;      CG301      CG311      CG321       HGA2
  126    65    66    67	 9 ;       HGA1      CG311      CG321     CG3RC1
  126    65    66   127	 9 ;       HGA1      CG311      CG321       HGA2
  126    65    66   128	 9 ;       HGA1      CG311      CG321       HGA2
  112    65    66    67	 9 ;      OG301      CG311      CG321     CG3RC1
  112    65    66   127	 9 ;      OG301      CG311      CG321       HGA2
  112    65    66   128	 9 ;      OG301      CG311      CG321       HGA2
   66    65   107    72	 9 ;      CG321      CG311      CG301      CG311
   66    65   107   106	 9 ;      CG321      CG311      CG301      CG2O5
   66    65   107   108	 9 ;      CG321      CG311      CG301      CG331
  126    65   107    72	 9 ;       HGA1      CG311      CG301      CG311
  126    65   107   106	 9 ;       HGA1      CG311      CG301      CG2O5
  126    65   107   108	 9 ;       HGA1      CG311      CG301      CG331
  112    65   107    72	 9 ;      OG301      CG311      CG301      CG311
  112    65   107   106	 9 ;      OG301      CG311      CG301      CG2O5
  112    65   107   108	 9 ;      OG301      CG311      CG301      CG331
   66    65   112    19	 9 ;      CG321      CG311      OG301      CG301
  107    65   112    19	 9 ;      CG301      CG311      OG301      CG301
  126    65   112    19	 9 ;       HGA1      CG311      OG301      CG301
   65    66    67    69	 9 ;      CG311      CG321     CG3RC1     CG3RC1
   65    66    67   113	 9 ;      CG311      CG321     CG3RC1     OG3C51
   65    66    67   129	 9 ;      CG311      CG321     CG3RC1       HGA1
  127    66    67    69	 9 ;       HGA2      CG321     CG3RC1     CG3RC1
  127    66    67   113	 9 ;       HGA2      CG321     CG3RC1     OG3C51
  127    66    67   129	 9 ;       HGA2      CG321     CG3RC1       HGA1
  128    66    67    69	 9 ;       HGA2      CG321     CG3RC1     CG3RC1
  128    66    67   113	 9 ;       HGA2      CG321     CG3RC1     OG3C51
  128    66    67   129	 9 ;       HGA2      CG321     CG3RC1       HGA1
   66    67    69    68	 9 ;      CG321     CG3RC1     CG3RC1     CG3C41
   66    67    69    72	 9 ;      CG321     CG3RC1     CG3RC1      CG311
   66    67    69   114	 9 ;      CG321     CG3RC1     CG3RC1      OG302
  113    67    69    68	 9 ;     OG3C51     CG3RC1     CG3RC1     CG3C41
  113    67    69    72	 9 ;     OG3C51     CG3RC1     CG3RC1      CG311
  113    67    69   114	 9 ;     OG3C51     CG3RC1     CG3RC1      OG302
  129    67    69    68	 9 ;       HGA1     CG3RC1     CG3RC1     CG3C41
  129    67    69    72	 9 ;       HGA1     CG3RC1     CG3RC1      CG311
  129    67    69   114	 9 ;       HGA1     CG3RC1     CG3RC1      OG302
   66    67   113    68	 9 ;      CG321     CG3RC1     OG3C51     CG3C41
   69    67   113    68	 9 ;     CG3RC1     CG3RC1     OG3C51     CG3C41
  129    67   113    68	 9 ;       HGA1     CG3RC1     OG3C51     CG3C41
  130    68    69    67	 9 ;       HGA2     CG3C41     CG3RC1     CG3RC1
  130    68    69    72	 9 ;       HGA2     CG3C41     CG3RC1      CG311
  130    68    69   114	 9 ;       HGA2     CG3C41     CG3RC1      OG302
  131    68    69    67	 9 ;       HGA2     CG3C41     CG3RC1     CG3RC1
  131    68    69    72	 9 ;       HGA2     CG3C41     CG3RC1      CG311
  131    68    69   114	 9 ;       HGA2     CG3C41     CG3RC1      OG302
  113    68    69    67	 9 ;     OG3C51     CG3C41     CG3RC1     CG3RC1
  113    68    69    72	 9 ;     OG3C51     CG3C41     CG3RC1      CG311
  113    68    69   114	 9 ;     OG3C51     CG3C41     CG3RC1      OG302
   69    68   113    67	 9 ;     CG3RC1     CG3C41     OG3C51     CG3RC1
  130    68   113    67	 9 ;       HGA2     CG3C41     OG3C51     CG3RC1
  131    68   113    67	 9 ;       HGA2     CG3C41     OG3C51     CG3RC1
   67    69    72    73	 9 ;     CG3RC1     CG3RC1      CG311      CG311
   67    69    72   107	 9 ;     CG3RC1     CG3RC1      CG311      CG301
   67    69    72   135	 9 ;     CG3RC1     CG3RC1      CG311       HGA1
   68    69    72    73	 9 ;     CG3C41     CG3RC1      CG311      CG311
   68    69    72   107	 9 ;     CG3C41     CG3RC1      CG311      CG301
   68    69    72   135	 9 ;     CG3C41     CG3RC1      CG311       HGA1
  114    69    72    73	 9 ;      OG302     CG3RC1      CG311      CG311
  114    69    72   107	 9 ;      OG302     CG3RC1      CG311      CG301
  114    69    72   135	 9 ;      OG302     CG3RC1      CG311       HGA1
   67    69   114    70	 9 ;     CG3RC1     CG3RC1      OG302      CG2O2
   68    69   114    70	 9 ;     CG3C41     CG3RC1      OG302      CG2O2
   72    69   114    70	 9 ;      CG311     CG3RC1      OG302      CG2O2
  115    70    71   132	 9 ;      OG2D1      CG2O2      CG331       HGA3
  115    70    71   133	 9 ;      OG2D1      CG2O2      CG331       HGA3
  115    70    71   134	 9 ;      OG2D1      CG2O2      CG331       HGA3
  114    70    71   132	 9 ;      OG302      CG2O2      CG331       HGA3
  114    70    71   133	 9 ;      OG302      CG2O2      CG331       HGA3
  114    70    71   134	 9 ;      OG302      CG2O2      CG331       HGA3
   71    70   114    69	 9 ;      CG331      CG2O2      OG302     CG3RC1
  115    70   114    69	 9 ;      OG2D1      CG2O2      OG302     CG3RC1
   69    72    73    81	 9 ;     CG3RC1      CG311      CG311      CG301
   69    72    73   116	 9 ;     CG3RC1      CG311      CG311      OG302
   69    72    73   136	 9 ;     CG3RC1      CG311      CG311       HGA1
  107    72    73    81	 9 ;      CG301      CG311      CG311      CG301
  107    72    73   116	 9 ;      CG301      CG311      CG311      OG302
  107    72    73   136	 9 ;      CG301      CG311      CG311       HGA1
  135    72    73    81	 9 ;       HGA1      CG311      CG311      CG301
  135    72    73   116	 9 ;       HGA1      CG311      CG311      OG302
  135    72    73   136	 9 ;       HGA1      CG311      CG311       HGA1
   69    72   107    65	 9 ;     CG3RC1      CG311      CG301      CG311
   69    72   107   106	 9 ;     CG3RC1      CG311      CG301      CG2O5
   69    72   107   108	 9 ;     CG3RC1      CG311      CG301      CG331
   73    72   107    65	 9 ;      CG311      CG311      CG301      CG311
   73    72   107   106	 9 ;      CG311      CG311      CG301      CG2O5
   73    72   107   108	 9 ;      CG311      CG311      CG301      CG331
  135    72   107    65	 9 ;       HGA1      CG311      CG301      CG311
  135    72   107   106	 9 ;       HGA1      CG311      CG301      CG2O5
  135    72   107   108	 9 ;       HGA1      CG311      CG301      CG331
   72    73    81    82	 9 ;      CG311      CG311      CG301      CG321
   72    73    81   109	 9 ;      CG311      CG311      CG301      CG301
   72    73    81   118	 9 ;      CG311      CG311      CG301      OG311
  116    73    81    82	 9 ;      OG302      CG311      CG301      CG321
  116    73    81   109	 9 ;      OG302      CG311      CG301      CG301
  116    73    81   118	 9 ;      OG302      CG311      CG301      OG311
  136    73    81    82	 9 ;       HGA1      CG311      CG301      CG321
  136    73    81   109	 9 ;       HGA1      CG311      CG301      CG301
  136    73    81   118	 9 ;       HGA1      CG311      CG301      OG311
   72    73   116    74	 9 ;      CG311      CG311      OG302      CG2O2
   81    73   116    74	 9 ;      CG301      CG311      OG302      CG2O2
  136    73   116    74	 9 ;       HGA1      CG311      OG302      CG2O2
  117    74    75    76	 9 ;      OG2D1      CG2O2     CG2R61     CG2R61
  117    74    75    80	 9 ;      OG2D1      CG2O2     CG2R61     CG2R61
  116    74    75    76	 9 ;      OG302      CG2O2     CG2R61     CG2R61
  116    74    75    80	 9 ;      OG302      CG2O2     CG2R61     CG2R61
   75    74   116    73	 9 ;     CG2R61      CG2O2      OG302      CG311
  117    74   116    73	 9 ;      OG2D1      CG2O2      OG302      CG311
   74    75    76    77	 9 ;      CG2O2     CG2R61     CG2R61     CG2R61
   74    75    76   137	 9 ;      CG2O2     CG2R61     CG2R61      HGR61
   80    75    76    77	 9 ;     CG2R61     CG2R61     CG2R61     CG2R61
   80    75    76   137	 9 ;     CG2R61     CG2R61     CG2R61      HGR61
   74    75    80    79	 9 ;      CG2O2     CG2R61     CG2R61     CG2R61
   74    75    80   141	 9 ;      CG2O2     CG2R61     CG2R61      HGR61
   76    75    80    79	 9 ;     CG2R61     CG2R61     CG2R61     CG2R61
   76    75    80   141	 9 ;     CG2R61     CG2R61     CG2R61      HGR61
   75    76    77    78	 9 ;     CG2R61     CG2R61     CG2R61     CG2R61
   75    76    77   138	 9 ;     CG2R61     CG2R61     CG2R61      HGR61
  137    76    77    78	 9 ;      HGR61     CG2R61     CG2R61     CG2R61
  137    76    77   138	 9 ;      HGR61     CG2R61     CG2R61      HGR61
   76    77    78    79	 9 ;     CG2R61     CG2R61     CG2R61     CG2R61
   76    77    78   139	 9 ;     CG2R61     CG2R61     CG2R61      HGR61
  138    77    78    79	 9 ;      HGR61     CG2R61     CG2R61     CG2R61
  138    77    78   139	 9 ;      HGR61     CG2R61     CG2R61      HGR61
   77    78    79    80	 9 ;     CG2R61     CG2R61     CG2R61     CG2R61
   77    78    79   140	 9 ;     CG2R61     CG2R61     CG2R61      HGR61
  139    78    79    80	 9 ;      HGR61     CG2R61     CG2R61     CG2R61
  139    78    79   140	 9 ;      HGR61     CG2R61     CG2R61      HGR61
   78    79    80    75	 9 ;     CG2R61     CG2R61     CG2R61     CG2R61
   78    79    80   141	 9 ;     CG2R61     CG2R61     CG2R61      HGR61
  140    79    80    75	 9 ;      HGR61     CG2R61     CG2R61     CG2R61
  140    79    80   141	 9 ;      HGR61     CG2R61     CG2R61      HGR61
   73    81    82    83	 9 ;      CG311      CG301      CG321      CG311
   73    81    82   143	 9 ;      CG311      CG301      CG321       HGA2
   73    81    82   144	 9 ;      CG311      CG301      CG321       HGA2
  109    81    82    83	 9 ;      CG301      CG301      CG321      CG311
  109    81    82   143	 9 ;      CG301      CG301      CG321       HGA2
  109    81    82   144	 9 ;      CG301      CG301      CG321       HGA2
  118    81    82    83	 9 ;      OG311      CG301      CG321      CG311
  118    81    82   143	 9 ;      OG311      CG301      CG321       HGA2
  118    81    82   144	 9 ;      OG311      CG301      CG321       HGA2
   73    81   109   102	 9 ;      CG311      CG301      CG301      CG2D1
   73    81   109   110	 9 ;      CG311      CG301      CG301      CG331
   73    81   109   111	 9 ;      CG311      CG301      CG301      CG331
   82    81   109   102	 9 ;      CG321      CG301      CG301      CG2D1
   82    81   109   110	 9 ;      CG321      CG301      CG301      CG331
   82    81   109   111	 9 ;      CG321      CG301      CG301      CG331
  118    81   109   102	 9 ;      OG311      CG301      CG301      CG2D1
  118    81   109   110	 9 ;      OG311      CG301      CG301      CG331
  118    81   109   111	 9 ;      OG311      CG301      CG301      CG331
   73    81   118   142	 9 ;      CG311      CG301      OG311       HGP1
   82    81   118   142	 9 ;      CG321      CG301      OG311       HGP1
  109    81   118   142	 9 ;      CG301      CG301      OG311       HGP1
   81    82    83   100	 9 ;      CG301      CG321      CG311      CG2D1
   81    82    83   119	 9 ;      CG301      CG321      CG311      OG302
   81    82    83   145	 9 ;      CG301      CG321      CG311       HGA1
  143    82    83   100	 9 ;       HGA2      CG321      CG311      CG2D1
  143    82    83   119	 9 ;       HGA2      CG321      CG311      OG302
  143    82    83   145	 9 ;       HGA2      CG321      CG311       HGA1
  144    82    83   100	 9 ;       HGA2      CG321      CG311      CG2D1
  144    82    83   119	 9 ;       HGA2      CG321      CG311      OG302
  144    82    83   145	 9 ;       HGA2      CG321      CG311       HGA1
   82    83   100   101	 9 ;      CG321      CG311      CG2D1      CG331
   82    83   100   102	 9 ;      CG321      CG311      CG2D1      CG2D1
  119    83   100   101	 9 ;      OG302      CG311      CG2D1      CG331
  119    83   100   102	 9 ;      OG302      CG311      CG2D1      CG2D1
  145    83   100   101	 9 ;       HGA1      CG311      CG2D1      CG331
  145    83   100   102	 9 ;       HGA1      CG311      CG2D1      CG2D1
   82    83   119    84	 9 ;      CG321      CG311      OG302      CG2O2
  100    83   119    84	 9 ;      CG2D1      CG311      OG302      CG2O2
  145    83   119    84	 9 ;       HGA1      CG311      OG302      CG2O2
  120    84    85    86	 9 ;      OG2D1      CG2O2      CG311      CG311
  120    84    85   121	 9 ;      OG2D1      CG2O2      CG311      OG311
  120    84    85   146	 9 ;      OG2D1      CG2O2      CG311       HGA1
  119    84    85    86	 9 ;      OG302      CG2O2      CG311      CG311
  119    84    85   121	 9 ;      OG302      CG2O2      CG311      OG311
  119    84    85   146	 9 ;      OG302      CG2O2      CG311       HGA1
   85    84   119    83	 9 ;      CG311      CG2O2      OG302      CG311
  120    84   119    83	 9 ;      OG2D1      CG2O2      OG302      CG311
   84    85    86    64	 9 ;      CG2O2      CG311      CG311      NG2S1
   84    85    86    94	 9 ;      CG2O2      CG311      CG311     CG2R61
   84    85    86   148	 9 ;      CG2O2      CG311      CG311       HGA1
  121    85    86    64	 9 ;      OG311      CG311      CG311      NG2S1
  121    85    86    94	 9 ;      OG311      CG311      CG311     CG2R61
  121    85    86   148	 9 ;      OG311      CG311      CG311       HGA1
  146    85    86    64	 9 ;       HGA1      CG311      CG311      NG2S1
  146    85    86    94	 9 ;       HGA1      CG311      CG311     CG2R61
  146    85    86   148	 9 ;       HGA1      CG311      CG311       HGA1
   84    85   121   147	 9 ;      CG2O2      CG311      OG311       HGP1
   86    85   121   147	 9 ;      CG311      CG311      OG311       HGP1
  146    85   121   147	 9 ;       HGA1      CG311      OG311       HGP1
   85    86    94    95	 9 ;      CG311      CG311     CG2R61     CG2R61
   85    86    94    99	 9 ;      CG311      CG311     CG2R61     CG2R61
   64    86    94    95	 9 ;      NG2S1      CG311     CG2R61     CG2R61
   64    86    94    99	 9 ;      NG2S1      CG311     CG2R61     CG2R61
  148    86    94    95	 9 ;       HGA1      CG311     CG2R61     CG2R61
  148    86    94    99	 9 ;       HGA1      CG311     CG2R61     CG2R61
   64    87    88    89	 9 ;      NG2S1      CG2O1     CG2R61     CG2R61
   64    87    88    93	 9 ;      NG2S1      CG2O1     CG2R61     CG2R61
  122    87    88    89	 9 ;      OG2D1      CG2O1     CG2R61     CG2R61
  122    87    88    93	 9 ;      OG2D1      CG2O1     CG2R61     CG2R61
   87    88    89    90	 9 ;      CG2O1     CG2R61     CG2R61     CG2R61
   87    88    89   150	 9 ;      CG2O1     CG2R61     CG2R61      HGR61
   93    88    89    90	 9 ;     CG2R61     CG2R61     CG2R61     CG2R61
   93    88    89   150	 9 ;     CG2R61     CG2R61     CG2R61      HGR61
   87    88    93    92	 9 ;      CG2O1     CG2R61     CG2R61     CG2R61
   87    88    93   154	 9 ;      CG2O1     CG2R61     CG2R61      HGR61
   89    88    93    92	 9 ;     CG2R61     CG2R61     CG2R61     CG2R61
   89    88    93   154	 9 ;     CG2R61     CG2R61     CG2R61      HGR61
   88    89    90    91	 9 ;     CG2R61     CG2R61     CG2R61     CG2R61
   88    89    90   151	 9 ;     CG2R61     CG2R61     CG2R61      HGR61
  150    89    90    91	 9 ;      HGR61     CG2R61     CG2R61     CG2R61
  150    89    90   151	 9 ;      HGR61     CG2R61     CG2R61      HGR61
   89    90    91    92	 9 ;     CG2R61     CG2R61     CG2R61     CG2R61
   89    90    91   152	 9 ;     CG2R61     CG2R61     CG2R61      HGR61
  151    90    91    92	 9 ;      HGR61     CG2R61     CG2R61     CG2R61
  151    90    91   152	 9 ;      HGR61     CG2R61     CG2R61      HGR61
   90    91    92    93	 9 ;     CG2R61     CG2R61     CG2R61     CG2R61
   90    91    92   153	 9 ;     CG2R61     CG2R61     CG2R61      HGR61
  152    91    92    93	 9 ;      HGR61     CG2R61     CG2R61     CG2R61
  152    91    92   153	 9 ;      HGR61     CG2R61     CG2R61      HGR61
   91    92    93    88	 9 ;     CG2R61     CG2R61     CG2R61     CG2R61
   91    92    93   154	 9 ;     CG2R61     CG2R61     CG2R61      HGR61
  153    92    93    88	 9 ;      HGR61     CG2R61     CG2R61     CG2R61
  153    92    93   154	 9 ;      HGR61     CG2R61     CG2R61      HGR61
   86    94    95    96	 9 ;      CG311     CG2R61     CG2R61     CG2R61
   86    94    95   155	 9 ;      CG311     CG2R61     CG2R61      HGR61
   99    94    95    96	 9 ;     CG2R61     CG2R61     CG2R61     CG2R61
   99    94    95   155	 9 ;     CG2R61     CG2R61     CG2R61      HGR61
   86    94    99    98	 9 ;      CG311     CG2R61     CG2R61     CG2R61
   86    94    99   159	 9 ;      CG311     CG2R61     CG2R61      HGR61
   95    94    99    98	 9 ;     CG2R61     CG2R61     CG2R61     CG2R61
   95    94    99   159	 9 ;     CG2R61     CG2R61     CG2R61      HGR61
   94    95    96    97	 9 ;     CG2R61     CG2R61     CG2R61     CG2R61
   94    95    96   156	 9 ;     CG2R61     CG2R61     CG2R61      HGR61
  155    95    96    97	 9 ;      HGR61     CG2R61     CG2R61     CG2R61
  155    95    96   156	 9 ;      HGR61     CG2R61     CG2R61      HGR61
   95    96    97    98	 9 ;     CG2R61     CG2R61     CG2R61     CG2R61
   95    96    97   157	 9 ;     CG2R61     CG2R61     CG2R61      HGR61
  156    96    97    98	 9 ;      HGR61     CG2R61     CG2R61     CG2R61
  156    96    97   157	 9 ;      HGR61     CG2R61     CG2R61      HGR61
   96    97    98    99	 9 ;     CG2R61     CG2R61     CG2R61     CG2R61
   96    97    98   158	 9 ;     CG2R61     CG2R61     CG2R61      HGR61
  157    97    98    99	 9 ;      HGR61     CG2R61     CG2R61     CG2R61
  157    97    98   158	 9 ;      HGR61     CG2R61     CG2R61      HGR61
   97    98    99    94	 9 ;     CG2R61     CG2R61     CG2R61     CG2R61
   97    98    99   159	 9 ;     CG2R61     CG2R61     CG2R61      HGR61
  158    98    99    94	 9 ;      HGR61     CG2R61     CG2R61     CG2R61
  158    98    99   159	 9 ;      HGR61     CG2R61     CG2R61      HGR61
   83   100   101   160	 9 ;      CG311      CG2D1      CG331       HGA3
   83   100   101   161	 9 ;      CG311      CG2D1      CG331       HGA3
   83   100   101   162	 9 ;      CG311      CG2D1      CG331       HGA3
  102   100   101   160	 9 ;      CG2D1      CG2D1      CG331       HGA3
  102   100   101   161	 9 ;      CG2D1      CG2D1      CG331       HGA3
  102   100   101   162	 9 ;      CG2D1      CG2D1      CG331       HGA3
   83   100   102   103	 9 ;      CG311      CG2D1      CG2D1      CG311
   83   100   102   109	 9 ;      CG311      CG2D1      CG2D1      CG301
  101   100   102   103	 9 ;      CG331      CG2D1      CG2D1      CG311
  101   100   102   109	 9 ;      CG331      CG2D1      CG2D1      CG301
  100   102   103   106	 9 ;      CG2D1      CG2D1      CG311      CG2O5
  100   102   103   123	 9 ;      CG2D1      CG2D1      CG311      OG302
  100   102   103   163	 9 ;      CG2D1      CG2D1      CG311       HGA1
  109   102   103   106	 9 ;      CG301      CG2D1      CG311      CG2O5
  109   102   103   123	 9 ;      CG301      CG2D1      CG311      OG302
  109   102   103   163	 9 ;      CG301      CG2D1      CG311       HGA1
  100   102   109    81	 9 ;      CG2D1      CG2D1      CG301      CG301
  100   102   109   110	 9 ;      CG2D1      CG2D1      CG301      CG331
  100   102   109   111	 9 ;      CG2D1      CG2D1      CG301      CG331
  103   102   109    81	 9 ;      CG311      CG2D1      CG301      CG301
  103   102   109   110	 9 ;      CG311      CG2D1      CG301      CG331
  103   102   109   111	 9 ;      CG311      CG2D1      CG301      CG331
  102   103   106   107	 9 ;      CG2D1      CG311      CG2O5      CG301
  102   103   106   125	 9 ;      CG2D1      CG311      CG2O5      OG2D3
  123   103   106   107	 9 ;      OG302      CG311      CG2O5      CG301
  123   103   106   125	 9 ;      OG302      CG311      CG2O5      OG2D3
  163   103   106   107	 9 ;       HGA1      CG311      CG2O5      CG301
  163   103   106   125	 9 ;       HGA1      CG311      CG2O5      OG2D3
  102   103   123   104	 9 ;      CG2D1      CG311      OG302      CG2O2
  106   103   123   104	 9 ;      CG2O5      CG311      OG302      CG2O2
  163   103   123   104	 9 ;       HGA1      CG311      OG302      CG2O2
  124   104   105   164	 9 ;      OG2D1      CG2O2      CG331       HGA3
  124   104   105   165	 9 ;      OG2D1      CG2O2      CG331       HGA3
  124   104   105   166	 9 ;      OG2D1      CG2O2      CG331       HGA3
  123   104   105   164	 9 ;      OG302      CG2O2      CG331       HGA3
  123   104   105   165	 9 ;      OG302      CG2O2      CG331       HGA3
  123   104   105   166	 9 ;      OG302      CG2O2      CG331       HGA3
  105   104   123   103	 9 ;      CG331      CG2O2      OG302      CG311
  124   104   123   103	 9 ;      OG2D1      CG2O2      OG302      CG311
  103   106   107    65	 9 ;      CG311      CG2O5      CG301      CG311
  103   106   107    72	 9 ;      CG311      CG2O5      CG301      CG311
  103   106   107   108	 9 ;      CG311      CG2O5      CG301      CG331
  125   106   107    65	 9 ;      OG2D3      CG2O5      CG301      CG311
  125   106   107    72	 9 ;      OG2D3      CG2O5      CG301      CG311
  125   106   107   108	 9 ;      OG2D3      CG2O5      CG301      CG331
   65   107   108   167	 9 ;      CG311      CG301      CG331       HGA3
   65   107   108   168	 9 ;      CG311      CG301      CG331       HGA3
   65   107   108   169	 9 ;      CG311      CG301      CG331       HGA3
   72   107   108   167	 9 ;      CG311      CG301      CG331       HGA3
   72   107   108   168	 9 ;      CG311      CG301      CG331       HGA3
   72   107   108   169	 9 ;      CG311      CG301      CG331       HGA3
  106   107   108   167	 9 ;      CG2O5      CG301      CG331       HGA3
  106   107   108   168	 9 ;      CG2O5      CG301      CG331       HGA3
  106   107   108   169	 9 ;      CG2O5      CG301      CG331       HGA3
   81   109   110   170	 9 ;      CG301      CG301      CG331       HGA3
   81   109   110   171	 9 ;      CG301      CG301      CG331       HGA3
   81   109   110   172	 9 ;      CG301      CG301      CG331       HGA3
  102   109   110   170	 9 ;      CG2D1      CG301      CG331       HGA3
  102   109   110   171	 9 ;      CG2D1      CG301      CG331       HGA3
  102   109   110   172	 9 ;      CG2D1      CG301      CG331       HGA3
  111   109   110   170	 9 ;      CG331      CG301      CG331       HGA3
  111   109   110   171	 9 ;      CG331      CG301      CG331       HGA3
  111   109   110   172	 9 ;      CG331      CG301      CG331       HGA3
   81   109   111   173	 9 ;      CG301      CG301      CG331       HGA3
   81   109   111   174	 9 ;      CG301      CG301      CG331       HGA3
   81   109   111   175	 9 ;      CG301      CG301      CG331       HGA3
  102   109   111   173	 9 ;      CG2D1      CG301      CG331       HGA3
  102   109   111   174	 9 ;      CG2D1      CG301      CG331       HGA3
  102   109   111   175	 9 ;      CG2D1      CG301      CG331       HGA3
  110   109   111   173	 9 ;      CG331      CG301      CG331       HGA3
  110   109   111   174	 9 ;      CG331      CG301      CG331       HGA3
  110   109   111   175	 9 ;      CG331      CG301      CG331       HGA3

[ dihedrals ]
;	ai	  aj	ak	  al funct			  c0			c1			  c2			c3
   70    71   115   114	 2
   74    75   117   116	 2
   84    85   120   119	 2
   87    88    64   122	 2
  104   105   124   123	 2
  106   107   103   125	 2

