; Created by cgenff_charmm2gmx.py

[ moleculetype ]
; Name			   nrexcl
PTX				 3

[ atoms ]
;	 nr		  type	resnr residue  atom   cgnr	   charge		mass  typeB    chargeB		massB
; residue	 1 PTX rtp PTX q	qsum
     1      OG2D1      1    PTX     O1      1     -0.628     15.999   ;
     2      CG2O2      1    PTX     C1      2      0.853     12.011   ;
     3      CG311      1    PTX     C2      3      0.124     12.011   ;
     4      OG311      1    PTX     O2      4     -0.662     15.999   ;
     5      CG311      1    PTX     C3      5      0.118     12.011   ;
     6     CG2R61      1    PTX     C4      6     -0.040     12.011   ;
     7     CG2R61      1    PTX     C5      7     -0.106     12.011   ;
     8     CG2R61      1    PTX     C6      8     -0.115     12.011   ;
     9     CG2R61      1    PTX     C7      9     -0.115     12.011   ;
    10     CG2R61      1    PTX     C8     10     -0.115     12.011   ;
    11     CG2R61      1    PTX     C9     11     -0.106     12.011   ;
    12      NG2S1      1    PTX      N     12     -0.405     14.007   ;
    13      CG2O1      1    PTX    C10     13      0.341     12.011   ;
    14     CG2R61      1    PTX    C11     14     -0.137     12.011   ;
    15     CG2R61      1    PTX    C12     15     -0.024     12.011   ;
    16     CG2R61      1    PTX    C13     16     -0.109     12.011   ;
    17     CG2R61      1    PTX    C14     17     -0.115     12.011   ;
    18     CG2R61      1    PTX    C15     18     -0.109     12.011   ;
    19     CG2R61      1    PTX    C16     19     -0.024     12.011   ;
    20      OG2D1      1    PTX     O3     20     -0.458     15.999   ;
    21      OG302      1    PTX     O4     21     -0.419     15.999   ;
    22      CG311      1    PTX    C17     22      0.272     12.011   ;
    23      CG2D1      1    PTX    C18     23     -0.153     12.011   ;
    24      CG331      1    PTX    C19     24     -0.265     12.011   ;
    25      CG2D1      1    PTX    C20     25     -0.113     12.011   ;
    26      CG311      1    PTX    C21     26      0.432     12.011   ;
    27      OG302      1    PTX     O5     27     -0.427     15.999   ;
    28      CG2O2      1    PTX    C22     28      0.834     12.011   ;
    29      CG331      1    PTX    C23     29     -0.311     12.011   ;
    30      OG2D1      1    PTX     O6     30     -0.625     15.999   ;
    31      CG2O5      1    PTX    C24     31      0.297     12.011   ;
    32      OG2D3      1    PTX     O7     32     -0.515     15.999   ;
    33      CG301      1    PTX    C25     33      0.016     12.011   ;
    34      CG331      1    PTX    C26     34     -0.269     12.011   ;
    35      CG331      1    PTX    C27     35     -0.269     12.011   ;
    36      CG301      1    PTX    C28     36      0.186     12.011   ;
    37      CG311      1    PTX    C29     37      0.133     12.011   ;
    38      OG302      1    PTX     O8     38     -0.310     15.999   ;
    39      CG2O2      1    PTX    C30     39      0.459     12.011   ;
    40     CG2R61      1    PTX    C31     40      0.086     12.011   ;
    41     CG2R61      1    PTX    C32     41     -0.110     12.011   ;
    42     CG2R61      1    PTX    C33     42     -0.114     12.011   ;
    43     CG2R61      1    PTX    C34     43     -0.115     12.011   ;
    44     CG2R61      1    PTX    C35     44     -0.114     12.011   ;
    45     CG2R61      1    PTX    C36     45     -0.110     12.011   ;
    46      OG2D1      1    PTX     O9     46     -0.496     15.999   ;
    47      CG311      1    PTX    C37     47     -0.074     12.011   ;
    48      CG301      1    PTX    C38     48      0.081     12.011   ;
    49      CG331      1    PTX    C39     49     -0.263     12.011   ;
    50      CG311      1    PTX    C40     50      0.166     12.011   ;
    51      OG311      1    PTX    O10     51     -0.642     15.999   ;
    52      CG321      1    PTX    C41     52     -0.201     12.011   ;
    53     CG3RC1      1    PTX    C42     53      0.015     12.011   ;
    54     CG3RC1      1    PTX    C43     54      0.366     12.011   ;
    55      OG302      1    PTX    O11     55     -0.422     15.999   ;
    56      CG2O2      1    PTX    C44     56      0.885     12.011   ;
    57      CG331      1    PTX    C45     57     -0.313     12.011   ;
    58      OG2D1      1    PTX    O12     58     -0.617     15.999   ;
    59     CG3C41      1    PTX    C46     59     -0.106     12.011   ;
    60     OG3C51      1    PTX    O13     60     -0.343     15.999   ;
    61      OG311      1    PTX    O14     61     -0.460     15.999   ;
    62      CG321      1    PTX    C47     62     -0.212     12.011   ;
    63       HGA1      1    PTX     H1     63      0.090      1.008   ;
    64       HGP1      1    PTX     H2     64      0.421      1.008   ;
    65       HGA1      1    PTX     H3     65      0.090      1.008   ;
    66      HGR61      1    PTX     H4     66      0.115      1.008   ;
    67      HGR61      1    PTX     H5     67      0.115      1.008   ;
    68      HGR61      1    PTX     H6     68      0.115      1.008   ;
    69      HGR61      1    PTX     H7     69      0.115      1.008   ;
    70      HGR61      1    PTX     H8     70      0.115      1.008   ;
    71       HGP1      1    PTX     H9     71      0.274      1.008   ;
    72      HGR61      1    PTX    H10     72      0.115      1.008   ;
    73      HGR61      1    PTX    H11     73      0.115      1.008   ;
    74      HGR61      1    PTX    H12     74      0.115      1.008   ;
    75      HGR61      1    PTX    H13     75      0.115      1.008   ;
    76      HGR61      1    PTX    H14     76      0.115      1.008   ;
    77       HGA1      1    PTX    H15     77      0.090      1.008   ;
    78       HGA3      1    PTX    H16     78      0.090      1.008   ;
    79       HGA3      1    PTX    H17     79      0.090      1.008   ;
    80       HGA3      1    PTX    H18     80      0.090      1.008   ;
    81       HGA1      1    PTX    H19     81      0.090      1.008   ;
    82       HGA3      1    PTX    H20     82      0.090      1.008   ;
    83       HGA3      1    PTX    H21     83      0.090      1.008   ;
    84       HGA3      1    PTX    H22     84      0.090      1.008   ;
    85       HGA3      1    PTX    H23     85      0.090      1.008   ;
    86       HGA3      1    PTX    H24     86      0.090      1.008   ;
    87       HGA3      1    PTX    H25     87      0.090      1.008   ;
    88       HGA3      1    PTX    H26     88      0.090      1.008   ;
    89       HGA3      1    PTX    H27     89      0.090      1.008   ;
    90       HGA3      1    PTX    H28     90      0.090      1.008   ;
    91       HGA1      1    PTX    H29     91      0.090      1.008   ;
    92      HGR61      1    PTX    H30     92      0.115      1.008   ;
    93      HGR61      1    PTX    H31     93      0.115      1.008   ;
    94      HGR61      1    PTX    H32     94      0.115      1.008   ;
    95      HGR61      1    PTX    H33     95      0.115      1.008   ;
    96      HGR61      1    PTX    H34     96      0.115      1.008   ;
    97       HGA1      1    PTX    H35     97      0.090      1.008   ;
    98       HGA3      1    PTX    H36     98      0.090      1.008   ;
    99       HGA3      1    PTX    H37     99      0.090      1.008   ;
   100       HGA3      1    PTX    H38    100      0.090      1.008   ;
   101       HGA1      1    PTX    H39    101      0.090      1.008   ;
   102       HGP1      1    PTX    H40    102      0.400      1.008   ;
   103       HGA2      1    PTX    H41    103      0.090      1.008   ;
   104       HGA2      1    PTX    H42    104      0.090      1.008   ;
   105       HGA1      1    PTX    H43    105      0.090      1.008   ;
   106       HGA3      1    PTX    H44    106      0.090      1.008   ;
   107       HGA3      1    PTX    H45    107      0.090      1.008   ;
   108       HGA3      1    PTX    H46    108      0.090      1.008   ;
   109       HGA2      1    PTX    H47    109      0.090      1.008   ;
   110       HGA2      1    PTX    H48    110      0.090      1.008   ;
   111       HGP1      1    PTX    H49    111      0.292      1.008   ;
   112       HGA2      1    PTX    H50    112      0.090      1.008   ;
   113       HGA2      1    PTX    H51    113      0.090      1.008   ;

[ bonds ]
;	ai	  aj funct			  c0			c1			  c2			c3
    1     2	 1
    2     3	 1
    2    21	 1
    3     4	 1
    3     5	 1
    3    63	 1
    4    64	 1
    5    65	 1
    5    12	 1
    5     6	 1
    6    11	 1
    6     7	 1
    7    66	 1
    7     8	 1
    8     9	 1
    8    67	 1
    9    10	 1
    9    68	 1
   10    11	 1
   10    69	 1
   11    70	 1
   12    13	 1
   12    71	 1
   13    20	 1
   13    14	 1
   14    19	 1
   14    15	 1
   15    72	 1
   15    16	 1
   16    17	 1
   16    73	 1
   17    18	 1
   17    74	 1
   18    19	 1
   18    75	 1
   19    76	 1
   21    22	 1
   22    77	 1
   22    62	 1
   22    23	 1
   23    25	 1
   23    24	 1
   24    79	 1
   24    78	 1
   24    80	 1
   25    33	 1
   25    26	 1
   26    81	 1
   26    27	 1
   26    31	 1
   27    28	 1
   28    29	 1
   28    30	 1
   29    84	 1
   29    82	 1
   29    83	 1
   31    48	 1
   31    32	 1
   33    34	 1
   33    35	 1
   33    36	 1
   34    85	 1
   34    86	 1
   34    87	 1
   35    89	 1
   35    90	 1
   35    88	 1
   36    61	 1
   36    37	 1
   36    62	 1
   37    91	 1
   37    38	 1
   37    47	 1
   38    39	 1
   39    46	 1
   39    40	 1
   40    41	 1
   40    45	 1
   41    42	 1
   41    92	 1
   42    43	 1
   42    93	 1
   43    44	 1
   43    94	 1
   44    45	 1
   44    95	 1
   45    96	 1
   47    97	 1
   47    54	 1
   47    48	 1
   48    49	 1
   48    50	 1
   49    98	 1
   49    99	 1
   49   100	 1
   50    51	 1
   50    52	 1
   50   101	 1
   51   102	 1
   52    53	 1
   52   103	 1
   52   104	 1
   53   105	 1
   53    60	 1
   53    54	 1
   54    59	 1
   54    55	 1
   55    56	 1
   56    57	 1
   56    58	 1
   57   106	 1
   57   107	 1
   57   108	 1
   59    60	 1
   59   109	 1
   59   110	 1
   61   111	 1
   62   113	 1
   62   112	 1

[ pairs ]
;	ai	  aj funct			  c0			c1			  c2			c3
    1     4	 1
    1     5	 1
    1    22	 1
    1    63	 1
    2    65	 1
    2     6	 1
    2    12	 1
    2    77	 1
    2    23	 1
    2    62	 1
    2    64	 1
    3    11	 1
    3     7	 1
    3    13	 1
    3    22	 1
    3    71	 1
    4    65	 1
    4    12	 1
    4    21	 1
    4     6	 1
    5    66	 1
    5    70	 1
    5     8	 1
    5    10	 1
    5    14	 1
    5    20	 1
    5    21	 1
    5    64	 1
    6    67	 1
    6    69	 1
    6    71	 1
    6     9	 1
    6    13	 1
    6    63	 1
    7    65	 1
    7    68	 1
    7    70	 1
    7    10	 1
    7    12	 1
    8    69	 1
    8    11	 1
    9    66	 1
    9    70	 1
   10    67	 1
   11    65	 1
   11    66	 1
   11    68	 1
   11    12	 1
   12    15	 1
   12    19	 1
   12    63	 1
   13    65	 1
   13    72	 1
   13    76	 1
   13    16	 1
   13    18	 1
   14    17	 1
   14    73	 1
   14    75	 1
   14    71	 1
   15    18	 1
   15    76	 1
   15    20	 1
   15    74	 1
   16    19	 1
   16    75	 1
   17    76	 1
   17    72	 1
   18    73	 1
   19    20	 1
   19    74	 1
   19    72	 1
   20    71	 1
   21    36	 1
   21   112	 1
   21   113	 1
   21    24	 1
   21    25	 1
   21    63	 1
   22    33	 1
   22    37	 1
   22    78	 1
   22    79	 1
   22    80	 1
   22    26	 1
   22    61	 1
   23    35	 1
   23    36	 1
   23    34	 1
   23    81	 1
   23   112	 1
   23   113	 1
   23    27	 1
   23    31	 1
   24    33	 1
   24    77	 1
   24    62	 1
   24    26	 1
   25    37	 1
   25    48	 1
   25    88	 1
   25    77	 1
   25    78	 1
   25    79	 1
   25    80	 1
   25    86	 1
   25    87	 1
   25    90	 1
   25    89	 1
   25    85	 1
   25    28	 1
   25    61	 1
   25    62	 1
   25    32	 1
   26    34	 1
   26    35	 1
   26    36	 1
   26    47	 1
   26    49	 1
   26    50	 1
   26    29	 1
   26    30	 1
   27    33	 1
   27    48	 1
   27    82	 1
   27    83	 1
   27    84	 1
   27    32	 1
   28    81	 1
   28    31	 1
   30    83	 1
   30    84	 1
   30    82	 1
   31    33	 1
   31    97	 1
   31    99	 1
   31   100	 1
   31    37	 1
   31    98	 1
   31    51	 1
   31    52	 1
   31    54	 1
   31   101	 1
   32    49	 1
   32    47	 1
   32    81	 1
   32    50	 1
   33   113	 1
   33    38	 1
   33    47	 1
   33   111	 1
   33   112	 1
   33    81	 1
   33    91	 1
   34    37	 1
   34    90	 1
   34    88	 1
   34    89	 1
   34    61	 1
   34    62	 1
   35    37	 1
   35    85	 1
   35    86	 1
   35    87	 1
   35    61	 1
   35    62	 1
   36    97	 1
   36    87	 1
   36    39	 1
   36    88	 1
   36    77	 1
   36    90	 1
   36    85	 1
   36    86	 1
   36    89	 1
   36    48	 1
   36    54	 1
   37    49	 1
   37    40	 1
   37    46	 1
   37   111	 1
   37   112	 1
   37   113	 1
   37    50	 1
   37    53	 1
   37    55	 1
   37    59	 1
   38    97	 1
   38    41	 1
   38    45	 1
   38    48	 1
   38    54	 1
   38    61	 1
   38    62	 1
   39    42	 1
   39    44	 1
   39    47	 1
   39    91	 1
   39    92	 1
   39    96	 1
   40    93	 1
   40    43	 1
   40    95	 1
   41    44	 1
   41    96	 1
   41    46	 1
   41    94	 1
   42    45	 1
   42    95	 1
   43    96	 1
   43    92	 1
   44    93	 1
   45    92	 1
   45    46	 1
   45    94	 1
   47    98	 1
   47    99	 1
   47   100	 1
   47   101	 1
   47   105	 1
   47   109	 1
   47   110	 1
   47    51	 1
   47    52	 1
   47    56	 1
   47    60	 1
   47    61	 1
   47    62	 1
   48   103	 1
   48   104	 1
   48    81	 1
   48    59	 1
   48    53	 1
   48    55	 1
   48    91	 1
   48   102	 1
   49    97	 1
   49   101	 1
   49    51	 1
   49    52	 1
   49    54	 1
   50    97	 1
   50    98	 1
   50    99	 1
   50   100	 1
   50   105	 1
   50    54	 1
   50    60	 1
   51   103	 1
   51   104	 1
   51    53	 1
   52   102	 1
   52    55	 1
   52    59	 1
   53    97	 1
   53   101	 1
   53   109	 1
   53   110	 1
   53    56	 1
   54   103	 1
   54   104	 1
   54    57	 1
   54    58	 1
   54    91	 1
   55    97	 1
   55   105	 1
   55   106	 1
   55   107	 1
   55   108	 1
   55   109	 1
   55   110	 1
   55    60	 1
   56    59	 1
   58   106	 1
   58   107	 1
   58   108	 1
   59    97	 1
   59   105	 1
   60   103	 1
   60   104	 1
   61   112	 1
   61   113	 1
   61    91	 1
   62   111	 1
   62    91	 1
   63    65	 1
   63    64	 1
   65    71	 1
   66    67	 1
   67    68	 1
   68    69	 1
   69    70	 1
   72    73	 1
   73    74	 1
   74    75	 1
   75    76	 1
   77   112	 1
   77   113	 1
   91    97	 1
   92    93	 1
   93    94	 1
   94    95	 1
   95    96	 1
  101   102	 1
  101   103	 1
  101   104	 1
  103   105	 1
  104   105	 1

[ angles ]
;	ai	  aj	ak funct			c0			  c1			c2			  c3
    1     2     3	5
    1     2    21	5
    3     2    21	5
    2     3     4	5
    2     3     5	5
    2     3    63	5
    4     3     5	5
    4     3    63	5
    5     3    63	5
    3     4    64	5
   65     5     3	5
   65     5    12	5
   65     5     6	5
    3     5    12	5
    3     5     6	5
   12     5     6	5
   11     6     5	5
   11     6     7	5
    5     6     7	5
   66     7     6	5
   66     7     8	5
    6     7     8	5
    9     8    67	5
    9     8     7	5
   67     8     7	5
   10     9    68	5
   10     9     8	5
   68     9     8	5
    9    10    11	5
    9    10    69	5
   11    10    69	5
   10    11     6	5
   10    11    70	5
    6    11    70	5
   13    12     5	5
   13    12    71	5
    5    12    71	5
   20    13    12	5
   20    13    14	5
   12    13    14	5
   19    14    13	5
   19    14    15	5
   13    14    15	5
   72    15    14	5
   72    15    16	5
   14    15    16	5
   17    16    73	5
   17    16    15	5
   73    16    15	5
   18    17    74	5
   18    17    16	5
   74    17    16	5
   17    18    19	5
   17    18    75	5
   19    18    75	5
   18    19    76	5
   18    19    14	5
   76    19    14	5
    2    21    22	5
   77    22    21	5
   77    22    62	5
   77    22    23	5
   21    22    62	5
   21    22    23	5
   62    22    23	5
   25    23    22	5
   25    23    24	5
   22    23    24	5
   79    24    78	5
   79    24    23	5
   79    24    80	5
   78    24    23	5
   78    24    80	5
   23    24    80	5
   33    25    26	5
   33    25    23	5
   26    25    23	5
   25    26    81	5
   25    26    27	5
   25    26    31	5
   81    26    27	5
   81    26    31	5
   27    26    31	5
   26    27    28	5
   27    28    29	5
   27    28    30	5
   29    28    30	5
   84    29    82	5
   84    29    83	5
   84    29    28	5
   82    29    83	5
   82    29    28	5
   83    29    28	5
   26    31    48	5
   26    31    32	5
   48    31    32	5
   25    33    34	5
   25    33    35	5
   25    33    36	5
   34    33    35	5
   34    33    36	5
   35    33    36	5
   33    34    85	5
   33    34    86	5
   33    34    87	5
   85    34    86	5
   85    34    87	5
   86    34    87	5
   33    35    89	5
   33    35    90	5
   33    35    88	5
   89    35    90	5
   89    35    88	5
   90    35    88	5
   33    36    61	5
   33    36    37	5
   33    36    62	5
   61    36    37	5
   61    36    62	5
   37    36    62	5
   91    37    36	5
   91    37    38	5
   91    37    47	5
   36    37    38	5
   36    37    47	5
   38    37    47	5
   37    38    39	5
   46    39    38	5
   46    39    40	5
   38    39    40	5
   41    40    45	5
   41    40    39	5
   45    40    39	5
   42    41    92	5
   42    41    40	5
   92    41    40	5
   41    42    43	5
   41    42    93	5
   43    42    93	5
   42    43    44	5
   42    43    94	5
   44    43    94	5
   43    44    45	5
   43    44    95	5
   45    44    95	5
   96    45    44	5
   96    45    40	5
   44    45    40	5
   97    47    37	5
   97    47    54	5
   97    47    48	5
   37    47    54	5
   37    47    48	5
   54    47    48	5
   49    48    50	5
   49    48    47	5
   49    48    31	5
   50    48    47	5
   50    48    31	5
   47    48    31	5
   98    49    99	5
   98    49   100	5
   98    49    48	5
   99    49   100	5
   99    49    48	5
  100    49    48	5
   51    50    52	5
   51    50   101	5
   51    50    48	5
   52    50   101	5
   52    50    48	5
  101    50    48	5
   50    51   102	5
   50    52    53	5
   50    52   103	5
   50    52   104	5
   53    52   103	5
   53    52   104	5
  103    52   104	5
  105    53    60	5
  105    53    52	5
  105    53    54	5
   60    53    52	5
   60    53    54	5
   52    53    54	5
   59    54    53	5
   59    54    55	5
   59    54    47	5
   53    54    55	5
   53    54    47	5
   55    54    47	5
   54    55    56	5
   57    56    58	5
   57    56    55	5
   58    56    55	5
  106    57   107	5
  106    57   108	5
  106    57    56	5
  107    57   108	5
  107    57    56	5
  108    57    56	5
   60    59   109	5
   60    59    54	5
   60    59   110	5
  109    59    54	5
  109    59   110	5
   54    59   110	5
   59    60    53	5
   36    61   111	5
  113    62    36	5
  113    62    22	5
  113    62   112	5
   36    62    22	5
   36    62   112	5
   22    62   112	5

[ dihedrals ]
;	ai	  aj	ak	  al funct			  c0			c1			  c2			c3			  c4			c5
    1     2     3     4	 9
    1     2     3     5	 9
    1     2     3    63	 9
   21     2     3     4	 9
   21     2     3     5	 9
   21     2     3    63	 9
    1     2    21    22	 9
    3     2    21    22	 9
    2     3     4    64	 9
    5     3     4    64	 9
   63     3     4    64	 9
    2     3     5    65	 9
    2     3     5    12	 9
    2     3     5     6	 9
    4     3     5    65	 9
    4     3     5    12	 9
    4     3     5     6	 9
   63     3     5    65	 9
   63     3     5    12	 9
   63     3     5     6	 9
   65     5    12    13	 9
   65     5    12    71	 9
    3     5    12    13	 9
    3     5    12    71	 9
    6     5    12    13	 9
    6     5    12    71	 9
   65     5     6    11	 9
   65     5     6     7	 9
    3     5     6    11	 9
    3     5     6     7	 9
   12     5     6    11	 9
   12     5     6     7	 9
    5     6    11    10	 9
    5     6    11    70	 9
    7     6    11    10	 9
    7     6    11    70	 9
   11     6     7    66	 9
   11     6     7     8	 9
    5     6     7    66	 9
    5     6     7     8	 9
   66     7     8     9	 9
   66     7     8    67	 9
    6     7     8     9	 9
    6     7     8    67	 9
   67     8     9    10	 9
   67     8     9    68	 9
    7     8     9    10	 9
    7     8     9    68	 9
   68     9    10    11	 9
   68     9    10    69	 9
    8     9    10    11	 9
    8     9    10    69	 9
    9    10    11     6	 9
    9    10    11    70	 9
   69    10    11     6	 9
   69    10    11    70	 9
    5    12    13    20	 9
    5    12    13    14	 9
   71    12    13    20	 9
   71    12    13    14	 9
   20    13    14    19	 9
   20    13    14    15	 9
   12    13    14    19	 9
   12    13    14    15	 9
   13    14    19    18	 9
   13    14    19    76	 9
   15    14    19    18	 9
   15    14    19    76	 9
   19    14    15    72	 9
   19    14    15    16	 9
   13    14    15    72	 9
   13    14    15    16	 9
   72    15    16    17	 9
   72    15    16    73	 9
   14    15    16    17	 9
   14    15    16    73	 9
   73    16    17    18	 9
   73    16    17    74	 9
   15    16    17    18	 9
   15    16    17    74	 9
   74    17    18    19	 9
   74    17    18    75	 9
   16    17    18    19	 9
   16    17    18    75	 9
   17    18    19    76	 9
   17    18    19    14	 9
   75    18    19    76	 9
   75    18    19    14	 9
    2    21    22    77	 9
    2    21    22    62	 9
    2    21    22    23	 9
   77    22    62   113	 9
   77    22    62    36	 9
   77    22    62   112	 9
   21    22    62   113	 9
   21    22    62    36	 9
   21    22    62   112	 9
   23    22    62   113	 9
   23    22    62    36	 9
   23    22    62   112	 9
   77    22    23    25	 9
   77    22    23    24	 9
   21    22    23    25	 9
   21    22    23    24	 9
   62    22    23    25	 9
   62    22    23    24	 9
   22    23    25    33	 9
   22    23    25    26	 9
   24    23    25    33	 9
   24    23    25    26	 9
   25    23    24    79	 9
   25    23    24    78	 9
   25    23    24    80	 9
   22    23    24    79	 9
   22    23    24    78	 9
   22    23    24    80	 9
   26    25    33    34	 9
   26    25    33    35	 9
   26    25    33    36	 9
   23    25    33    34	 9
   23    25    33    35	 9
   23    25    33    36	 9
   33    25    26    81	 9
   33    25    26    27	 9
   33    25    26    31	 9
   23    25    26    81	 9
   23    25    26    27	 9
   23    25    26    31	 9
   25    26    27    28	 9
   81    26    27    28	 9
   31    26    27    28	 9
   25    26    31    48	 9
   25    26    31    32	 9
   81    26    31    48	 9
   81    26    31    32	 9
   27    26    31    48	 9
   27    26    31    32	 9
   26    27    28    29	 9
   26    27    28    30	 9
   27    28    29    84	 9
   27    28    29    82	 9
   27    28    29    83	 9
   30    28    29    84	 9
   30    28    29    82	 9
   30    28    29    83	 9
   26    31    48    49	 9
   26    31    48    50	 9
   26    31    48    47	 9
   32    31    48    49	 9
   32    31    48    50	 9
   32    31    48    47	 9
   25    33    34    85	 9
   25    33    34    86	 9
   25    33    34    87	 9
   35    33    34    85	 9
   35    33    34    86	 9
   35    33    34    87	 9
   36    33    34    85	 9
   36    33    34    86	 9
   36    33    34    87	 9
   25    33    35    89	 9
   25    33    35    90	 9
   25    33    35    88	 9
   34    33    35    89	 9
   34    33    35    90	 9
   34    33    35    88	 9
   36    33    35    89	 9
   36    33    35    90	 9
   36    33    35    88	 9
   25    33    36    61	 9
   25    33    36    37	 9
   25    33    36    62	 9
   34    33    36    61	 9
   34    33    36    37	 9
   34    33    36    62	 9
   35    33    36    61	 9
   35    33    36    37	 9
   35    33    36    62	 9
   33    36    61   111	 9
   37    36    61   111	 9
   62    36    61   111	 9
   33    36    37    91	 9
   33    36    37    38	 9
   33    36    37    47	 9
   61    36    37    91	 9
   61    36    37    38	 9
   61    36    37    47	 9
   62    36    37    91	 9
   62    36    37    38	 9
   62    36    37    47	 9
   33    36    62   113	 9
   33    36    62    22	 9
   33    36    62   112	 9
   61    36    62   113	 9
   61    36    62    22	 9
   61    36    62   112	 9
   37    36    62   113	 9
   37    36    62    22	 9
   37    36    62   112	 9
   91    37    38    39	 9
   36    37    38    39	 9
   47    37    38    39	 9
   91    37    47    97	 9
   91    37    47    54	 9
   91    37    47    48	 9
   36    37    47    97	 9
   36    37    47    54	 9
   36    37    47    48	 9
   38    37    47    97	 9
   38    37    47    54	 9
   38    37    47    48	 9
   37    38    39    46	 9
   37    38    39    40	 9
   46    39    40    41	 9
   46    39    40    45	 9
   38    39    40    41	 9
   38    39    40    45	 9
   45    40    41    42	 9
   45    40    41    92	 9
   39    40    41    42	 9
   39    40    41    92	 9
   41    40    45    96	 9
   41    40    45    44	 9
   39    40    45    96	 9
   39    40    45    44	 9
   92    41    42    43	 9
   92    41    42    93	 9
   40    41    42    43	 9
   40    41    42    93	 9
   41    42    43    44	 9
   41    42    43    94	 9
   93    42    43    44	 9
   93    42    43    94	 9
   42    43    44    45	 9
   42    43    44    95	 9
   94    43    44    45	 9
   94    43    44    95	 9
   43    44    45    96	 9
   43    44    45    40	 9
   95    44    45    96	 9
   95    44    45    40	 9
   97    47    54    59	 9
   97    47    54    53	 9
   97    47    54    55	 9
   37    47    54    59	 9
   37    47    54    53	 9
   37    47    54    55	 9
   48    47    54    59	 9
   48    47    54    53	 9
   48    47    54    55	 9
   97    47    48    49	 9
   97    47    48    50	 9
   97    47    48    31	 9
   37    47    48    49	 9
   37    47    48    50	 9
   37    47    48    31	 9
   54    47    48    49	 9
   54    47    48    50	 9
   54    47    48    31	 9
   50    48    49    98	 9
   50    48    49    99	 9
   50    48    49   100	 9
   47    48    49    98	 9
   47    48    49    99	 9
   47    48    49   100	 9
   31    48    49    98	 9
   31    48    49    99	 9
   31    48    49   100	 9
   49    48    50    51	 9
   49    48    50    52	 9
   49    48    50   101	 9
   47    48    50    51	 9
   47    48    50    52	 9
   47    48    50   101	 9
   31    48    50    51	 9
   31    48    50    52	 9
   31    48    50   101	 9
   52    50    51   102	 9
  101    50    51   102	 9
   48    50    51   102	 9
   51    50    52    53	 9
   51    50    52   103	 9
   51    50    52   104	 9
  101    50    52    53	 9
  101    50    52   103	 9
  101    50    52   104	 9
   48    50    52    53	 9
   48    50    52   103	 9
   48    50    52   104	 9
   50    52    53   105	 9
   50    52    53    60	 9
   50    52    53    54	 9
  103    52    53   105	 9
  103    52    53    60	 9
  103    52    53    54	 9
  104    52    53   105	 9
  104    52    53    60	 9
  104    52    53    54	 9
  105    53    60    59	 9
   52    53    60    59	 9
   54    53    60    59	 9
  105    53    54    59	 9
  105    53    54    55	 9
  105    53    54    47	 9
   60    53    54    59	 9
   60    53    54    55	 9
   60    53    54    47	 9
   52    53    54    59	 9
   52    53    54    55	 9
   52    53    54    47	 9
   53    54    59    60	 9
   53    54    59   109	 9
   53    54    59   110	 9
   55    54    59    60	 9
   55    54    59   109	 9
   55    54    59   110	 9
   47    54    59    60	 9
   47    54    59   109	 9
   47    54    59   110	 9
   59    54    55    56	 9
   53    54    55    56	 9
   47    54    55    56	 9
   54    55    56    57	 9
   54    55    56    58	 9
   58    56    57   106	 9
   58    56    57   107	 9
   58    56    57   108	 9
   55    56    57   106	 9
   55    56    57   107	 9
   55    56    57   108	 9
  109    59    60    53	 9
   54    59    60    53	 9
  110    59    60    53	 9

[ dihedrals ]
;	ai	  aj	ak	  al funct			  c0			c1			  c2			c3
    2     3     1    21	 2
   13    14    12    20	 2
   28    29    30    27	 2
   31    48    26    32	 2
   39    40    46    38	 2
   56    57    58    55	 2

