; Created by cgenff_charmm2gmx.py

[ moleculetype ]
; Name			   nrexcl
LST				 3

[ atoms ]
;	 nr		  type	resnr residue  atom   cgnr	   charge		mass  typeB    chargeB		massB
; residue	 1 LST rtp LST q	qsum
     1      CG301      1    LSL     C1      1      0.381     12.011   ;
     2      CG331      1    LSL     C2      2     -0.269     12.011   ;
     3      CG331      1    LSL     C3      3     -0.269     12.011   ;
     4      CG321      1    LSL     C4      4      0.036     12.011   ;
     5      CG321      1    LSL     C5      5     -0.180     12.011   ;
     6      CG321      1    LSL     C6      6     -0.180     12.011   ;
     7      CG321      1    LSL     C7      7     -0.180     12.011   ;
     8      CG321      1    LSL     C8      8     -0.179     12.011   ;
     9      CG321      1    LSL     C9      9     -0.181     12.011   ;
    10      CG321      1    LSL    C10     10     -0.177     12.011   ;
    11      CG331      1    LSL    C11     11     -0.273     12.011   ;
    12      OG301      1    LSL     O1     12     -0.402     15.999   ;
    13       HGA3      1    LSL     H1     13      0.090      1.008   ;
    14       HGA3      1    LSL     H2     14      0.090      1.008   ;
    15       HGA3      1    LSL     H3     15      0.090      1.008   ;
    16       HGA3      1    LSL     H4     16      0.090      1.008   ;
    17       HGA3      1    LSL     H5     17      0.090      1.008   ;
    18       HGA3      1    LSL     H6     18      0.090      1.008   ;
    19       HGA2      1    LSL     H7     19      0.090      1.008   ;
    20       HGA2      1    LSL     H8     20      0.090      1.008   ;
    21       HGA2      1    LSL     H9     21      0.090      1.008   ;
    22       HGA2      1    LSL    H10     22      0.090      1.008   ;
    23       HGA2      1    LSL    H11     23      0.090      1.008   ;
    24       HGA2      1    LSL    H12     24      0.090      1.008   ;
    25       HGA2      1    LSL    H13     25      0.090      1.008   ;
    26       HGA2      1    LSL    H14     26      0.090      1.008   ;
    27       HGA2      1    LSL    H15     27      0.090      1.008   ;
    28       HGA2      1    LSL    H16     28      0.090      1.008   ;
    29       HGA2      1    LSL    H17     29      0.090      1.008   ;
    30       HGA2      1    LSL    H18     30      0.090      1.008   ;
    31       HGA2      1    LSL    H19     31      0.090      1.008   ;
    32       HGA2      1    LSL    H20     32      0.090      1.008   ;
    33       HGA3      1    LSL    H21     33      0.090      1.008   ;
    34       HGA3      1    LSL    H22     34      0.090      1.008   ;
    35       HGA3      1    LSL    H23     35      0.090      1.008   ;
    36     NG2R50      1    LST     N1     36     -0.851     14.007   ;
    37     NG2R51      1    LST     N2     37     -0.103     14.007   ;
    38     NG2R50      1    LST     N3     38     -0.664     14.007   ;
    39     NG2R51      1    LST     N4     39      0.469     14.007   ;
    40     NG2R50      1    LST     N5     40     -0.294     14.007   ;
    41     NG2R50      1    LST     N6     41     -0.520     14.007   ;
    42     CG2R53      1    LST    C12     42      0.411     12.011   ;
    43     CG2R51      1    LST    C13     43      0.387     12.011   ;
    44     CG2R51      1    LST    C14     44     -0.292     12.011   ;
    45      CG321      1    LST    C15     45      0.235     12.011   ;
    46      CG321      1    LST    C16     46      0.105     12.011   ;
    47     CG2R67      1    LST    C17     47     -0.000     12.011   ;
    48     CG2R61      1    LST    C18     48     -0.107     12.011   ;
    49     CG2R61      1    LST    C19     49     -0.117     12.011   ;
    50     CG2R61      1    LST    C20     50     -0.004     12.011   ;
    51     CG2R61      1    LST    C21     51     -0.117     12.011   ;
    52     CG2R61      1    LST    C22     52     -0.107     12.011   ;
    53     CG2R67      1    LST    C23     53      0.005     12.011   ;
    54     CG2R61      1    LST    C24     54      0.065     12.011   ;
    55     CG2R61      1    LST    C25     55     -0.119     12.011   ;
    56     CG2R61      1    LST    C26     56     -0.117     12.011   ;
    57     CG2R61      1    LST    C27     57     -0.115     12.011   ;
    58     CG2R61      1    LST    C28     58     -0.122     12.011   ;
    59     CG2R53      1    LST    C29     59      0.657     12.011   ;
    60      CG321      1    LST    C30     60     -0.105     12.011   ;
    61      CG321      1    LST    C31     61     -0.184     12.011   ;
    62      CG321      1    LST    C32     62     -0.173     12.011   ;
    63      CG331      1    LST    C33     63     -0.273     12.011   ;
    64      OG301      1    LST     O2     64     -0.424     15.999   ;
    65      CLGR1      1    LST     Cl     65     -0.158     35.453   ;
    66       HGA2      1    LST    H24     66      0.090      1.008   ;
    67       HGA2      1    LST    H25     67      0.090      1.008   ;
    68       HGA2      1    LST    H26     68      0.090      1.008   ;
    69       HGA2      1    LST    H27     69      0.090      1.008   ;
    70      HGR61      1    LST    H28     70      0.115      1.008   ;
    71      HGR61      1    LST    H29     71      0.115      1.008   ;
    72      HGR61      1    LST    H30     72      0.115      1.008   ;
    73      HGR61      1    LST    H31     73      0.115      1.008   ;
    74      HGR61      1    LST    H32     74      0.115      1.008   ;
    75      HGR61      1    LST    H33     75      0.115      1.008   ;
    76      HGR61      1    LST    H34     76      0.115      1.008   ;
    77      HGR61      1    LST    H35     77      0.115      1.008   ;
    78       HGP1      1    LST    H36     78      0.295      1.008   ;
    79       HGA2      1    LST    H37     79      0.090      1.008   ;
    80       HGA2      1    LST    H38     80      0.090      1.008   ;
    81       HGA2      1    LST    H39     81      0.090      1.008   ;
    82       HGA2      1    LST    H40     82      0.090      1.008   ;
    83       HGA2      1    LST    H41     83      0.090      1.008   ;
    84       HGA2      1    LST    H42     84      0.090      1.008   ;
    85       HGA3      1    LST    H43     85      0.090      1.008   ;
    86       HGA3      1    LST    H44     86      0.090      1.008   ;
    87       HGA3      1    LST    H45     87      0.090      1.008   ;
    88        LPH      1    LST    LP1     88      0.050      0.000   ;

[ bonds ]
;	ai	  aj funct			  c0			c1			  c2			c3
    1     2	 1 ;       CG301      CG331
    1     3	 1 ;       CG301      CG331
    1    12	 1 ;       CG301      OG301
    1    64	 1 ;       CG301      OG301
    2    13	 1 ;       CG331       HGA3
    2    14	 1 ;       CG331       HGA3
    2    15	 1 ;       CG331       HGA3
    3    16	 1 ;       CG331       HGA3
    3    17	 1 ;       CG331       HGA3
    3    18	 1 ;       CG331       HGA3
    4     5	 1 ;       CG321      CG321
    4    19	 1 ;       CG321       HGA2
    4    20	 1 ;       CG321       HGA2
    4    12	 1 ;       CG321      OG301
    5     6	 1 ;       CG321      CG321
    5    21	 1 ;       CG321       HGA2
    5    22	 1 ;       CG321       HGA2
    6     7	 1 ;       CG321      CG321
    6    23	 1 ;       CG321       HGA2
    6    24	 1 ;       CG321       HGA2
    7     8	 1 ;       CG321      CG321
    7    25	 1 ;       CG321       HGA2
    7    26	 1 ;       CG321       HGA2
    8     9	 1 ;       CG321      CG321
    8    27	 1 ;       CG321       HGA2
    8    28	 1 ;       CG321       HGA2
    9    10	 1 ;       CG321      CG321
    9    29	 1 ;       CG321       HGA2
    9    30	 1 ;       CG321       HGA2
   10    11	 1 ;       CG321      CG331
   10    31	 1 ;       CG321       HGA2
   10    32	 1 ;       CG321       HGA2
   11    33	 1 ;       CG331       HGA3
   11    34	 1 ;       CG331       HGA3
   11    35	 1 ;       CG331       HGA3
   36    43	 1 ;      NG2R50     CG2R51
   36    42	 1 ;      NG2R50     CG2R53
   37    46	 1 ;      NG2R51      CG321
   37    42	 1 ;      NG2R51     CG2R53
   37    44	 1 ;      NG2R51     CG2R51
   38    39	 1 ;      NG2R50     NG2R51
   38    59	 1 ;      NG2R50     CG2R53
   39    40	 1 ;      NG2R51     NG2R50
   39    78	 1 ;      NG2R51       HGP1
   40    41	 1 ;      NG2R50     NG2R50
   41    59	 1 ;      NG2R50     CG2R53
   42    60	 1 ;      CG2R53      CG321
   43    44	 1 ;      CG2R51     CG2R51
   43    65	 1 ;      CG2R51      CLGR1
   44    45	 1 ;      CG2R51      CG321
   45    64	 1 ;       CG321      OG301
   45    66	 1 ;       CG321       HGA2
   45    67	 1 ;       CG321       HGA2
   46    50	 1 ;       CG321     CG2R61
   46    68	 1 ;       CG321       HGA2
   46    69	 1 ;       CG321       HGA2
   47    48	 1 ;      CG2R67     CG2R61
   47    52	 1 ;      CG2R67     CG2R61
   47    53	 1 ;      CG2R67     CG2R67
   48    49	 1 ;      CG2R61     CG2R61
   48    70	 1 ;      CG2R61      HGR61
   49    50	 1 ;      CG2R61     CG2R61
   49    71	 1 ;      CG2R61      HGR61
   50    51	 1 ;      CG2R61     CG2R61
   51    52	 1 ;      CG2R61     CG2R61
   51    72	 1 ;      CG2R61      HGR61
   52    73	 1 ;      CG2R61      HGR61
   53    54	 1 ;      CG2R67     CG2R61
   53    58	 1 ;      CG2R67     CG2R61
   54    55	 1 ;      CG2R61     CG2R61
   54    59	 1 ;      CG2R61     CG2R53
   55    56	 1 ;      CG2R61     CG2R61
   55    74	 1 ;      CG2R61      HGR61
   56    57	 1 ;      CG2R61     CG2R61
   56    75	 1 ;      CG2R61      HGR61
   57    58	 1 ;      CG2R61     CG2R61
   57    76	 1 ;      CG2R61      HGR61
   58    77	 1 ;      CG2R61      HGR61
   60    61	 1 ;       CG321      CG321
   60    79	 1 ;       CG321       HGA2
   60    80	 1 ;       CG321       HGA2
   61    62	 1 ;       CG321      CG321
   61    81	 1 ;       CG321       HGA2
   61    82	 1 ;       CG321       HGA2
   62    63	 1 ;       CG321      CG331
   62    83	 1 ;       CG321       HGA2
   62    84	 1 ;       CG321       HGA2
   63    85	 1 ;       CG331       HGA3
   63    86	 1 ;       CG331       HGA3
   63    87	 1 ;       CG331       HGA3

[ pairs ]
;	ai	  aj funct			  c0			c1			  c2			c3
    1     5	 1
    1    19	 1
    1    20	 1
    1    44	 1
    1    66	 1
    1    67	 1
    2    16	 1
    2    17	 1
    2    18	 1
    2     4	 1
    2    45	 1
    3    13	 1
    3    14	 1
    3    15	 1
    3     4	 1
    3    45	 1
    4    64	 1
    4     7	 1
    4    23	 1
    4    24	 1
    5     8	 1
    5    25	 1
    5    26	 1
    6    19	 1
    6    20	 1
    6    12	 1
    6     9	 1
    6    27	 1
    6    28	 1
    7    21	 1
    7    22	 1
    7    10	 1
    7    29	 1
    7    30	 1
    8    23	 1
    8    24	 1
    8    11	 1
    8    31	 1
    8    32	 1
    9    25	 1
    9    26	 1
    9    33	 1
    9    34	 1
    9    35	 1
   10    27	 1
   10    28	 1
   11    29	 1
   11    30	 1
   12    13	 1
   12    14	 1
   12    15	 1
   12    16	 1
   12    17	 1
   12    18	 1
   12    45	 1
   12    21	 1
   12    22	 1
   13    64	 1
   14    64	 1
   15    64	 1
   16    64	 1
   17    64	 1
   18    64	 1
   19    21	 1
   19    22	 1
   20    21	 1
   20    22	 1
   21    23	 1
   21    24	 1
   22    23	 1
   22    24	 1
   23    25	 1
   23    26	 1
   24    25	 1
   24    26	 1
   25    27	 1
   25    28	 1
   26    27	 1
   26    28	 1
   27    29	 1
   27    30	 1
   28    29	 1
   28    30	 1
   29    31	 1
   29    32	 1
   30    31	 1
   30    32	 1
   31    33	 1
   31    34	 1
   31    35	 1
   32    33	 1
   32    34	 1
   32    35	 1
   36    46	 1
   36    61	 1
   36    79	 1
   36    80	 1
   36    45	 1
   37    61	 1
   37    79	 1
   37    80	 1
   37    65	 1
   88    37	 1
   37    64	 1
   37    66	 1
   37    67	 1
   37    49	 1
   37    51	 1
   38    53	 1
   38    55	 1
   39    54	 1
   40    54	 1
   41    78	 1
   41    53	 1
   41    55	 1
   42    65	 1
   88    42	 1
   42    50	 1
   42    68	 1
   42    69	 1
   42    45	 1
   42    62	 1
   42    81	 1
   42    82	 1
   43    60	 1
   43    46	 1
   43    64	 1
   43    66	 1
   43    67	 1
   44    50	 1
   44    68	 1
   44    69	 1
   44    60	 1
   45    46	 1
   45    65	 1
   88    45	 1
   46    60	 1
   46    48	 1
   46    71	 1
   46    52	 1
   46    72	 1
   47    50	 1
   47    71	 1
   47    72	 1
   47    55	 1
   47    59	 1
   47    57	 1
   47    77	 1
   48    51	 1
   48    73	 1
   48    54	 1
   48    58	 1
   49    68	 1
   49    69	 1
   49    52	 1
   49    53	 1
   49    72	 1
   50    70	 1
   50    73	 1
   51    68	 1
   51    69	 1
   51    53	 1
   51    71	 1
   52    70	 1
   52    54	 1
   52    58	 1
   53    70	 1
   53    73	 1
   53    56	 1
   53    74	 1
   53    76	 1
   54    57	 1
   54    77	 1
   54    75	 1
   55    58	 1
   55    76	 1
   56    59	 1
   56    77	 1
   57    74	 1
   58    59	 1
   58    75	 1
   59    78	 1
   59    74	 1
   60    63	 1
   60    83	 1
   60    84	 1
   61    85	 1
   61    86	 1
   61    87	 1
   62    79	 1
   62    80	 1
   63    81	 1
   63    82	 1
   70    71	 1
   72    73	 1
   74    75	 1
   75    76	 1
   76    77	 1
   79    81	 1
   79    82	 1
   80    81	 1
   80    82	 1
   81    83	 1
   81    84	 1
   82    83	 1
   82    84	 1
   83    85	 1
   83    86	 1
   83    87	 1
   84    85	 1
   84    86	 1
   84    87	 1

[ angles ]
;	ai	  aj	ak funct			c0			  c1			c2			  c3
    2     1     3	5 ;      CG331      CG301      CG331
    2     1    12	5 ;      CG331      CG301      OG301
    2     1    64	5 ;      CG331      CG301      OG301
    3     1    12	5 ;      CG331      CG301      OG301
    3     1    64	5 ;      CG331      CG301      OG301
   12     1    64	5 ;      OG301      CG301      OG301
    1     2    13	5 ;      CG301      CG331       HGA3
    1     2    14	5 ;      CG301      CG331       HGA3
    1     2    15	5 ;      CG301      CG331       HGA3
   13     2    14	5 ;       HGA3      CG331       HGA3
   13     2    15	5 ;       HGA3      CG331       HGA3
   14     2    15	5 ;       HGA3      CG331       HGA3
    1     3    16	5 ;      CG301      CG331       HGA3
    1     3    17	5 ;      CG301      CG331       HGA3
    1     3    18	5 ;      CG301      CG331       HGA3
   16     3    17	5 ;       HGA3      CG331       HGA3
   16     3    18	5 ;       HGA3      CG331       HGA3
   17     3    18	5 ;       HGA3      CG331       HGA3
    5     4    19	5 ;      CG321      CG321       HGA2
    5     4    20	5 ;      CG321      CG321       HGA2
    5     4    12	5 ;      CG321      CG321      OG301
   19     4    20	5 ;       HGA2      CG321       HGA2
   19     4    12	5 ;       HGA2      CG321      OG301
   20     4    12	5 ;       HGA2      CG321      OG301
    4     5     6	5 ;      CG321      CG321      CG321
    4     5    21	5 ;      CG321      CG321       HGA2
    4     5    22	5 ;      CG321      CG321       HGA2
    6     5    21	5 ;      CG321      CG321       HGA2
    6     5    22	5 ;      CG321      CG321       HGA2
   21     5    22	5 ;       HGA2      CG321       HGA2
    5     6     7	5 ;      CG321      CG321      CG321
    5     6    23	5 ;      CG321      CG321       HGA2
    5     6    24	5 ;      CG321      CG321       HGA2
    7     6    23	5 ;      CG321      CG321       HGA2
    7     6    24	5 ;      CG321      CG321       HGA2
   23     6    24	5 ;       HGA2      CG321       HGA2
    6     7     8	5 ;      CG321      CG321      CG321
    6     7    25	5 ;      CG321      CG321       HGA2
    6     7    26	5 ;      CG321      CG321       HGA2
    8     7    25	5 ;      CG321      CG321       HGA2
    8     7    26	5 ;      CG321      CG321       HGA2
   25     7    26	5 ;       HGA2      CG321       HGA2
    7     8     9	5 ;      CG321      CG321      CG321
    7     8    27	5 ;      CG321      CG321       HGA2
    7     8    28	5 ;      CG321      CG321       HGA2
    9     8    27	5 ;      CG321      CG321       HGA2
    9     8    28	5 ;      CG321      CG321       HGA2
   27     8    28	5 ;       HGA2      CG321       HGA2
    8     9    10	5 ;      CG321      CG321      CG321
    8     9    29	5 ;      CG321      CG321       HGA2
    8     9    30	5 ;      CG321      CG321       HGA2
   10     9    29	5 ;      CG321      CG321       HGA2
   10     9    30	5 ;      CG321      CG321       HGA2
   29     9    30	5 ;       HGA2      CG321       HGA2
    9    10    11	5 ;      CG321      CG321      CG331
    9    10    31	5 ;      CG321      CG321       HGA2
    9    10    32	5 ;      CG321      CG321       HGA2
   11    10    31	5 ;      CG331      CG321       HGA2
   11    10    32	5 ;      CG331      CG321       HGA2
   31    10    32	5 ;       HGA2      CG321       HGA2
   10    11    33	5 ;      CG321      CG331       HGA3
   10    11    34	5 ;      CG321      CG331       HGA3
   10    11    35	5 ;      CG321      CG331       HGA3
   33    11    34	5 ;       HGA3      CG331       HGA3
   33    11    35	5 ;       HGA3      CG331       HGA3
   34    11    35	5 ;       HGA3      CG331       HGA3
    1    12     4	5 ;      CG301      OG301      CG321
   43    36    42	5 ;     CG2R51     NG2R50     CG2R53
   46    37    42	5 ;      CG321     NG2R51     CG2R53
   46    37    44	5 ;      CG321     NG2R51     CG2R51
   42    37    44	5 ;     CG2R53     NG2R51     CG2R51
   39    38    59	5 ;     NG2R51     NG2R50     CG2R53
   38    39    40	5 ;     NG2R50     NG2R51     NG2R50
   38    39    78	5 ;     NG2R50     NG2R51       HGP1
   40    39    78	5 ;     NG2R50     NG2R51       HGP1
   39    40    41	5 ;     NG2R51     NG2R50     NG2R50
   40    41    59	5 ;     NG2R50     NG2R50     CG2R53
   36    42    37	5 ;     NG2R50     CG2R53     NG2R51
   36    42    60	5 ;     NG2R50     CG2R53      CG321
   37    42    60	5 ;     NG2R51     CG2R53      CG321
   36    43    44	5 ;     NG2R50     CG2R51     CG2R51
   36    43    65	5 ;     NG2R50     CG2R51      CLGR1
   44    43    65	5 ;     CG2R51     CG2R51      CLGR1
   43    44    37	5 ;     CG2R51     CG2R51     NG2R51
   43    44    45	5 ;     CG2R51     CG2R51      CG321
   37    44    45	5 ;     NG2R51     CG2R51      CG321
   44    45    64	5 ;     CG2R51      CG321      OG301
   44    45    66	5 ;     CG2R51      CG321       HGA2
   44    45    67	5 ;     CG2R51      CG321       HGA2
   64    45    66	5 ;      OG301      CG321       HGA2
   64    45    67	5 ;      OG301      CG321       HGA2
   66    45    67	5 ;       HGA2      CG321       HGA2
   37    46    50	5 ;     NG2R51      CG321     CG2R61
   37    46    68	5 ;     NG2R51      CG321       HGA2
   37    46    69	5 ;     NG2R51      CG321       HGA2
   50    46    68	5 ;     CG2R61      CG321       HGA2
   50    46    69	5 ;     CG2R61      CG321       HGA2
   68    46    69	5 ;       HGA2      CG321       HGA2
   48    47    52	5 ;     CG2R61     CG2R67     CG2R61
   48    47    53	5 ;     CG2R61     CG2R67     CG2R67
   52    47    53	5 ;     CG2R61     CG2R67     CG2R67
   47    48    49	5 ;     CG2R67     CG2R61     CG2R61
   47    48    70	5 ;     CG2R67     CG2R61      HGR61
   49    48    70	5 ;     CG2R61     CG2R61      HGR61
   48    49    50	5 ;     CG2R61     CG2R61     CG2R61
   48    49    71	5 ;     CG2R61     CG2R61      HGR61
   50    49    71	5 ;     CG2R61     CG2R61      HGR61
   46    50    49	5 ;      CG321     CG2R61     CG2R61
   46    50    51	5 ;      CG321     CG2R61     CG2R61
   49    50    51	5 ;     CG2R61     CG2R61     CG2R61
   50    51    52	5 ;     CG2R61     CG2R61     CG2R61
   50    51    72	5 ;     CG2R61     CG2R61      HGR61
   52    51    72	5 ;     CG2R61     CG2R61      HGR61
   47    52    51	5 ;     CG2R67     CG2R61     CG2R61
   47    52    73	5 ;     CG2R67     CG2R61      HGR61
   51    52    73	5 ;     CG2R61     CG2R61      HGR61
   47    53    54	5 ;     CG2R67     CG2R67     CG2R61
   47    53    58	5 ;     CG2R67     CG2R67     CG2R61
   54    53    58	5 ;     CG2R61     CG2R67     CG2R61
   53    54    55	5 ;     CG2R67     CG2R61     CG2R61
   53    54    59	5 ;     CG2R67     CG2R61     CG2R53
   55    54    59	5 ;     CG2R61     CG2R61     CG2R53
   54    55    56	5 ;     CG2R61     CG2R61     CG2R61
   54    55    74	5 ;     CG2R61     CG2R61      HGR61
   56    55    74	5 ;     CG2R61     CG2R61      HGR61
   55    56    57	5 ;     CG2R61     CG2R61     CG2R61
   55    56    75	5 ;     CG2R61     CG2R61      HGR61
   57    56    75	5 ;     CG2R61     CG2R61      HGR61
   56    57    58	5 ;     CG2R61     CG2R61     CG2R61
   56    57    76	5 ;     CG2R61     CG2R61      HGR61
   58    57    76	5 ;     CG2R61     CG2R61      HGR61
   53    58    57	5 ;     CG2R67     CG2R61     CG2R61
   53    58    77	5 ;     CG2R67     CG2R61      HGR61
   57    58    77	5 ;     CG2R61     CG2R61      HGR61
   38    59    41	5 ;     NG2R50     CG2R53     NG2R50
   38    59    54	5 ;     NG2R50     CG2R53     CG2R61
   41    59    54	5 ;     NG2R50     CG2R53     CG2R61
   42    60    61	5 ;     CG2R53      CG321      CG321
   42    60    79	5 ;     CG2R53      CG321       HGA2
   42    60    80	5 ;     CG2R53      CG321       HGA2
   61    60    79	5 ;      CG321      CG321       HGA2
   61    60    80	5 ;      CG321      CG321       HGA2
   79    60    80	5 ;       HGA2      CG321       HGA2
   60    61    62	5 ;      CG321      CG321      CG321
   60    61    81	5 ;      CG321      CG321       HGA2
   60    61    82	5 ;      CG321      CG321       HGA2
   62    61    81	5 ;      CG321      CG321       HGA2
   62    61    82	5 ;      CG321      CG321       HGA2
   81    61    82	5 ;       HGA2      CG321       HGA2
   61    62    63	5 ;      CG321      CG321      CG331
   61    62    83	5 ;      CG321      CG321       HGA2
   61    62    84	5 ;      CG321      CG321       HGA2
   63    62    83	5 ;      CG331      CG321       HGA2
   63    62    84	5 ;      CG331      CG321       HGA2
   83    62    84	5 ;       HGA2      CG321       HGA2
   62    63    85	5 ;      CG321      CG331       HGA3
   62    63    86	5 ;      CG321      CG331       HGA3
   62    63    87	5 ;      CG321      CG331       HGA3
   85    63    86	5 ;       HGA3      CG331       HGA3
   85    63    87	5 ;       HGA3      CG331       HGA3
   86    63    87	5 ;       HGA3      CG331       HGA3
   45    64     1	5 ;      CG321      OG301      CG301

[ dihedrals ]
;	ai	  aj	ak	  al funct			  c0			c1			  c2			c3			  c4			c5
    3     1     2    13	 9 ;      CG331      CG301      CG331       HGA3
    3     1     2    14	 9 ;      CG331      CG301      CG331       HGA3
    3     1     2    15	 9 ;      CG331      CG301      CG331       HGA3
   12     1     2    13	 9 ;      OG301      CG301      CG331       HGA3
   12     1     2    14	 9 ;      OG301      CG301      CG331       HGA3
   12     1     2    15	 9 ;      OG301      CG301      CG331       HGA3
   64     1     2    13	 9 ;      OG301      CG301      CG331       HGA3
   64     1     2    14	 9 ;      OG301      CG301      CG331       HGA3
   64     1     2    15	 9 ;      OG301      CG301      CG331       HGA3
    2     1     3    16	 9 ;      CG331      CG301      CG331       HGA3
    2     1     3    17	 9 ;      CG331      CG301      CG331       HGA3
    2     1     3    18	 9 ;      CG331      CG301      CG331       HGA3
   12     1     3    16	 9 ;      OG301      CG301      CG331       HGA3
   12     1     3    17	 9 ;      OG301      CG301      CG331       HGA3
   12     1     3    18	 9 ;      OG301      CG301      CG331       HGA3
   64     1     3    16	 9 ;      OG301      CG301      CG331       HGA3
   64     1     3    17	 9 ;      OG301      CG301      CG331       HGA3
   64     1     3    18	 9 ;      OG301      CG301      CG331       HGA3
    2     1    12     4	 9 ;      CG331      CG301      OG301      CG321
    3     1    12     4	 9 ;      CG331      CG301      OG301      CG321
   64     1    12     4	 9 ;      OG301      CG301      OG301      CG321
    2     1    64    45	 9 ;      CG331      CG301      OG301      CG321
    3     1    64    45	 9 ;      CG331      CG301      OG301      CG321
   12     1    64    45	 9 ;      OG301      CG301      OG301      CG321
   19     4     5     6	 9 ;       HGA2      CG321      CG321      CG321
   19     4     5    21	 9 ;       HGA2      CG321      CG321       HGA2
   19     4     5    22	 9 ;       HGA2      CG321      CG321       HGA2
   20     4     5     6	 9 ;       HGA2      CG321      CG321      CG321
   20     4     5    21	 9 ;       HGA2      CG321      CG321       HGA2
   20     4     5    22	 9 ;       HGA2      CG321      CG321       HGA2
   12     4     5     6	 9 ;      OG301      CG321      CG321      CG321
   12     4     5    21	 9 ;      OG301      CG321      CG321       HGA2
   12     4     5    22	 9 ;      OG301      CG321      CG321       HGA2
    5     4    12     1	 9 ;      CG321      CG321      OG301      CG301
   19     4    12     1	 9 ;       HGA2      CG321      OG301      CG301
   20     4    12     1	 9 ;       HGA2      CG321      OG301      CG301
    4     5     6     7	 9 ;      CG321      CG321      CG321      CG321
    4     5     6    23	 9 ;      CG321      CG321      CG321       HGA2
    4     5     6    24	 9 ;      CG321      CG321      CG321       HGA2
   21     5     6     7	 9 ;       HGA2      CG321      CG321      CG321
   21     5     6    23	 9 ;       HGA2      CG321      CG321       HGA2
   21     5     6    24	 9 ;       HGA2      CG321      CG321       HGA2
   22     5     6     7	 9 ;       HGA2      CG321      CG321      CG321
   22     5     6    23	 9 ;       HGA2      CG321      CG321       HGA2
   22     5     6    24	 9 ;       HGA2      CG321      CG321       HGA2
    5     6     7     8	 9 ;      CG321      CG321      CG321      CG321
    5     6     7    25	 9 ;      CG321      CG321      CG321       HGA2
    5     6     7    26	 9 ;      CG321      CG321      CG321       HGA2
   23     6     7     8	 9 ;       HGA2      CG321      CG321      CG321
   23     6     7    25	 9 ;       HGA2      CG321      CG321       HGA2
   23     6     7    26	 9 ;       HGA2      CG321      CG321       HGA2
   24     6     7     8	 9 ;       HGA2      CG321      CG321      CG321
   24     6     7    25	 9 ;       HGA2      CG321      CG321       HGA2
   24     6     7    26	 9 ;       HGA2      CG321      CG321       HGA2
    6     7     8     9	 9 ;      CG321      CG321      CG321      CG321
    6     7     8    27	 9 ;      CG321      CG321      CG321       HGA2
    6     7     8    28	 9 ;      CG321      CG321      CG321       HGA2
   25     7     8     9	 9 ;       HGA2      CG321      CG321      CG321
   25     7     8    27	 9 ;       HGA2      CG321      CG321       HGA2
   25     7     8    28	 9 ;       HGA2      CG321      CG321       HGA2
   26     7     8     9	 9 ;       HGA2      CG321      CG321      CG321
   26     7     8    27	 9 ;       HGA2      CG321      CG321       HGA2
   26     7     8    28	 9 ;       HGA2      CG321      CG321       HGA2
    7     8     9    10	 9 ;      CG321      CG321      CG321      CG321
    7     8     9    29	 9 ;      CG321      CG321      CG321       HGA2
    7     8     9    30	 9 ;      CG321      CG321      CG321       HGA2
   27     8     9    10	 9 ;       HGA2      CG321      CG321      CG321
   27     8     9    29	 9 ;       HGA2      CG321      CG321       HGA2
   27     8     9    30	 9 ;       HGA2      CG321      CG321       HGA2
   28     8     9    10	 9 ;       HGA2      CG321      CG321      CG321
   28     8     9    29	 9 ;       HGA2      CG321      CG321       HGA2
   28     8     9    30	 9 ;       HGA2      CG321      CG321       HGA2
    8     9    10    11	 9 ;      CG321      CG321      CG321      CG331
    8     9    10    31	 9 ;      CG321      CG321      CG321       HGA2
    8     9    10    32	 9 ;      CG321      CG321      CG321       HGA2
   29     9    10    11	 9 ;       HGA2      CG321      CG321      CG331
   29     9    10    31	 9 ;       HGA2      CG321      CG321       HGA2
   29     9    10    32	 9 ;       HGA2      CG321      CG321       HGA2
   30     9    10    11	 9 ;       HGA2      CG321      CG321      CG331
   30     9    10    31	 9 ;       HGA2      CG321      CG321       HGA2
   30     9    10    32	 9 ;       HGA2      CG321      CG321       HGA2
    9    10    11    33	 9 ;      CG321      CG321      CG331       HGA3
    9    10    11    34	 9 ;      CG321      CG321      CG331       HGA3
    9    10    11    35	 9 ;      CG321      CG321      CG331       HGA3
   31    10    11    33	 9 ;       HGA2      CG321      CG331       HGA3
   31    10    11    34	 9 ;       HGA2      CG321      CG331       HGA3
   31    10    11    35	 9 ;       HGA2      CG321      CG331       HGA3
   32    10    11    33	 9 ;       HGA2      CG321      CG331       HGA3
   32    10    11    34	 9 ;       HGA2      CG321      CG331       HGA3
   32    10    11    35	 9 ;       HGA2      CG321      CG331       HGA3
   42    36    43    44	 9 ;     CG2R53     NG2R50     CG2R51     CG2R51
   42    36    43    65	 9 ;     CG2R53     NG2R50     CG2R51      CLGR1
   43    36    42    37	 9 ;     CG2R51     NG2R50     CG2R53     NG2R51
   43    36    42    60	 9 ;     CG2R51     NG2R50     CG2R53      CG321
   42    37    46    50	 9 ;     CG2R53     NG2R51      CG321     CG2R61
   42    37    46    68	 9 ;     CG2R53     NG2R51      CG321       HGA2
   42    37    46    69	 9 ;     CG2R53     NG2R51      CG321       HGA2
   44    37    46    50	 9 ;     CG2R51     NG2R51      CG321     CG2R61
   44    37    46    68	 9 ;     CG2R51     NG2R51      CG321       HGA2
   44    37    46    69	 9 ;     CG2R51     NG2R51      CG321       HGA2
   46    37    42    36	 9 ;      CG321     NG2R51     CG2R53     NG2R50
   46    37    42    60	 9 ;      CG321     NG2R51     CG2R53      CG321
   44    37    42    36	 9 ;     CG2R51     NG2R51     CG2R53     NG2R50
   44    37    42    60	 9 ;     CG2R51     NG2R51     CG2R53      CG321
   46    37    44    43	 9 ;      CG321     NG2R51     CG2R51     CG2R51
   46    37    44    45	 9 ;      CG321     NG2R51     CG2R51      CG321
   42    37    44    43	 9 ;     CG2R53     NG2R51     CG2R51     CG2R51
   42    37    44    45	 9 ;     CG2R53     NG2R51     CG2R51      CG321
   59    38    39    40	 9 ;     CG2R53     NG2R50     NG2R51     NG2R50
   59    38    39    78	 9 ;     CG2R53     NG2R50     NG2R51       HGP1
   39    38    59    41	 9 ;     NG2R51     NG2R50     CG2R53     NG2R50
   39    38    59    54	 9 ;     NG2R51     NG2R50     CG2R53     CG2R61
   38    39    40    41	 9 ;     NG2R50     NG2R51     NG2R50     NG2R50
   78    39    40    41	 9 ;       HGP1     NG2R51     NG2R50     NG2R50
   39    40    41    59	 9 ;     NG2R51     NG2R50     NG2R50     CG2R53
   40    41    59    38	 9 ;     NG2R50     NG2R50     CG2R53     NG2R50
   40    41    59    54	 9 ;     NG2R50     NG2R50     CG2R53     CG2R61
   36    42    60    61	 9 ;     NG2R50     CG2R53      CG321      CG321
   36    42    60    79	 9 ;     NG2R50     CG2R53      CG321       HGA2
   36    42    60    80	 9 ;     NG2R50     CG2R53      CG321       HGA2
   37    42    60    61	 9 ;     NG2R51     CG2R53      CG321      CG321
   37    42    60    79	 9 ;     NG2R51     CG2R53      CG321       HGA2
   37    42    60    80	 9 ;     NG2R51     CG2R53      CG321       HGA2
   36    43    44    37	 9 ;     NG2R50     CG2R51     CG2R51     NG2R51
   36    43    44    45	 9 ;     NG2R50     CG2R51     CG2R51      CG321
   65    43    44    37	 9 ;      CLGR1     CG2R51     CG2R51     NG2R51
   65    43    44    45	 9 ;      CLGR1     CG2R51     CG2R51      CG321
   43    44    45    64	 9 ;     CG2R51     CG2R51      CG321      OG301
   43    44    45    66	 9 ;     CG2R51     CG2R51      CG321       HGA2
   43    44    45    67	 9 ;     CG2R51     CG2R51      CG321       HGA2
   37    44    45    64	 9 ;     NG2R51     CG2R51      CG321      OG301
   37    44    45    66	 9 ;     NG2R51     CG2R51      CG321       HGA2
   37    44    45    67	 9 ;     NG2R51     CG2R51      CG321       HGA2
   44    45    64     1	 9 ;     CG2R51      CG321      OG301      CG301
   66    45    64     1	 9 ;       HGA2      CG321      OG301      CG301
   67    45    64     1	 9 ;       HGA2      CG321      OG301      CG301
   37    46    50    49	 9 ;     NG2R51      CG321     CG2R61     CG2R61
   37    46    50    51	 9 ;     NG2R51      CG321     CG2R61     CG2R61
   68    46    50    49	 9 ;       HGA2      CG321     CG2R61     CG2R61
   68    46    50    51	 9 ;       HGA2      CG321     CG2R61     CG2R61
   69    46    50    49	 9 ;       HGA2      CG321     CG2R61     CG2R61
   69    46    50    51	 9 ;       HGA2      CG321     CG2R61     CG2R61
   52    47    48    49	 9 ;     CG2R61     CG2R67     CG2R61     CG2R61
   52    47    48    70	 9 ;     CG2R61     CG2R67     CG2R61      HGR61
   53    47    48    49	 9 ;     CG2R67     CG2R67     CG2R61     CG2R61
   53    47    48    70	 9 ;     CG2R67     CG2R67     CG2R61      HGR61
   48    47    52    51	 9 ;     CG2R61     CG2R67     CG2R61     CG2R61
   48    47    52    73	 9 ;     CG2R61     CG2R67     CG2R61      HGR61
   53    47    52    51	 9 ;     CG2R67     CG2R67     CG2R61     CG2R61
   53    47    52    73	 9 ;     CG2R67     CG2R67     CG2R61      HGR61
   48    47    53    54	 9 ;     CG2R61     CG2R67     CG2R67     CG2R61
   48    47    53    58	 9 ;     CG2R61     CG2R67     CG2R67     CG2R61
   52    47    53    54	 9 ;     CG2R61     CG2R67     CG2R67     CG2R61
   52    47    53    58	 9 ;     CG2R61     CG2R67     CG2R67     CG2R61
   47    48    49    50	 9 ;     CG2R67     CG2R61     CG2R61     CG2R61
   47    48    49    71	 9 ;     CG2R67     CG2R61     CG2R61      HGR61
   70    48    49    50	 9 ;      HGR61     CG2R61     CG2R61     CG2R61
   70    48    49    71	 9 ;      HGR61     CG2R61     CG2R61      HGR61
   48    49    50    46	 9 ;     CG2R61     CG2R61     CG2R61      CG321
   48    49    50    51	 9 ;     CG2R61     CG2R61     CG2R61     CG2R61
   71    49    50    46	 9 ;      HGR61     CG2R61     CG2R61      CG321
   71    49    50    51	 9 ;      HGR61     CG2R61     CG2R61     CG2R61
   46    50    51    52	 9 ;      CG321     CG2R61     CG2R61     CG2R61
   46    50    51    72	 9 ;      CG321     CG2R61     CG2R61      HGR61
   49    50    51    52	 9 ;     CG2R61     CG2R61     CG2R61     CG2R61
   49    50    51    72	 9 ;     CG2R61     CG2R61     CG2R61      HGR61
   50    51    52    47	 9 ;     CG2R61     CG2R61     CG2R61     CG2R67
   50    51    52    73	 9 ;     CG2R61     CG2R61     CG2R61      HGR61
   72    51    52    47	 9 ;      HGR61     CG2R61     CG2R61     CG2R67
   72    51    52    73	 9 ;      HGR61     CG2R61     CG2R61      HGR61
   47    53    54    55	 9 ;     CG2R67     CG2R67     CG2R61     CG2R61
   47    53    54    59	 9 ;     CG2R67     CG2R67     CG2R61     CG2R53
   58    53    54    55	 9 ;     CG2R61     CG2R67     CG2R61     CG2R61
   58    53    54    59	 9 ;     CG2R61     CG2R67     CG2R61     CG2R53
   47    53    58    57	 9 ;     CG2R67     CG2R67     CG2R61     CG2R61
   47    53    58    77	 9 ;     CG2R67     CG2R67     CG2R61      HGR61
   54    53    58    57	 9 ;     CG2R61     CG2R67     CG2R61     CG2R61
   54    53    58    77	 9 ;     CG2R61     CG2R67     CG2R61      HGR61
   53    54    55    56	 9 ;     CG2R67     CG2R61     CG2R61     CG2R61
   53    54    55    74	 9 ;     CG2R67     CG2R61     CG2R61      HGR61
   59    54    55    56	 9 ;     CG2R53     CG2R61     CG2R61     CG2R61
   59    54    55    74	 9 ;     CG2R53     CG2R61     CG2R61      HGR61
   53    54    59    38	 9 ;     CG2R67     CG2R61     CG2R53     NG2R50
   53    54    59    41	 9 ;     CG2R67     CG2R61     CG2R53     NG2R50
   55    54    59    38	 9 ;     CG2R61     CG2R61     CG2R53     NG2R50
   55    54    59    41	 9 ;     CG2R61     CG2R61     CG2R53     NG2R50
   54    55    56    57	 9 ;     CG2R61     CG2R61     CG2R61     CG2R61
   54    55    56    75	 9 ;     CG2R61     CG2R61     CG2R61      HGR61
   74    55    56    57	 9 ;      HGR61     CG2R61     CG2R61     CG2R61
   74    55    56    75	 9 ;      HGR61     CG2R61     CG2R61      HGR61
   55    56    57    58	 9 ;     CG2R61     CG2R61     CG2R61     CG2R61
   55    56    57    76	 9 ;     CG2R61     CG2R61     CG2R61      HGR61
   75    56    57    58	 9 ;      HGR61     CG2R61     CG2R61     CG2R61
   75    56    57    76	 9 ;      HGR61     CG2R61     CG2R61      HGR61
   56    57    58    53	 9 ;     CG2R61     CG2R61     CG2R61     CG2R67
   56    57    58    77	 9 ;     CG2R61     CG2R61     CG2R61      HGR61
   76    57    58    53	 9 ;      HGR61     CG2R61     CG2R61     CG2R67
   76    57    58    77	 9 ;      HGR61     CG2R61     CG2R61      HGR61
   42    60    61    62	 9 ;     CG2R53      CG321      CG321      CG321
   42    60    61    81	 9 ;     CG2R53      CG321      CG321       HGA2
   42    60    61    82	 9 ;     CG2R53      CG321      CG321       HGA2
   79    60    61    62	 9 ;       HGA2      CG321      CG321      CG321
   79    60    61    81	 9 ;       HGA2      CG321      CG321       HGA2
   79    60    61    82	 9 ;       HGA2      CG321      CG321       HGA2
   80    60    61    62	 9 ;       HGA2      CG321      CG321      CG321
   80    60    61    81	 9 ;       HGA2      CG321      CG321       HGA2
   80    60    61    82	 9 ;       HGA2      CG321      CG321       HGA2
   60    61    62    63	 9 ;      CG321      CG321      CG321      CG331
   60    61    62    83	 9 ;      CG321      CG321      CG321       HGA2
   60    61    62    84	 9 ;      CG321      CG321      CG321       HGA2
   81    61    62    63	 9 ;       HGA2      CG321      CG321      CG331
   81    61    62    83	 9 ;       HGA2      CG321      CG321       HGA2
   81    61    62    84	 9 ;       HGA2      CG321      CG321       HGA2
   82    61    62    63	 9 ;       HGA2      CG321      CG321      CG331
   82    61    62    83	 9 ;       HGA2      CG321      CG321       HGA2
   82    61    62    84	 9 ;       HGA2      CG321      CG321       HGA2
   61    62    63    85	 9 ;      CG321      CG321      CG331       HGA3
   61    62    63    86	 9 ;      CG321      CG321      CG331       HGA3
   61    62    63    87	 9 ;      CG321      CG321      CG331       HGA3
   83    62    63    85	 9 ;       HGA2      CG321      CG331       HGA3
   83    62    63    86	 9 ;       HGA2      CG321      CG331       HGA3
   83    62    63    87	 9 ;       HGA2      CG321      CG331       HGA3
   84    62    63    85	 9 ;       HGA2      CG321      CG331       HGA3
   84    62    63    86	 9 ;       HGA2      CG321      CG331       HGA3
   84    62    63    87	 9 ;       HGA2      CG321      CG331       HGA3

[ virtual_sites2 ]
; Site   from				funct a
   88    65    43     2   -0.164

[ exclusions ]
;	ai	  aj
   65    88	 1
   88    43	 1
   88    36	 1
   88    44	 1
   88    37	 1
   88    42	 1
   88    45	 1

