; Created by cgenff_charmm2gmx.py

[ moleculetype ]
; Name			   nrexcl
FUD				 3

[ atoms ]
;	 nr		  type	resnr residue  atom   cgnr	   charge		mass  typeB    chargeB		massB
; residue	 1 FUD rtp FUD q	qsum
     1     NG2R61      1    FUD     N1      1     -0.361     14.007   ;
     2     NG2R61      1    FUD     N2      2     -0.364     14.007   ;
     3      CG321      1    FUD     C1      3      0.058     12.011   ;
     4     CG3C51      1    FUD     C2      4      0.139     12.011   ;
     5     CG3C51      1    FUD     C3      5      0.118     12.011   ;
     6     CG2R62      1    FUD     C4      6      0.069     12.011   ;
     7     CG2R66      1    FUD     C5      7      0.396     12.011   ;
     8     CG2R63      1    FUD     C6      8      0.256     12.011   ;
     9     CG2R63      1    FUD     C7      9      0.532     12.011   ;
    10     CG3C52      1    FUD     C8     10     -0.177     12.011   ;
    11     CG3C51      1    FUD     C9     11      0.157     12.011   ;
    12      OG301      1    FUD     O1     12     -0.412     15.999   ;
    13     OG3C51      1    FUD     O2     13     -0.451     15.999   ;
    14      OG2D4      1    FUD     O3     14     -0.480     15.999   ;
    15      OG2D4      1    FUD     O4     15     -0.424     15.999   ;
    16      OG311      1    FUD     O5     16     -0.648     15.999   ;
    17       FGR1      1    FUD      F     17     -0.149     18.998   ;
    18       HGA2      1    FUD     H1     18      0.090      1.008   ;
    19       HGA2      1    FUD     H2     19      0.090      1.008   ;
    20       HGA1      1    FUD     H3     20      0.090      1.008   ;
    21       HGA1      1    FUD     H4     21      0.090      1.008   ;
    22      HGR62      1    FUD     H5     22      0.148      1.008   ;
    23       HGP1      1    FUD     H6     23      0.357      1.008   ;
    24       HGA2      1    FUD     H7     24      0.090      1.008   ;
    25       HGA2      1    FUD     H8     25      0.090      1.008   ;
    26       HGA1      1    FUD     H9     26      0.090      1.008   ;
    27       HGP1      1    FUD    H10     27      0.420      1.008   ;
    28      CG331      1    FUL    C10     28     -0.273     12.011   ;
    29      CG321      1    FUL    C11     29     -0.177     12.011   ;
    30      CG321      1    FUL    C12     30     -0.181     12.011   ;
    31      CG321      1    FUL    C13     31     -0.179     12.011   ;
    32      CG321      1    FUL    C14     32     -0.180     12.011   ;
    33      CG321      1    FUL    C15     33     -0.180     12.011   ;
    34      CG321      1    FUL    C16     34     -0.180     12.011   ;
    35      CG321      1    FUL    C17     35     -0.180     12.011   ;
    36      CG321      1    FUL    C18     36     -0.180     12.011   ;
    37      CG321      1    FUL    C19     37     -0.180     12.011   ;
    38      CG321      1    FUL    C20     38     -0.180     12.011   ;
    39      CG321      1    FUL    C21     39     -0.180     12.011   ;
    40      CG321      1    FUL    C22     40     -0.180     12.011   ;
    41      CG321      1    FUL    C23     41     -0.180     12.011   ;
    42      CG321      1    FUL    C24     42     -0.180     12.011   ;
    43      CG321      1    FUL    C25     43     -0.180     12.011   ;
    44      CG321      1    FUL    C26     44     -0.180     12.011   ;
    45      CG321      1    FUL    C27     45      0.036     12.011   ;
    46      CG301      1    FUL    C28     46      0.370     12.011   ;
    47      CG331      1    FUL    C29     47     -0.269     12.011   ;
    48      CG331      1    FUL    C30     48     -0.269     12.011   ;
    49      OG301      1    FUL     O6     49     -0.402     15.999   ;
    50       HGA3      1    FUL    H11     50      0.090      1.008   ;
    51       HGA3      1    FUL    H12     51      0.090      1.008   ;
    52       HGA3      1    FUL    H13     52      0.090      1.008   ;
    53       HGA2      1    FUL    H14     53      0.090      1.008   ;
    54       HGA2      1    FUL    H15     54      0.090      1.008   ;
    55       HGA2      1    FUL    H16     55      0.090      1.008   ;
    56       HGA2      1    FUL    H17     56      0.090      1.008   ;
    57       HGA2      1    FUL    H18     57      0.090      1.008   ;
    58       HGA2      1    FUL    H19     58      0.090      1.008   ;
    59       HGA2      1    FUL    H20     59      0.090      1.008   ;
    60       HGA2      1    FUL    H21     60      0.090      1.008   ;
    61       HGA2      1    FUL    H22     61      0.090      1.008   ;
    62       HGA2      1    FUL    H23     62      0.090      1.008   ;
    63       HGA2      1    FUL    H24     63      0.090      1.008   ;
    64       HGA2      1    FUL    H25     64      0.090      1.008   ;
    65       HGA2      1    FUL    H26     65      0.090      1.008   ;
    66       HGA2      1    FUL    H27     66      0.090      1.008   ;
    67       HGA2      1    FUL    H28     67      0.090      1.008   ;
    68       HGA2      1    FUL    H29     68      0.090      1.008   ;
    69       HGA2      1    FUL    H30     69      0.090      1.008   ;
    70       HGA2      1    FUL    H31     70      0.090      1.008   ;
    71       HGA2      1    FUL    H32     71      0.090      1.008   ;
    72       HGA2      1    FUL    H33     72      0.090      1.008   ;
    73       HGA2      1    FUL    H34     73      0.090      1.008   ;
    74       HGA2      1    FUL    H35     74      0.090      1.008   ;
    75       HGA2      1    FUL    H36     75      0.090      1.008   ;
    76       HGA2      1    FUL    H37     76      0.090      1.008   ;
    77       HGA2      1    FUL    H38     77      0.090      1.008   ;
    78       HGA2      1    FUL    H39     78      0.090      1.008   ;
    79       HGA2      1    FUL    H40     79      0.090      1.008   ;
    80       HGA2      1    FUL    H41     80      0.090      1.008   ;
    81       HGA2      1    FUL    H42     81      0.090      1.008   ;
    82       HGA2      1    FUL    H43     82      0.090      1.008   ;
    83       HGA2      1    FUL    H44     83      0.090      1.008   ;
    84       HGA2      1    FUL    H45     84      0.090      1.008   ;
    85       HGA2      1    FUL    H46     85      0.090      1.008   ;
    86       HGA2      1    FUL    H47     86      0.090      1.008   ;
    87       HGA3      1    FUL    H48     87      0.090      1.008   ;
    88       HGA3      1    FUL    H49     88      0.090      1.008   ;
    89       HGA3      1    FUL    H50     89      0.090      1.008   ;
    90       HGA3      1    FUL    H51     90      0.090      1.008   ;
    91       HGA3      1    FUL    H52     91      0.090      1.008   ;
    92       HGA3      1    FUL    H53     92      0.090      1.008   ;

[ bonds ]
;	ai	  aj funct			  c0			c1			  c2			c3
    1     6	 1 ;      NG2R61     CG2R62
    1     9	 1 ;      NG2R61     CG2R63
    1     5	 1 ;      NG2R61     CG3C51
    2     9	 1 ;      NG2R61     CG2R63
    2    23	 1 ;      NG2R61       HGP1
    2     8	 1 ;      NG2R61     CG2R63
    3     4	 1 ;       CG321     CG3C51
    3    18	 1 ;       CG321       HGA2
    3    19	 1 ;       CG321       HGA2
    3    12	 1 ;       CG321      OG301
    4    11	 1 ;      CG3C51     CG3C51
    4    13	 1 ;      CG3C51     OG3C51
    4    20	 1 ;      CG3C51       HGA1
    5    10	 1 ;      CG3C51     CG3C52
    5    21	 1 ;      CG3C51       HGA1
    5    13	 1 ;      CG3C51     OG3C51
    6     7	 1 ;      CG2R62     CG2R66
    6    22	 1 ;      CG2R62      HGR62
    7     8	 1 ;      CG2R66     CG2R63
    7    17	 1 ;      CG2R66       FGR1
    8    14	 1 ;      CG2R63      OG2D4
    9    15	 1 ;      CG2R63      OG2D4
   10    11	 1 ;      CG3C52     CG3C51
   10    24	 1 ;      CG3C52       HGA2
   10    25	 1 ;      CG3C52       HGA2
   11    16	 1 ;      CG3C51      OG311
   11    26	 1 ;      CG3C51       HGA1
   12    46	 1 ;       OG301      CG301
   16    27	 1 ;       OG311       HGP1
   28    29	 1 ;       CG331      CG321
   28    50	 1 ;       CG331       HGA3
   28    51	 1 ;       CG331       HGA3
   28    52	 1 ;       CG331       HGA3
   29    30	 1 ;       CG321      CG321
   29    53	 1 ;       CG321       HGA2
   29    54	 1 ;       CG321       HGA2
   30    31	 1 ;       CG321      CG321
   30    55	 1 ;       CG321       HGA2
   30    56	 1 ;       CG321       HGA2
   31    32	 1 ;       CG321      CG321
   31    57	 1 ;       CG321       HGA2
   31    58	 1 ;       CG321       HGA2
   32    33	 1 ;       CG321      CG321
   32    59	 1 ;       CG321       HGA2
   32    60	 1 ;       CG321       HGA2
   33    34	 1 ;       CG321      CG321
   33    61	 1 ;       CG321       HGA2
   33    62	 1 ;       CG321       HGA2
   34    35	 1 ;       CG321      CG321
   34    63	 1 ;       CG321       HGA2
   34    64	 1 ;       CG321       HGA2
   35    36	 1 ;       CG321      CG321
   35    65	 1 ;       CG321       HGA2
   35    66	 1 ;       CG321       HGA2
   36    37	 1 ;       CG321      CG321
   36    67	 1 ;       CG321       HGA2
   36    68	 1 ;       CG321       HGA2
   37    38	 1 ;       CG321      CG321
   37    69	 1 ;       CG321       HGA2
   37    70	 1 ;       CG321       HGA2
   38    39	 1 ;       CG321      CG321
   38    71	 1 ;       CG321       HGA2
   38    72	 1 ;       CG321       HGA2
   39    40	 1 ;       CG321      CG321
   39    73	 1 ;       CG321       HGA2
   39    74	 1 ;       CG321       HGA2
   40    41	 1 ;       CG321      CG321
   40    75	 1 ;       CG321       HGA2
   40    76	 1 ;       CG321       HGA2
   41    42	 1 ;       CG321      CG321
   41    77	 1 ;       CG321       HGA2
   41    78	 1 ;       CG321       HGA2
   42    43	 1 ;       CG321      CG321
   42    79	 1 ;       CG321       HGA2
   42    80	 1 ;       CG321       HGA2
   43    44	 1 ;       CG321      CG321
   43    81	 1 ;       CG321       HGA2
   43    82	 1 ;       CG321       HGA2
   44    45	 1 ;       CG321      CG321
   44    83	 1 ;       CG321       HGA2
   44    84	 1 ;       CG321       HGA2
   45    49	 1 ;       CG321      OG301
   45    85	 1 ;       CG321       HGA2
   45    86	 1 ;       CG321       HGA2
   46    47	 1 ;       CG301      CG331
   46    48	 1 ;       CG301      CG331
   46    49	 1 ;       CG301      OG301
   47    87	 1 ;       CG331       HGA3
   47    88	 1 ;       CG331       HGA3
   47    89	 1 ;       CG331       HGA3
   48    90	 1 ;       CG331       HGA3
   48    91	 1 ;       CG331       HGA3
   48    92	 1 ;       CG331       HGA3

[ pairs ]
;	ai	  aj funct			  c0			c1			  c2			c3
    1    23	 1
    1     8	 1
    1    11	 1
    1    24	 1
    1    25	 1
    1     4	 1
    1    17	 1
    2     6	 1
    2     5	 1
    2    17	 1
    3    10	 1
    3    16	 1
    3    26	 1
    3     5	 1
    3    47	 1
    3    48	 1
    3    49	 1
    4    46	 1
    4    21	 1
    4    24	 1
    4    25	 1
    4    27	 1
    5     7	 1
    5    22	 1
    5    15	 1
    5    20	 1
    5    16	 1
    5    26	 1
    6    15	 1
    6    10	 1
    6    21	 1
    6    13	 1
    6    14	 1
    7     9	 1
    7    23	 1
    8    15	 1
    8    22	 1
    9    22	 1
    9    10	 1
    9    21	 1
    9    13	 1
    9    14	 1
   10    20	 1
   10    27	 1
   11    18	 1
   11    19	 1
   11    12	 1
   11    21	 1
   12    13	 1
   12    20	 1
   12    87	 1
   12    88	 1
   12    89	 1
   12    90	 1
   12    91	 1
   12    92	 1
   12    45	 1
   13    18	 1
   13    19	 1
   13    16	 1
   13    26	 1
   13    24	 1
   13    25	 1
   14    23	 1
   14    17	 1
   15    23	 1
   16    20	 1
   16    24	 1
   16    25	 1
   17    22	 1
   18    20	 1
   18    46	 1
   19    20	 1
   19    46	 1
   20    26	 1
   21    24	 1
   21    25	 1
   24    26	 1
   25    26	 1
   26    27	 1
   28    31	 1
   28    55	 1
   28    56	 1
   29    32	 1
   29    57	 1
   29    58	 1
   30    50	 1
   30    51	 1
   30    52	 1
   30    33	 1
   30    59	 1
   30    60	 1
   31    53	 1
   31    54	 1
   31    34	 1
   31    61	 1
   31    62	 1
   32    55	 1
   32    56	 1
   32    35	 1
   32    63	 1
   32    64	 1
   33    57	 1
   33    58	 1
   33    36	 1
   33    65	 1
   33    66	 1
   34    59	 1
   34    60	 1
   34    37	 1
   34    67	 1
   34    68	 1
   35    61	 1
   35    62	 1
   35    38	 1
   35    69	 1
   35    70	 1
   36    63	 1
   36    64	 1
   36    39	 1
   36    71	 1
   36    72	 1
   37    65	 1
   37    66	 1
   37    40	 1
   37    73	 1
   37    74	 1
   38    67	 1
   38    68	 1
   38    41	 1
   38    75	 1
   38    76	 1
   39    69	 1
   39    70	 1
   39    42	 1
   39    77	 1
   39    78	 1
   40    71	 1
   40    72	 1
   40    43	 1
   40    79	 1
   40    80	 1
   41    73	 1
   41    74	 1
   41    44	 1
   41    81	 1
   41    82	 1
   42    75	 1
   42    76	 1
   42    45	 1
   42    83	 1
   42    84	 1
   43    77	 1
   43    78	 1
   43    49	 1
   43    85	 1
   43    86	 1
   44    79	 1
   44    80	 1
   44    46	 1
   45    81	 1
   45    82	 1
   45    47	 1
   45    48	 1
   46    85	 1
   46    86	 1
   47    90	 1
   47    91	 1
   47    92	 1
   48    87	 1
   48    88	 1
   48    89	 1
   49    83	 1
   49    84	 1
   49    87	 1
   49    88	 1
   49    89	 1
   49    90	 1
   49    91	 1
   49    92	 1
   50    53	 1
   50    54	 1
   51    53	 1
   51    54	 1
   52    53	 1
   52    54	 1
   53    55	 1
   53    56	 1
   54    55	 1
   54    56	 1
   55    57	 1
   55    58	 1
   56    57	 1
   56    58	 1
   57    59	 1
   57    60	 1
   58    59	 1
   58    60	 1
   59    61	 1
   59    62	 1
   60    61	 1
   60    62	 1
   61    63	 1
   61    64	 1
   62    63	 1
   62    64	 1
   63    65	 1
   63    66	 1
   64    65	 1
   64    66	 1
   65    67	 1
   65    68	 1
   66    67	 1
   66    68	 1
   67    69	 1
   67    70	 1
   68    69	 1
   68    70	 1
   69    71	 1
   69    72	 1
   70    71	 1
   70    72	 1
   71    73	 1
   71    74	 1
   72    73	 1
   72    74	 1
   73    75	 1
   73    76	 1
   74    75	 1
   74    76	 1
   75    77	 1
   75    78	 1
   76    77	 1
   76    78	 1
   77    79	 1
   77    80	 1
   78    79	 1
   78    80	 1
   79    81	 1
   79    82	 1
   80    81	 1
   80    82	 1
   81    83	 1
   81    84	 1
   82    83	 1
   82    84	 1
   83    85	 1
   83    86	 1
   84    85	 1
   84    86	 1

[ angles ]
;	ai	  aj	ak funct			c0			  c1			c2			  c3
    6     1     9	5 ;     CG2R62     NG2R61     CG2R63
    6     1     5	5 ;     CG2R62     NG2R61     CG3C51
    9     1     5	5 ;     CG2R63     NG2R61     CG3C51
    9     2    23	5 ;     CG2R63     NG2R61       HGP1
    9     2     8	5 ;     CG2R63     NG2R61     CG2R63
   23     2     8	5 ;       HGP1     NG2R61     CG2R63
    4     3    18	5 ;     CG3C51      CG321       HGA2
    4     3    19	5 ;     CG3C51      CG321       HGA2
    4     3    12	5 ;     CG3C51      CG321      OG301
   18     3    19	5 ;       HGA2      CG321       HGA2
   18     3    12	5 ;       HGA2      CG321      OG301
   19     3    12	5 ;       HGA2      CG321      OG301
    3     4    11	5 ;      CG321     CG3C51     CG3C51
    3     4    13	5 ;      CG321     CG3C51     OG3C51
    3     4    20	5 ;      CG321     CG3C51       HGA1
   11     4    13	5 ;     CG3C51     CG3C51     OG3C51
   11     4    20	5 ;     CG3C51     CG3C51       HGA1
   13     4    20	5 ;     OG3C51     CG3C51       HGA1
    1     5    10	5 ;     NG2R61     CG3C51     CG3C52
    1     5    21	5 ;     NG2R61     CG3C51       HGA1
    1     5    13	5 ;     NG2R61     CG3C51     OG3C51
   10     5    21	5 ;     CG3C52     CG3C51       HGA1
   10     5    13	5 ;     CG3C52     CG3C51     OG3C51
   21     5    13	5 ;       HGA1     CG3C51     OG3C51
    1     6     7	5 ;     NG2R61     CG2R62     CG2R66
    1     6    22	5 ;     NG2R61     CG2R62      HGR62
    7     6    22	5 ;     CG2R66     CG2R62      HGR62
    6     7     8	5 ;     CG2R62     CG2R66     CG2R63
    6     7    17	5 ;     CG2R62     CG2R66       FGR1
    8     7    17	5 ;     CG2R63     CG2R66       FGR1
    7     8     2	5 ;     CG2R66     CG2R63     NG2R61
    7     8    14	5 ;     CG2R66     CG2R63      OG2D4
    2     8    14	5 ;     NG2R61     CG2R63      OG2D4
    1     9     2	5 ;     NG2R61     CG2R63     NG2R61
    1     9    15	5 ;     NG2R61     CG2R63      OG2D4
    2     9    15	5 ;     NG2R61     CG2R63      OG2D4
    5    10    11	5 ;     CG3C51     CG3C52     CG3C51
    5    10    24	5 ;     CG3C51     CG3C52       HGA2
    5    10    25	5 ;     CG3C51     CG3C52       HGA2
   11    10    24	5 ;     CG3C51     CG3C52       HGA2
   11    10    25	5 ;     CG3C51     CG3C52       HGA2
   24    10    25	5 ;       HGA2     CG3C52       HGA2
    4    11    10	5 ;     CG3C51     CG3C51     CG3C52
    4    11    16	5 ;     CG3C51     CG3C51      OG311
    4    11    26	5 ;     CG3C51     CG3C51       HGA1
   10    11    16	5 ;     CG3C52     CG3C51      OG311
   10    11    26	5 ;     CG3C52     CG3C51       HGA1
   16    11    26	5 ;      OG311     CG3C51       HGA1
    3    12    46	5 ;      CG321      OG301      CG301
    4    13     5	5 ;     CG3C51     OG3C51     CG3C51
   11    16    27	5 ;     CG3C51      OG311       HGP1
   29    28    50	5 ;      CG321      CG331       HGA3
   29    28    51	5 ;      CG321      CG331       HGA3
   29    28    52	5 ;      CG321      CG331       HGA3
   50    28    51	5 ;       HGA3      CG331       HGA3
   50    28    52	5 ;       HGA3      CG331       HGA3
   51    28    52	5 ;       HGA3      CG331       HGA3
   28    29    30	5 ;      CG331      CG321      CG321
   28    29    53	5 ;      CG331      CG321       HGA2
   28    29    54	5 ;      CG331      CG321       HGA2
   30    29    53	5 ;      CG321      CG321       HGA2
   30    29    54	5 ;      CG321      CG321       HGA2
   53    29    54	5 ;       HGA2      CG321       HGA2
   29    30    31	5 ;      CG321      CG321      CG321
   29    30    55	5 ;      CG321      CG321       HGA2
   29    30    56	5 ;      CG321      CG321       HGA2
   31    30    55	5 ;      CG321      CG321       HGA2
   31    30    56	5 ;      CG321      CG321       HGA2
   55    30    56	5 ;       HGA2      CG321       HGA2
   30    31    32	5 ;      CG321      CG321      CG321
   30    31    57	5 ;      CG321      CG321       HGA2
   30    31    58	5 ;      CG321      CG321       HGA2
   32    31    57	5 ;      CG321      CG321       HGA2
   32    31    58	5 ;      CG321      CG321       HGA2
   57    31    58	5 ;       HGA2      CG321       HGA2
   31    32    33	5 ;      CG321      CG321      CG321
   31    32    59	5 ;      CG321      CG321       HGA2
   31    32    60	5 ;      CG321      CG321       HGA2
   33    32    59	5 ;      CG321      CG321       HGA2
   33    32    60	5 ;      CG321      CG321       HGA2
   59    32    60	5 ;       HGA2      CG321       HGA2
   32    33    34	5 ;      CG321      CG321      CG321
   32    33    61	5 ;      CG321      CG321       HGA2
   32    33    62	5 ;      CG321      CG321       HGA2
   34    33    61	5 ;      CG321      CG321       HGA2
   34    33    62	5 ;      CG321      CG321       HGA2
   61    33    62	5 ;       HGA2      CG321       HGA2
   33    34    35	5 ;      CG321      CG321      CG321
   33    34    63	5 ;      CG321      CG321       HGA2
   33    34    64	5 ;      CG321      CG321       HGA2
   35    34    63	5 ;      CG321      CG321       HGA2
   35    34    64	5 ;      CG321      CG321       HGA2
   63    34    64	5 ;       HGA2      CG321       HGA2
   34    35    36	5 ;      CG321      CG321      CG321
   34    35    65	5 ;      CG321      CG321       HGA2
   34    35    66	5 ;      CG321      CG321       HGA2
   36    35    65	5 ;      CG321      CG321       HGA2
   36    35    66	5 ;      CG321      CG321       HGA2
   65    35    66	5 ;       HGA2      CG321       HGA2
   35    36    37	5 ;      CG321      CG321      CG321
   35    36    67	5 ;      CG321      CG321       HGA2
   35    36    68	5 ;      CG321      CG321       HGA2
   37    36    67	5 ;      CG321      CG321       HGA2
   37    36    68	5 ;      CG321      CG321       HGA2
   67    36    68	5 ;       HGA2      CG321       HGA2
   36    37    38	5 ;      CG321      CG321      CG321
   36    37    69	5 ;      CG321      CG321       HGA2
   36    37    70	5 ;      CG321      CG321       HGA2
   38    37    69	5 ;      CG321      CG321       HGA2
   38    37    70	5 ;      CG321      CG321       HGA2
   69    37    70	5 ;       HGA2      CG321       HGA2
   37    38    39	5 ;      CG321      CG321      CG321
   37    38    71	5 ;      CG321      CG321       HGA2
   37    38    72	5 ;      CG321      CG321       HGA2
   39    38    71	5 ;      CG321      CG321       HGA2
   39    38    72	5 ;      CG321      CG321       HGA2
   71    38    72	5 ;       HGA2      CG321       HGA2
   38    39    40	5 ;      CG321      CG321      CG321
   38    39    73	5 ;      CG321      CG321       HGA2
   38    39    74	5 ;      CG321      CG321       HGA2
   40    39    73	5 ;      CG321      CG321       HGA2
   40    39    74	5 ;      CG321      CG321       HGA2
   73    39    74	5 ;       HGA2      CG321       HGA2
   39    40    41	5 ;      CG321      CG321      CG321
   39    40    75	5 ;      CG321      CG321       HGA2
   39    40    76	5 ;      CG321      CG321       HGA2
   41    40    75	5 ;      CG321      CG321       HGA2
   41    40    76	5 ;      CG321      CG321       HGA2
   75    40    76	5 ;       HGA2      CG321       HGA2
   40    41    42	5 ;      CG321      CG321      CG321
   40    41    77	5 ;      CG321      CG321       HGA2
   40    41    78	5 ;      CG321      CG321       HGA2
   42    41    77	5 ;      CG321      CG321       HGA2
   42    41    78	5 ;      CG321      CG321       HGA2
   77    41    78	5 ;       HGA2      CG321       HGA2
   41    42    43	5 ;      CG321      CG321      CG321
   41    42    79	5 ;      CG321      CG321       HGA2
   41    42    80	5 ;      CG321      CG321       HGA2
   43    42    79	5 ;      CG321      CG321       HGA2
   43    42    80	5 ;      CG321      CG321       HGA2
   79    42    80	5 ;       HGA2      CG321       HGA2
   42    43    44	5 ;      CG321      CG321      CG321
   42    43    81	5 ;      CG321      CG321       HGA2
   42    43    82	5 ;      CG321      CG321       HGA2
   44    43    81	5 ;      CG321      CG321       HGA2
   44    43    82	5 ;      CG321      CG321       HGA2
   81    43    82	5 ;       HGA2      CG321       HGA2
   43    44    45	5 ;      CG321      CG321      CG321
   43    44    83	5 ;      CG321      CG321       HGA2
   43    44    84	5 ;      CG321      CG321       HGA2
   45    44    83	5 ;      CG321      CG321       HGA2
   45    44    84	5 ;      CG321      CG321       HGA2
   83    44    84	5 ;       HGA2      CG321       HGA2
   44    45    49	5 ;      CG321      CG321      OG301
   44    45    85	5 ;      CG321      CG321       HGA2
   44    45    86	5 ;      CG321      CG321       HGA2
   49    45    85	5 ;      OG301      CG321       HGA2
   49    45    86	5 ;      OG301      CG321       HGA2
   85    45    86	5 ;       HGA2      CG321       HGA2
   12    46    47	5 ;      OG301      CG301      CG331
   12    46    48	5 ;      OG301      CG301      CG331
   12    46    49	5 ;      OG301      CG301      OG301
   47    46    48	5 ;      CG331      CG301      CG331
   47    46    49	5 ;      CG331      CG301      OG301
   48    46    49	5 ;      CG331      CG301      OG301
   46    47    87	5 ;      CG301      CG331       HGA3
   46    47    88	5 ;      CG301      CG331       HGA3
   46    47    89	5 ;      CG301      CG331       HGA3
   87    47    88	5 ;       HGA3      CG331       HGA3
   87    47    89	5 ;       HGA3      CG331       HGA3
   88    47    89	5 ;       HGA3      CG331       HGA3
   46    48    90	5 ;      CG301      CG331       HGA3
   46    48    91	5 ;      CG301      CG331       HGA3
   46    48    92	5 ;      CG301      CG331       HGA3
   90    48    91	5 ;       HGA3      CG331       HGA3
   90    48    92	5 ;       HGA3      CG331       HGA3
   91    48    92	5 ;       HGA3      CG331       HGA3
   45    49    46	5 ;      CG321      OG301      CG301

[ dihedrals ]
;	ai	  aj	ak	  al funct			  c0			c1			  c2			c3			  c4			c5
    9     1     6     7	 9 ;     CG2R63     NG2R61     CG2R62     CG2R66
    9     1     6    22	 9 ;     CG2R63     NG2R61     CG2R62      HGR62
    5     1     6     7	 9 ;     CG3C51     NG2R61     CG2R62     CG2R66
    5     1     6    22	 9 ;     CG3C51     NG2R61     CG2R62      HGR62
    6     1     9     2	 9 ;     CG2R62     NG2R61     CG2R63     NG2R61
    6     1     9    15	 9 ;     CG2R62     NG2R61     CG2R63      OG2D4
    5     1     9     2	 9 ;     CG3C51     NG2R61     CG2R63     NG2R61
    5     1     9    15	 9 ;     CG3C51     NG2R61     CG2R63      OG2D4
    6     1     5    10	 9 ;     CG2R62     NG2R61     CG3C51     CG3C52
    6     1     5    21	 9 ;     CG2R62     NG2R61     CG3C51       HGA1
    6     1     5    13	 9 ;     CG2R62     NG2R61     CG3C51     OG3C51
    9     1     5    10	 9 ;     CG2R63     NG2R61     CG3C51     CG3C52
    9     1     5    21	 9 ;     CG2R63     NG2R61     CG3C51       HGA1
    9     1     5    13	 9 ;     CG2R63     NG2R61     CG3C51     OG3C51
   23     2     9     1	 9 ;       HGP1     NG2R61     CG2R63     NG2R61
   23     2     9    15	 9 ;       HGP1     NG2R61     CG2R63      OG2D4
    8     2     9     1	 9 ;     CG2R63     NG2R61     CG2R63     NG2R61
    8     2     9    15	 9 ;     CG2R63     NG2R61     CG2R63      OG2D4
    9     2     8     7	 9 ;     CG2R63     NG2R61     CG2R63     CG2R66
    9     2     8    14	 9 ;     CG2R63     NG2R61     CG2R63      OG2D4
   23     2     8     7	 9 ;       HGP1     NG2R61     CG2R63     CG2R66
   23     2     8    14	 9 ;       HGP1     NG2R61     CG2R63      OG2D4
   18     3     4    11	 9 ;       HGA2      CG321     CG3C51     CG3C51
   18     3     4    13	 9 ;       HGA2      CG321     CG3C51     OG3C51
   18     3     4    20	 9 ;       HGA2      CG321     CG3C51       HGA1
   19     3     4    11	 9 ;       HGA2      CG321     CG3C51     CG3C51
   19     3     4    13	 9 ;       HGA2      CG321     CG3C51     OG3C51
   19     3     4    20	 9 ;       HGA2      CG321     CG3C51       HGA1
   12     3     4    11	 9 ;      OG301      CG321     CG3C51     CG3C51
   12     3     4    13	 9 ;      OG301      CG321     CG3C51     OG3C51
   12     3     4    20	 9 ;      OG301      CG321     CG3C51       HGA1
    4     3    12    46	 9 ;     CG3C51      CG321      OG301      CG301
   18     3    12    46	 9 ;       HGA2      CG321      OG301      CG301
   19     3    12    46	 9 ;       HGA2      CG321      OG301      CG301
    3     4    11    10	 9 ;      CG321     CG3C51     CG3C51     CG3C52
    3     4    11    16	 9 ;      CG321     CG3C51     CG3C51      OG311
    3     4    11    26	 9 ;      CG321     CG3C51     CG3C51       HGA1
   13     4    11    10	 9 ;     OG3C51     CG3C51     CG3C51     CG3C52
   13     4    11    16	 9 ;     OG3C51     CG3C51     CG3C51      OG311
   13     4    11    26	 9 ;     OG3C51     CG3C51     CG3C51       HGA1
   20     4    11    10	 9 ;       HGA1     CG3C51     CG3C51     CG3C52
   20     4    11    16	 9 ;       HGA1     CG3C51     CG3C51      OG311
   20     4    11    26	 9 ;       HGA1     CG3C51     CG3C51       HGA1
    3     4    13     5	 9 ;      CG321     CG3C51     OG3C51     CG3C51
   11     4    13     5	 9 ;     CG3C51     CG3C51     OG3C51     CG3C51
   20     4    13     5	 9 ;       HGA1     CG3C51     OG3C51     CG3C51
    1     5    10    11	 9 ;     NG2R61     CG3C51     CG3C52     CG3C51
    1     5    10    24	 9 ;     NG2R61     CG3C51     CG3C52       HGA2
    1     5    10    25	 9 ;     NG2R61     CG3C51     CG3C52       HGA2
   21     5    10    11	 9 ;       HGA1     CG3C51     CG3C52     CG3C51
   21     5    10    24	 9 ;       HGA1     CG3C51     CG3C52       HGA2
   21     5    10    25	 9 ;       HGA1     CG3C51     CG3C52       HGA2
   13     5    10    11	 9 ;     OG3C51     CG3C51     CG3C52     CG3C51
   13     5    10    24	 9 ;     OG3C51     CG3C51     CG3C52       HGA2
   13     5    10    25	 9 ;     OG3C51     CG3C51     CG3C52       HGA2
    1     5    13     4	 9 ;     NG2R61     CG3C51     OG3C51     CG3C51
   10     5    13     4	 9 ;     CG3C52     CG3C51     OG3C51     CG3C51
   21     5    13     4	 9 ;       HGA1     CG3C51     OG3C51     CG3C51
    1     6     7     8	 9 ;     NG2R61     CG2R62     CG2R66     CG2R63
    1     6     7    17	 9 ;     NG2R61     CG2R62     CG2R66       FGR1
   22     6     7     8	 9 ;      HGR62     CG2R62     CG2R66     CG2R63
   22     6     7    17	 9 ;      HGR62     CG2R62     CG2R66       FGR1
    6     7     8     2	 9 ;     CG2R62     CG2R66     CG2R63     NG2R61
    6     7     8    14	 9 ;     CG2R62     CG2R66     CG2R63      OG2D4
   17     7     8     2	 9 ;       FGR1     CG2R66     CG2R63     NG2R61
   17     7     8    14	 9 ;       FGR1     CG2R66     CG2R63      OG2D4
    5    10    11     4	 9 ;     CG3C51     CG3C52     CG3C51     CG3C51
    5    10    11    16	 9 ;     CG3C51     CG3C52     CG3C51      OG311
    5    10    11    26	 9 ;     CG3C51     CG3C52     CG3C51       HGA1
   24    10    11     4	 9 ;       HGA2     CG3C52     CG3C51     CG3C51
   24    10    11    16	 9 ;       HGA2     CG3C52     CG3C51      OG311
   24    10    11    26	 9 ;       HGA2     CG3C52     CG3C51       HGA1
   25    10    11     4	 9 ;       HGA2     CG3C52     CG3C51     CG3C51
   25    10    11    16	 9 ;       HGA2     CG3C52     CG3C51      OG311
   25    10    11    26	 9 ;       HGA2     CG3C52     CG3C51       HGA1
    4    11    16    27	 9 ;     CG3C51     CG3C51      OG311       HGP1
   10    11    16    27	 9 ;     CG3C52     CG3C51      OG311       HGP1
   26    11    16    27	 9 ;       HGA1     CG3C51      OG311       HGP1
    3    12    46    47	 9 ;      CG321      OG301      CG301      CG331
    3    12    46    48	 9 ;      CG321      OG301      CG301      CG331
    3    12    46    49	 9 ;      CG321      OG301      CG301      OG301
   50    28    29    30	 9 ;       HGA3      CG331      CG321      CG321
   50    28    29    53	 9 ;       HGA3      CG331      CG321       HGA2
   50    28    29    54	 9 ;       HGA3      CG331      CG321       HGA2
   51    28    29    30	 9 ;       HGA3      CG331      CG321      CG321
   51    28    29    53	 9 ;       HGA3      CG331      CG321       HGA2
   51    28    29    54	 9 ;       HGA3      CG331      CG321       HGA2
   52    28    29    30	 9 ;       HGA3      CG331      CG321      CG321
   52    28    29    53	 9 ;       HGA3      CG331      CG321       HGA2
   52    28    29    54	 9 ;       HGA3      CG331      CG321       HGA2
   28    29    30    31	 9 ;      CG331      CG321      CG321      CG321
   28    29    30    55	 9 ;      CG331      CG321      CG321       HGA2
   28    29    30    56	 9 ;      CG331      CG321      CG321       HGA2
   53    29    30    31	 9 ;       HGA2      CG321      CG321      CG321
   53    29    30    55	 9 ;       HGA2      CG321      CG321       HGA2
   53    29    30    56	 9 ;       HGA2      CG321      CG321       HGA2
   54    29    30    31	 9 ;       HGA2      CG321      CG321      CG321
   54    29    30    55	 9 ;       HGA2      CG321      CG321       HGA2
   54    29    30    56	 9 ;       HGA2      CG321      CG321       HGA2
   29    30    31    32	 9 ;      CG321      CG321      CG321      CG321
   29    30    31    57	 9 ;      CG321      CG321      CG321       HGA2
   29    30    31    58	 9 ;      CG321      CG321      CG321       HGA2
   55    30    31    32	 9 ;       HGA2      CG321      CG321      CG321
   55    30    31    57	 9 ;       HGA2      CG321      CG321       HGA2
   55    30    31    58	 9 ;       HGA2      CG321      CG321       HGA2
   56    30    31    32	 9 ;       HGA2      CG321      CG321      CG321
   56    30    31    57	 9 ;       HGA2      CG321      CG321       HGA2
   56    30    31    58	 9 ;       HGA2      CG321      CG321       HGA2
   30    31    32    33	 9 ;      CG321      CG321      CG321      CG321
   30    31    32    59	 9 ;      CG321      CG321      CG321       HGA2
   30    31    32    60	 9 ;      CG321      CG321      CG321       HGA2
   57    31    32    33	 9 ;       HGA2      CG321      CG321      CG321
   57    31    32    59	 9 ;       HGA2      CG321      CG321       HGA2
   57    31    32    60	 9 ;       HGA2      CG321      CG321       HGA2
   58    31    32    33	 9 ;       HGA2      CG321      CG321      CG321
   58    31    32    59	 9 ;       HGA2      CG321      CG321       HGA2
   58    31    32    60	 9 ;       HGA2      CG321      CG321       HGA2
   31    32    33    34	 9 ;      CG321      CG321      CG321      CG321
   31    32    33    61	 9 ;      CG321      CG321      CG321       HGA2
   31    32    33    62	 9 ;      CG321      CG321      CG321       HGA2
   59    32    33    34	 9 ;       HGA2      CG321      CG321      CG321
   59    32    33    61	 9 ;       HGA2      CG321      CG321       HGA2
   59    32    33    62	 9 ;       HGA2      CG321      CG321       HGA2
   60    32    33    34	 9 ;       HGA2      CG321      CG321      CG321
   60    32    33    61	 9 ;       HGA2      CG321      CG321       HGA2
   60    32    33    62	 9 ;       HGA2      CG321      CG321       HGA2
   32    33    34    35	 9 ;      CG321      CG321      CG321      CG321
   32    33    34    63	 9 ;      CG321      CG321      CG321       HGA2
   32    33    34    64	 9 ;      CG321      CG321      CG321       HGA2
   61    33    34    35	 9 ;       HGA2      CG321      CG321      CG321
   61    33    34    63	 9 ;       HGA2      CG321      CG321       HGA2
   61    33    34    64	 9 ;       HGA2      CG321      CG321       HGA2
   62    33    34    35	 9 ;       HGA2      CG321      CG321      CG321
   62    33    34    63	 9 ;       HGA2      CG321      CG321       HGA2
   62    33    34    64	 9 ;       HGA2      CG321      CG321       HGA2
   33    34    35    36	 9 ;      CG321      CG321      CG321      CG321
   33    34    35    65	 9 ;      CG321      CG321      CG321       HGA2
   33    34    35    66	 9 ;      CG321      CG321      CG321       HGA2
   63    34    35    36	 9 ;       HGA2      CG321      CG321      CG321
   63    34    35    65	 9 ;       HGA2      CG321      CG321       HGA2
   63    34    35    66	 9 ;       HGA2      CG321      CG321       HGA2
   64    34    35    36	 9 ;       HGA2      CG321      CG321      CG321
   64    34    35    65	 9 ;       HGA2      CG321      CG321       HGA2
   64    34    35    66	 9 ;       HGA2      CG321      CG321       HGA2
   34    35    36    37	 9 ;      CG321      CG321      CG321      CG321
   34    35    36    67	 9 ;      CG321      CG321      CG321       HGA2
   34    35    36    68	 9 ;      CG321      CG321      CG321       HGA2
   65    35    36    37	 9 ;       HGA2      CG321      CG321      CG321
   65    35    36    67	 9 ;       HGA2      CG321      CG321       HGA2
   65    35    36    68	 9 ;       HGA2      CG321      CG321       HGA2
   66    35    36    37	 9 ;       HGA2      CG321      CG321      CG321
   66    35    36    67	 9 ;       HGA2      CG321      CG321       HGA2
   66    35    36    68	 9 ;       HGA2      CG321      CG321       HGA2
   35    36    37    38	 9 ;      CG321      CG321      CG321      CG321
   35    36    37    69	 9 ;      CG321      CG321      CG321       HGA2
   35    36    37    70	 9 ;      CG321      CG321      CG321       HGA2
   67    36    37    38	 9 ;       HGA2      CG321      CG321      CG321
   67    36    37    69	 9 ;       HGA2      CG321      CG321       HGA2
   67    36    37    70	 9 ;       HGA2      CG321      CG321       HGA2
   68    36    37    38	 9 ;       HGA2      CG321      CG321      CG321
   68    36    37    69	 9 ;       HGA2      CG321      CG321       HGA2
   68    36    37    70	 9 ;       HGA2      CG321      CG321       HGA2
   36    37    38    39	 9 ;      CG321      CG321      CG321      CG321
   36    37    38    71	 9 ;      CG321      CG321      CG321       HGA2
   36    37    38    72	 9 ;      CG321      CG321      CG321       HGA2
   69    37    38    39	 9 ;       HGA2      CG321      CG321      CG321
   69    37    38    71	 9 ;       HGA2      CG321      CG321       HGA2
   69    37    38    72	 9 ;       HGA2      CG321      CG321       HGA2
   70    37    38    39	 9 ;       HGA2      CG321      CG321      CG321
   70    37    38    71	 9 ;       HGA2      CG321      CG321       HGA2
   70    37    38    72	 9 ;       HGA2      CG321      CG321       HGA2
   37    38    39    40	 9 ;      CG321      CG321      CG321      CG321
   37    38    39    73	 9 ;      CG321      CG321      CG321       HGA2
   37    38    39    74	 9 ;      CG321      CG321      CG321       HGA2
   71    38    39    40	 9 ;       HGA2      CG321      CG321      CG321
   71    38    39    73	 9 ;       HGA2      CG321      CG321       HGA2
   71    38    39    74	 9 ;       HGA2      CG321      CG321       HGA2
   72    38    39    40	 9 ;       HGA2      CG321      CG321      CG321
   72    38    39    73	 9 ;       HGA2      CG321      CG321       HGA2
   72    38    39    74	 9 ;       HGA2      CG321      CG321       HGA2
   38    39    40    41	 9 ;      CG321      CG321      CG321      CG321
   38    39    40    75	 9 ;      CG321      CG321      CG321       HGA2
   38    39    40    76	 9 ;      CG321      CG321      CG321       HGA2
   73    39    40    41	 9 ;       HGA2      CG321      CG321      CG321
   73    39    40    75	 9 ;       HGA2      CG321      CG321       HGA2
   73    39    40    76	 9 ;       HGA2      CG321      CG321       HGA2
   74    39    40    41	 9 ;       HGA2      CG321      CG321      CG321
   74    39    40    75	 9 ;       HGA2      CG321      CG321       HGA2
   74    39    40    76	 9 ;       HGA2      CG321      CG321       HGA2
   39    40    41    42	 9 ;      CG321      CG321      CG321      CG321
   39    40    41    77	 9 ;      CG321      CG321      CG321       HGA2
   39    40    41    78	 9 ;      CG321      CG321      CG321       HGA2
   75    40    41    42	 9 ;       HGA2      CG321      CG321      CG321
   75    40    41    77	 9 ;       HGA2      CG321      CG321       HGA2
   75    40    41    78	 9 ;       HGA2      CG321      CG321       HGA2
   76    40    41    42	 9 ;       HGA2      CG321      CG321      CG321
   76    40    41    77	 9 ;       HGA2      CG321      CG321       HGA2
   76    40    41    78	 9 ;       HGA2      CG321      CG321       HGA2
   40    41    42    43	 9 ;      CG321      CG321      CG321      CG321
   40    41    42    79	 9 ;      CG321      CG321      CG321       HGA2
   40    41    42    80	 9 ;      CG321      CG321      CG321       HGA2
   77    41    42    43	 9 ;       HGA2      CG321      CG321      CG321
   77    41    42    79	 9 ;       HGA2      CG321      CG321       HGA2
   77    41    42    80	 9 ;       HGA2      CG321      CG321       HGA2
   78    41    42    43	 9 ;       HGA2      CG321      CG321      CG321
   78    41    42    79	 9 ;       HGA2      CG321      CG321       HGA2
   78    41    42    80	 9 ;       HGA2      CG321      CG321       HGA2
   41    42    43    44	 9 ;      CG321      CG321      CG321      CG321
   41    42    43    81	 9 ;      CG321      CG321      CG321       HGA2
   41    42    43    82	 9 ;      CG321      CG321      CG321       HGA2
   79    42    43    44	 9 ;       HGA2      CG321      CG321      CG321
   79    42    43    81	 9 ;       HGA2      CG321      CG321       HGA2
   79    42    43    82	 9 ;       HGA2      CG321      CG321       HGA2
   80    42    43    44	 9 ;       HGA2      CG321      CG321      CG321
   80    42    43    81	 9 ;       HGA2      CG321      CG321       HGA2
   80    42    43    82	 9 ;       HGA2      CG321      CG321       HGA2
   42    43    44    45	 9 ;      CG321      CG321      CG321      CG321
   42    43    44    83	 9 ;      CG321      CG321      CG321       HGA2
   42    43    44    84	 9 ;      CG321      CG321      CG321       HGA2
   81    43    44    45	 9 ;       HGA2      CG321      CG321      CG321
   81    43    44    83	 9 ;       HGA2      CG321      CG321       HGA2
   81    43    44    84	 9 ;       HGA2      CG321      CG321       HGA2
   82    43    44    45	 9 ;       HGA2      CG321      CG321      CG321
   82    43    44    83	 9 ;       HGA2      CG321      CG321       HGA2
   82    43    44    84	 9 ;       HGA2      CG321      CG321       HGA2
   43    44    45    49	 9 ;      CG321      CG321      CG321      OG301
   43    44    45    85	 9 ;      CG321      CG321      CG321       HGA2
   43    44    45    86	 9 ;      CG321      CG321      CG321       HGA2
   83    44    45    49	 9 ;       HGA2      CG321      CG321      OG301
   83    44    45    85	 9 ;       HGA2      CG321      CG321       HGA2
   83    44    45    86	 9 ;       HGA2      CG321      CG321       HGA2
   84    44    45    49	 9 ;       HGA2      CG321      CG321      OG301
   84    44    45    85	 9 ;       HGA2      CG321      CG321       HGA2
   84    44    45    86	 9 ;       HGA2      CG321      CG321       HGA2
   44    45    49    46	 9 ;      CG321      CG321      OG301      CG301
   85    45    49    46	 9 ;       HGA2      CG321      OG301      CG301
   86    45    49    46	 9 ;       HGA2      CG321      OG301      CG301
   12    46    47    87	 9 ;      OG301      CG301      CG331       HGA3
   12    46    47    88	 9 ;      OG301      CG301      CG331       HGA3
   12    46    47    89	 9 ;      OG301      CG301      CG331       HGA3
   48    46    47    87	 9 ;      CG331      CG301      CG331       HGA3
   48    46    47    88	 9 ;      CG331      CG301      CG331       HGA3
   48    46    47    89	 9 ;      CG331      CG301      CG331       HGA3
   49    46    47    87	 9 ;      OG301      CG301      CG331       HGA3
   49    46    47    88	 9 ;      OG301      CG301      CG331       HGA3
   49    46    47    89	 9 ;      OG301      CG301      CG331       HGA3
   12    46    48    90	 9 ;      OG301      CG301      CG331       HGA3
   12    46    48    91	 9 ;      OG301      CG301      CG331       HGA3
   12    46    48    92	 9 ;      OG301      CG301      CG331       HGA3
   47    46    48    90	 9 ;      CG331      CG301      CG331       HGA3
   47    46    48    91	 9 ;      CG331      CG301      CG331       HGA3
   47    46    48    92	 9 ;      CG331      CG301      CG331       HGA3
   49    46    48    90	 9 ;      OG301      CG301      CG331       HGA3
   49    46    48    91	 9 ;      OG301      CG301      CG331       HGA3
   49    46    48    92	 9 ;      OG301      CG301      CG331       HGA3
   12    46    49    45	 9 ;      OG301      CG301      OG301      CG321
   47    46    49    45	 9 ;      CG331      CG301      OG301      CG321
   48    46    49    45	 9 ;      CG331      CG301      OG301      CG321

[ dihedrals ]
;	ai	  aj	ak	  al funct			  c0			c1			  c2			c3
    8     7     2    14	 2
    9     1     2    15	 2

