; Created by cgenff_charmm2gmx.py

[ moleculetype ]
; Name			   nrexcl
ABI				 3

[ atoms ]
;	 nr		  type	resnr residue  atom   cgnr	   charge		mass  typeB    chargeB		massB
; residue	 1 ABI rtp ABI q	qsum
     1      CG331      1    ABI     C1      1     -0.272     12.011   ;
     2      CG301      1    ABI     C2      2     -0.001     12.011   ;
     3      CG321      1    ABI     C3      3     -0.180     12.011   ;
     4      CG321      1    ABI     C4      4     -0.181     12.011   ;
     5      CG311      1    ABI     C5      5      0.138     12.011   ;
     6      OG311      1    ABI      O      6     -0.649     15.999   ;
     7      CG321      1    ABI     C6      7     -0.180     12.011   ;
     8      CG2D1      1    ABI     C7      8      0.003     12.011   ;
     9      CG2D1      1    ABI     C8      9     -0.153     12.011   ;
    10      CG321      1    ABI     C9     10     -0.178     12.011   ;
    11      CG311      1    ABI    C10     11     -0.078     12.011   ;
    12     CG3RC1      1    ABI    C11     12     -0.136     12.011   ;
    13     CG3C52      1    ABI    C12     13     -0.157     12.011   ;
    14     CG2R51      1    ABI    C13     14     -0.066     12.011   ;
    15     CG2R51      1    ABI    C14     15     -0.007     12.011   ;
    16     CG2R61      1    ABI    C15     16      0.106     12.011   ;
    17     CG2R61      1    ABI    C16     17     -0.113     12.011   ;
    18     CG2R61      1    ABI    C17     18     -0.123     12.011   ;
    19     CG2R61      1    ABI    C18     19      0.182     12.011   ;
    20     NG2R60      1    ABI      N     20     -0.599     14.007   ;
    21     CG2R61      1    ABI    C19     21      0.168     12.011   ;
    22     CG3RC1      1    ABI    C20     22     -0.171     12.011   ;
    23      CG331      1    ABI    C21     23     -0.271     12.011   ;
    24      CG321      1    ABI    C22     24     -0.186     12.011   ;
    25      CG321      1    ABI    C23     25     -0.177     12.011   ;
    26      CG311      1    ABI    C24     26     -0.098     12.011   ;
    27       HGA3      1    ABI     H1     27      0.090      1.008   ;
    28       HGA3      1    ABI     H2     28      0.090      1.008   ;
    29       HGA3      1    ABI     H3     29      0.090      1.008   ;
    30       HGA2      1    ABI     H4     30      0.090      1.008   ;
    31       HGA2      1    ABI     H5     31      0.090      1.008   ;
    32       HGA2      1    ABI     H6     32      0.090      1.008   ;
    33       HGA2      1    ABI     H7     33      0.090      1.008   ;
    34       HGA1      1    ABI     H8     34      0.090      1.008   ;
    35       HGP1      1    ABI     H9     35      0.420      1.008   ;
    36       HGA2      1    ABI    H10     36      0.090      1.008   ;
    37       HGA2      1    ABI    H11     37      0.090      1.008   ;
    38       HGA4      1    ABI    H12     38      0.150      1.008   ;
    39       HGA2      1    ABI    H13     39      0.090      1.008   ;
    40       HGA2      1    ABI    H14     40      0.090      1.008   ;
    41       HGA1      1    ABI    H15     41      0.090      1.008   ;
    42       HGA1      1    ABI    H16     42      0.090      1.008   ;
    43       HGA2      1    ABI    H17     43      0.090      1.008   ;
    44       HGA2      1    ABI    H18     44      0.090      1.008   ;
    45      HGR51      1    ABI    H19     45      0.175      1.008   ;
    46      HGR61      1    ABI    H20     46      0.115      1.008   ;
    47      HGR61      1    ABI    H21     47      0.115      1.008   ;
    48      HGR62      1    ABI    H22     48      0.122      1.008   ;
    49      HGR62      1    ABI    H23     49      0.122      1.008   ;
    50       HGA3      1    ABI    H24     50      0.090      1.008   ;
    51       HGA3      1    ABI    H25     51      0.090      1.008   ;
    52       HGA3      1    ABI    H26     52      0.090      1.008   ;
    53       HGA2      1    ABI    H27     53      0.090      1.008   ;
    54       HGA2      1    ABI    H28     54      0.090      1.008   ;
    55       HGA2      1    ABI    H29     55      0.090      1.008   ;
    56       HGA2      1    ABI    H30     56      0.090      1.008   ;
    57       HGA1      1    ABI    H31     57      0.090      1.008   ;

[ bonds ]
;	ai	  aj funct			  c0			c1			  c2			c3
    1     2	 1
    1    27	 1
    1    28	 1
    1    29	 1
    2    26	 1
    2     3	 1
    2     8	 1
    3     4	 1
    3    30	 1
    3    31	 1
    4    33	 1
    4     5	 1
    4    32	 1
    5    34	 1
    5     6	 1
    5     7	 1
    6    35	 1
    7    37	 1
    7    36	 1
    7     8	 1
    8     9	 1
    9    10	 1
    9    38	 1
   10    11	 1
   10    39	 1
   10    40	 1
   11    41	 1
   11    12	 1
   11    26	 1
   12    42	 1
   12    13	 1
   12    22	 1
   13    44	 1
   13    43	 1
   13    14	 1
   14    45	 1
   14    15	 1
   15    22	 1
   15    16	 1
   16    17	 1
   16    21	 1
   17    18	 1
   17    46	 1
   18    19	 1
   18    47	 1
   19    20	 1
   19    48	 1
   20    21	 1
   21    49	 1
   22    23	 1
   22    24	 1
   23    50	 1
   23    51	 1
   23    52	 1
   24    25	 1
   24    53	 1
   24    54	 1
   25    26	 1
   25    56	 1
   25    55	 1
   26    57	 1

[ pairs ]
;	ai	  aj funct			  c0			c1			  c2			c3
    1     4	 1
    1     7	 1
    1     9	 1
    1    11	 1
    1    57	 1
    1    25	 1
    1    30	 1
    1    31	 1
    2    33	 1
    2    36	 1
    2    37	 1
    2    38	 1
    2    41	 1
    2    10	 1
    2    12	 1
    2    55	 1
    2    56	 1
    2    24	 1
    2     5	 1
    2    32	 1
    3    34	 1
    3     6	 1
    3     7	 1
    3     9	 1
    3    11	 1
    3    57	 1
    3    25	 1
    3    27	 1
    3    28	 1
    3    29	 1
    4    35	 1
    4    36	 1
    4    37	 1
    4     8	 1
    4    26	 1
    5     9	 1
    5    30	 1
    5    31	 1
    6    33	 1
    6    36	 1
    6    37	 1
    6     8	 1
    6    32	 1
    7    33	 1
    7    38	 1
    7    10	 1
    7    35	 1
    7    26	 1
    7    32	 1
    8    34	 1
    8    39	 1
    8    40	 1
    8    11	 1
    8    57	 1
    8    25	 1
    8    27	 1
    8    28	 1
    8    29	 1
    8    30	 1
    8    31	 1
    9    36	 1
    9    37	 1
    9    41	 1
    9    12	 1
    9    26	 1
   10    42	 1
   10    13	 1
   10    57	 1
   10    22	 1
   10    25	 1
   11    38	 1
   11    43	 1
   11    44	 1
   11    14	 1
   11    15	 1
   11    23	 1
   11    24	 1
   11    56	 1
   11    55	 1
   12    50	 1
   12    39	 1
   12    40	 1
   12    45	 1
   12    16	 1
   12    57	 1
   12    51	 1
   12    52	 1
   12    53	 1
   12    54	 1
   12    25	 1
   13    41	 1
   13    16	 1
   13    23	 1
   13    24	 1
   13    26	 1
   14    42	 1
   14    17	 1
   14    21	 1
   14    23	 1
   14    24	 1
   15    52	 1
   15    50	 1
   15    42	 1
   15    44	 1
   15    46	 1
   15    49	 1
   15    18	 1
   15    51	 1
   15    20	 1
   15    53	 1
   15    54	 1
   15    25	 1
   15    43	 1
   16    45	 1
   16    47	 1
   16    19	 1
   16    23	 1
   16    24	 1
   17    49	 1
   17    48	 1
   17    20	 1
   17    22	 1
   18    21	 1
   19    49	 1
   19    46	 1
   20    47	 1
   21    46	 1
   21    48	 1
   21    22	 1
   22    41	 1
   22    43	 1
   22    44	 1
   22    45	 1
   22    55	 1
   22    56	 1
   22    26	 1
   23    42	 1
   23    53	 1
   23    54	 1
   23    25	 1
   24    42	 1
   24    50	 1
   24    51	 1
   24    52	 1
   24    57	 1
   25    41	 1
   26    39	 1
   26    40	 1
   26    42	 1
   26    53	 1
   26    27	 1
   26    28	 1
   26    29	 1
   26    30	 1
   26    31	 1
   26    54	 1
   30    33	 1
   30    32	 1
   31    33	 1
   31    32	 1
   32    34	 1
   33    34	 1
   34    36	 1
   34    37	 1
   34    35	 1
   38    39	 1
   38    40	 1
   39    41	 1
   40    41	 1
   41    42	 1
   41    57	 1
   42    43	 1
   42    44	 1
   43    45	 1
   44    45	 1
   46    47	 1
   47    48	 1
   53    55	 1
   53    56	 1
   54    55	 1
   54    56	 1
   55    57	 1
   56    57	 1

[ angles ]
;	ai	  aj	ak funct			c0			  c1			c2			  c3
    2     1    27	5
    2     1    28	5
    2     1    29	5
   27     1    28	5
   27     1    29	5
   28     1    29	5
    1     2    26	5
    1     2     3	5
    1     2     8	5
   26     2     3	5
   26     2     8	5
    3     2     8	5
    2     3     4	5
    2     3    30	5
    2     3    31	5
    4     3    30	5
    4     3    31	5
   30     3    31	5
   33     4     3	5
   33     4     5	5
   33     4    32	5
    3     4     5	5
    3     4    32	5
    5     4    32	5
   34     5     4	5
   34     5     6	5
   34     5     7	5
    4     5     6	5
    4     5     7	5
    6     5     7	5
   35     6     5	5
   37     7    36	5
   37     7     5	5
   37     7     8	5
   36     7     5	5
   36     7     8	5
    5     7     8	5
    9     8     2	5
    9     8     7	5
    2     8     7	5
   10     9    38	5
   10     9     8	5
   38     9     8	5
    9    10    11	5
    9    10    39	5
    9    10    40	5
   11    10    39	5
   11    10    40	5
   39    10    40	5
   41    11    10	5
   41    11    12	5
   41    11    26	5
   10    11    12	5
   10    11    26	5
   12    11    26	5
   42    12    11	5
   42    12    13	5
   42    12    22	5
   11    12    13	5
   11    12    22	5
   13    12    22	5
   44    13    43	5
   44    13    12	5
   44    13    14	5
   43    13    12	5
   43    13    14	5
   12    13    14	5
   45    14    13	5
   45    14    15	5
   13    14    15	5
   22    15    14	5
   22    15    16	5
   14    15    16	5
   17    16    21	5
   17    16    15	5
   21    16    15	5
   18    17    46	5
   18    17    16	5
   46    17    16	5
   17    18    19	5
   17    18    47	5
   19    18    47	5
   18    19    20	5
   18    19    48	5
   20    19    48	5
   19    20    21	5
   49    21    20	5
   49    21    16	5
   20    21    16	5
   12    22    23	5
   12    22    15	5
   12    22    24	5
   23    22    15	5
   23    22    24	5
   15    22    24	5
   50    23    51	5
   50    23    52	5
   50    23    22	5
   51    23    52	5
   51    23    22	5
   52    23    22	5
   25    24    53	5
   25    24    22	5
   25    24    54	5
   53    24    22	5
   53    24    54	5
   22    24    54	5
   26    25    56	5
   26    25    55	5
   26    25    24	5
   56    25    55	5
   56    25    24	5
   55    25    24	5
   25    26     2	5
   25    26    11	5
   25    26    57	5
    2    26    11	5
    2    26    57	5
   11    26    57	5

[ dihedrals ]
;	ai	  aj	ak	  al funct			  c0			c1			  c2			c3			  c4			c5
   27     1     2    26	 9
   27     1     2     3	 9
   27     1     2     8	 9
   28     1     2    26	 9
   28     1     2     3	 9
   28     1     2     8	 9
   29     1     2    26	 9
   29     1     2     3	 9
   29     1     2     8	 9
    1     2    26    25	 9
    1     2    26    11	 9
    1     2    26    57	 9
    3     2    26    25	 9
    3     2    26    11	 9
    3     2    26    57	 9
    8     2    26    25	 9
    8     2    26    11	 9
    8     2    26    57	 9
    1     2     3     4	 9
    1     2     3    30	 9
    1     2     3    31	 9
   26     2     3     4	 9
   26     2     3    30	 9
   26     2     3    31	 9
    8     2     3     4	 9
    8     2     3    30	 9
    8     2     3    31	 9
    1     2     8     9	 9
    1     2     8     7	 9
   26     2     8     9	 9
   26     2     8     7	 9
    3     2     8     9	 9
    3     2     8     7	 9
    2     3     4    33	 9
    2     3     4     5	 9
    2     3     4    32	 9
   30     3     4    33	 9
   30     3     4     5	 9
   30     3     4    32	 9
   31     3     4    33	 9
   31     3     4     5	 9
   31     3     4    32	 9
   33     4     5    34	 9
   33     4     5     6	 9
   33     4     5     7	 9
    3     4     5    34	 9
    3     4     5     6	 9
    3     4     5     7	 9
   32     4     5    34	 9
   32     4     5     6	 9
   32     4     5     7	 9
   34     5     6    35	 9
    4     5     6    35	 9
    7     5     6    35	 9
   34     5     7    37	 9
   34     5     7    36	 9
   34     5     7     8	 9
    4     5     7    37	 9
    4     5     7    36	 9
    4     5     7     8	 9
    6     5     7    37	 9
    6     5     7    36	 9
    6     5     7     8	 9
   37     7     8     9	 9
   37     7     8     2	 9
   36     7     8     9	 9
   36     7     8     2	 9
    5     7     8     9	 9
    5     7     8     2	 9
    2     8     9    10	 9
    2     8     9    38	 9
    7     8     9    10	 9
    7     8     9    38	 9
   38     9    10    11	 9
   38     9    10    39	 9
   38     9    10    40	 9
    8     9    10    11	 9
    8     9    10    39	 9
    8     9    10    40	 9
    9    10    11    41	 9
    9    10    11    12	 9
    9    10    11    26	 9
   39    10    11    41	 9
   39    10    11    12	 9
   39    10    11    26	 9
   40    10    11    41	 9
   40    10    11    12	 9
   40    10    11    26	 9
   41    11    12    42	 9
   41    11    12    13	 9
   41    11    12    22	 9
   10    11    12    42	 9
   10    11    12    13	 9
   10    11    12    22	 9
   26    11    12    42	 9
   26    11    12    13	 9
   26    11    12    22	 9
   41    11    26    25	 9
   41    11    26     2	 9
   41    11    26    57	 9
   10    11    26    25	 9
   10    11    26     2	 9
   10    11    26    57	 9
   12    11    26    25	 9
   12    11    26     2	 9
   12    11    26    57	 9
   42    12    13    44	 9
   42    12    13    43	 9
   42    12    13    14	 9
   11    12    13    44	 9
   11    12    13    43	 9
   11    12    13    14	 9
   22    12    13    44	 9
   22    12    13    43	 9
   22    12    13    14	 9
   42    12    22    23	 9
   42    12    22    15	 9
   42    12    22    24	 9
   11    12    22    23	 9
   11    12    22    15	 9
   11    12    22    24	 9
   13    12    22    23	 9
   13    12    22    15	 9
   13    12    22    24	 9
   44    13    14    45	 9
   44    13    14    15	 9
   43    13    14    45	 9
   43    13    14    15	 9
   12    13    14    45	 9
   12    13    14    15	 9
   45    14    15    22	 9
   45    14    15    16	 9
   13    14    15    22	 9
   13    14    15    16	 9
   14    15    22    12	 9
   14    15    22    23	 9
   14    15    22    24	 9
   16    15    22    12	 9
   16    15    22    23	 9
   16    15    22    24	 9
   22    15    16    17	 9
   22    15    16    21	 9
   14    15    16    17	 9
   14    15    16    21	 9
   21    16    17    18	 9
   21    16    17    46	 9
   15    16    17    18	 9
   15    16    17    46	 9
   17    16    21    49	 9
   17    16    21    20	 9
   15    16    21    49	 9
   15    16    21    20	 9
   46    17    18    19	 9
   46    17    18    47	 9
   16    17    18    19	 9
   16    17    18    47	 9
   17    18    19    20	 9
   17    18    19    48	 9
   47    18    19    20	 9
   47    18    19    48	 9
   18    19    20    21	 9
   48    19    20    21	 9
   19    20    21    49	 9
   19    20    21    16	 9
   12    22    23    50	 9
   12    22    23    51	 9
   12    22    23    52	 9
   15    22    23    50	 9
   15    22    23    51	 9
   15    22    23    52	 9
   24    22    23    50	 9
   24    22    23    51	 9
   24    22    23    52	 9
   12    22    24    25	 9
   12    22    24    53	 9
   12    22    24    54	 9
   23    22    24    25	 9
   23    22    24    53	 9
   23    22    24    54	 9
   15    22    24    25	 9
   15    22    24    53	 9
   15    22    24    54	 9
   53    24    25    26	 9
   53    24    25    56	 9
   53    24    25    55	 9
   22    24    25    26	 9
   22    24    25    56	 9
   22    24    25    55	 9
   54    24    25    26	 9
   54    24    25    56	 9
   54    24    25    55	 9
   56    25    26     2	 9
   56    25    26    11	 9
   56    25    26    57	 9
   55    25    26     2	 9
   55    25    26    11	 9
   55    25    26    57	 9
   24    25    26     2	 9
   24    25    26    11	 9
   24    25    26    57	 9

