; Created by cgenff_charmm2gmx.py

[ moleculetype ]
; Name			   nrexcl
CBZ				 3

[ atoms ]
;	 nr		  type	resnr residue  atom   cgnr	   charge		mass  typeB    chargeB		massB
; residue	 1 CBZ rtp CBZ q	qsum
     1      CG331      1    CBL     C1      1     -0.273     12.011   ;
     2      CG321      1    CBL     C2      2     -0.177     12.011   ;
     3      CG321      1    CBL     C3      3     -0.181     12.011   ;
     4      CG321      1    CBL     C4      4     -0.179     12.011   ;
     5      CG321      1    CBL     C5      5     -0.180     12.011   ;
     6      CG321      1    CBL     C6      6     -0.180     12.011   ;
     7      CG321      1    CBL     C7      7     -0.180     12.011   ;
     8      CG321      1    CBL     C8      8     -0.180     12.011   ;
     9      CG321      1    CBL     C9      9     -0.180     12.011   ;
    10      CG321      1    CBL    C10     10     -0.180     12.011   ;
    11      CG321      1    CBL    C11     11     -0.180     12.011   ;
    12      CG321      1    CBL    C12     12     -0.180     12.011   ;
    13      CG321      1    CBL    C13     13     -0.180     12.011   ;
    14      CG321      1    CBL    C14     14     -0.180     12.011   ;
    15      CG321      1    CBL    C15     15     -0.180     12.011   ;
    16      CG321      1    CBL    C16     16     -0.180     12.011   ;
    17      CG321      1    CBL    C17     17     -0.180     12.011   ;
    18      CG321      1    CBL    C18     18      0.036     12.011   ;
    19      CG301      1    CBL    C19     19      0.391     12.011   ;
    20      CG331      1    CBL    C20     20     -0.269     12.011   ;
    21      CG331      1    CBL    C21     21     -0.269     12.011   ;
    22      OG301      1    CBL     O1     22     -0.402     15.999   ;
    23       HGA3      1    CBL     H1     23      0.090      1.008   ;
    24       HGA3      1    CBL     H2     24      0.090      1.008   ;
    25       HGA3      1    CBL     H3     25      0.090      1.008   ;
    26       HGA2      1    CBL     H4     26      0.090      1.008   ;
    27       HGA2      1    CBL     H5     27      0.090      1.008   ;
    28       HGA2      1    CBL     H6     28      0.090      1.008   ;
    29       HGA2      1    CBL     H7     29      0.090      1.008   ;
    30       HGA2      1    CBL     H8     30      0.090      1.008   ;
    31       HGA2      1    CBL     H9     31      0.090      1.008   ;
    32       HGA2      1    CBL    H10     32      0.090      1.008   ;
    33       HGA2      1    CBL    H11     33      0.090      1.008   ;
    34       HGA2      1    CBL    H12     34      0.090      1.008   ;
    35       HGA2      1    CBL    H13     35      0.090      1.008   ;
    36       HGA2      1    CBL    H14     36      0.090      1.008   ;
    37       HGA2      1    CBL    H15     37      0.090      1.008   ;
    38       HGA2      1    CBL    H16     38      0.090      1.008   ;
    39       HGA2      1    CBL    H17     39      0.090      1.008   ;
    40       HGA2      1    CBL    H18     40      0.090      1.008   ;
    41       HGA2      1    CBL    H19     41      0.090      1.008   ;
    42       HGA2      1    CBL    H20     42      0.090      1.008   ;
    43       HGA2      1    CBL    H21     43      0.090      1.008   ;
    44       HGA2      1    CBL    H22     44      0.090      1.008   ;
    45       HGA2      1    CBL    H23     45      0.090      1.008   ;
    46       HGA2      1    CBL    H24     46      0.090      1.008   ;
    47       HGA2      1    CBL    H25     47      0.090      1.008   ;
    48       HGA2      1    CBL    H26     48      0.090      1.008   ;
    49       HGA2      1    CBL    H27     49      0.090      1.008   ;
    50       HGA2      1    CBL    H28     50      0.090      1.008   ;
    51       HGA2      1    CBL    H29     51      0.090      1.008   ;
    52       HGA2      1    CBL    H30     52      0.090      1.008   ;
    53       HGA2      1    CBL    H31     53      0.090      1.008   ;
    54       HGA2      1    CBL    H32     54      0.090      1.008   ;
    55       HGA2      1    CBL    H33     55      0.090      1.008   ;
    56       HGA2      1    CBL    H34     56      0.090      1.008   ;
    57       HGA2      1    CBL    H35     57      0.090      1.008   ;
    58       HGA2      1    CBL    H36     58      0.090      1.008   ;
    59       HGA2      1    CBL    H37     59      0.090      1.008   ;
    60       HGA3      1    CBL    H38     60      0.090      1.008   ;
    61       HGA3      1    CBL    H39     61      0.090      1.008   ;
    62       HGA3      1    CBL    H40     62      0.090      1.008   ;
    63       HGA3      1    CBL    H41     63      0.090      1.008   ;
    64       HGA3      1    CBL    H42     64      0.090      1.008   ;
    65       HGA3      1    CBL    H43     65      0.090      1.008   ;
    66      NG2S1      1    CBZ      N     66     -0.547     14.007   ;
    67      CG311      1    CBZ    C22     67      0.183     12.011   ;
    68      CG2O2      1    CBZ    C23     68      0.850     12.011   ;
    69      CG311      1    CBZ    C24     69      0.272     12.011   ;
    70      CG321      1    CBZ    C25     70     -0.212     12.011   ;
    71      CG301      1    CBZ    C26     71      0.186     12.011   ;
    72      CG311      1    CBZ    C27     72      0.133     12.011   ;
    73      CG2O2      1    CBZ    C28     73      0.459     12.011   ;
    74     CG2R61      1    CBZ    C29     74      0.086     12.011   ;
    75     CG2R61      1    CBZ    C30     75     -0.110     12.011   ;
    76     CG2R61      1    CBZ    C31     76     -0.114     12.011   ;
    77     CG2R61      1    CBZ    C32     77     -0.115     12.011   ;
    78     CG2R61      1    CBZ    C33     78     -0.114     12.011   ;
    79     CG2R61      1    CBZ    C34     79     -0.110     12.011   ;
    80      CG311      1    CBZ    C35     80     -0.074     12.011   ;
    81      CG301      1    CBZ    C36     81      0.088     12.011   ;
    82      CG331      1    CBZ    C37     82     -0.263     12.011   ;
    83      CG2O5      1    CBZ    C38     83      0.306     12.011   ;
    84      CG311      1    CBZ    C39     84      0.362     12.011   ;
    85      CG331      1    CBZ    C40     85     -0.088     12.011   ;
    86      CG2D1      1    CBZ    C41     86     -0.113     12.011   ;
    87      CG2D1      1    CBZ    C42     87     -0.153     12.011   ;
    88      CG331      1    CBZ    C43     88     -0.265     12.011   ;
    89      CG301      1    CBZ    C44     89      0.016     12.011   ;
    90      CG331      1    CBZ    C45     90     -0.269     12.011   ;
    91      CG331      1    CBZ    C46     91     -0.269     12.011   ;
    92      CG311      1    CBZ    C47     92      0.118     12.011   ;
    93      CG331      1    CBZ    C48     93     -0.101     12.011   ;
    94      CG321      1    CBZ    C49     94     -0.212     12.011   ;
    95     CG3RC1      1    CBZ    C50     95      0.020     12.011   ;
    96     CG3C41      1    CBZ    C51     96     -0.106     12.011   ;
    97     CG3RC1      1    CBZ    C52     97      0.366     12.011   ;
    98      CG2O2      1    CBZ    C53     98      0.885     12.011   ;
    99      CG331      1    CBZ    C54     99     -0.313     12.011   ;
   100      CG311      1    CBZ    C55    100      0.136     12.011   ;
   101      CG2O1      1    CBZ    C56    101      0.638     12.011   ;
   102      CG301      1    CBZ    C57    102     -0.054     12.011   ;
   103      CG331      1    CBZ    C58    103     -0.273     12.011   ;
   104      CG331      1    CBZ    C59    104     -0.273     12.011   ;
   105      CG331      1    CBZ    C60    105     -0.273     12.011   ;
   106     CG2R61      1    CBZ    C61    106     -0.040     12.011   ;
   107     CG2R61      1    CBZ    C62    107     -0.106     12.011   ;
   108     CG2R61      1    CBZ    C63    108     -0.115     12.011   ;
   109     CG2R61      1    CBZ    C64    109     -0.115     12.011   ;
   110     CG2R61      1    CBZ    C65    110     -0.115     12.011   ;
   111     CG2R61      1    CBZ    C66    111     -0.106     12.011   ;
   112      OG301      1    CBZ     O2    112     -0.506     15.999   ;
   113      OG2D1      1    CBZ     O3    113     -0.623     15.999   ;
   114      OG302      1    CBZ     O4    114     -0.432     15.999   ;
   115      OG311      1    CBZ     O5    115     -0.460     15.999   ;
   116      OG302      1    CBZ     O6    116     -0.310     15.999   ;
   117      OG2D1      1    CBZ     O7    117     -0.496     15.999   ;
   118      OG2D3      1    CBZ     O8    118     -0.515     15.999   ;
   119      OG301      1    CBZ     O9    119     -0.377     15.999   ;
   120      OG301      1    CBZ    O10    120     -0.367     15.999   ;
   121     OG3C51      1    CBZ    O11    121     -0.343     15.999   ;
   122      OG302      1    CBZ    O12    122     -0.422     15.999   ;
   123      OG2D1      1    CBZ    O13    123     -0.617     15.999   ;
   124      OG2D1      1    CBZ    O14    124     -0.511     15.999   ;
   125       HGA1      1    CBZ    H44    125      0.090      1.008   ;
   126       HGA1      1    CBZ    H45    126      0.090      1.008   ;
   127       HGA2      1    CBZ    H46    127      0.090      1.008   ;
   128       HGA2      1    CBZ    H47    128      0.090      1.008   ;
   129       HGP1      1    CBZ    H48    129      0.292      1.008   ;
   130       HGA1      1    CBZ    H49    130      0.090      1.008   ;
   131      HGR61      1    CBZ    H50    131      0.115      1.008   ;
   132      HGR61      1    CBZ    H51    132      0.115      1.008   ;
   133      HGR61      1    CBZ    H52    133      0.115      1.008   ;
   134      HGR61      1    CBZ    H53    134      0.115      1.008   ;
   135      HGR61      1    CBZ    H54    135      0.115      1.008   ;
   136       HGA1      1    CBZ    H55    136      0.090      1.008   ;
   137       HGA3      1    CBZ    H56    137      0.090      1.008   ;
   138       HGA3      1    CBZ    H57    138      0.090      1.008   ;
   139       HGA3      1    CBZ    H58    139      0.090      1.008   ;
   140       HGA1      1    CBZ    H59    140      0.090      1.008   ;
   141       HGA3      1    CBZ    H60    141      0.090      1.008   ;
   142       HGA3      1    CBZ    H61    142      0.090      1.008   ;
   143       HGA3      1    CBZ    H62    143      0.090      1.008   ;
   144       HGA3      1    CBZ    H63    144      0.090      1.008   ;
   145       HGA3      1    CBZ    H64    145      0.090      1.008   ;
   146       HGA3      1    CBZ    H65    146      0.090      1.008   ;
   147       HGA3      1    CBZ    H66    147      0.090      1.008   ;
   148       HGA3      1    CBZ    H67    148      0.090      1.008   ;
   149       HGA3      1    CBZ    H68    149      0.090      1.008   ;
   150       HGA3      1    CBZ    H69    150      0.090      1.008   ;
   151       HGA3      1    CBZ    H70    151      0.090      1.008   ;
   152       HGA3      1    CBZ    H71    152      0.090      1.008   ;
   153       HGA1      1    CBZ    H72    153      0.090      1.008   ;
   154       HGA3      1    CBZ    H73    154      0.090      1.008   ;
   155       HGA3      1    CBZ    H74    155      0.090      1.008   ;
   156       HGA3      1    CBZ    H75    156      0.090      1.008   ;
   157       HGA2      1    CBZ    H76    157      0.090      1.008   ;
   158       HGA2      1    CBZ    H77    158      0.090      1.008   ;
   159       HGA1      1    CBZ    H78    159      0.090      1.008   ;
   160       HGA2      1    CBZ    H79    160      0.090      1.008   ;
   161       HGA2      1    CBZ    H80    161      0.090      1.008   ;
   162       HGA3      1    CBZ    H81    162      0.090      1.008   ;
   163       HGA3      1    CBZ    H82    163      0.090      1.008   ;
   164       HGA3      1    CBZ    H83    164      0.090      1.008   ;
   165       HGA1      1    CBZ    H84    165      0.090      1.008   ;
   166       HGP1      1    CBZ    H85    166      0.284      1.008   ;
   167       HGA3      1    CBZ    H86    167      0.090      1.008   ;
   168       HGA3      1    CBZ    H87    168      0.090      1.008   ;
   169       HGA3      1    CBZ    H88    169      0.090      1.008   ;
   170       HGA3      1    CBZ    H89    170      0.090      1.008   ;
   171       HGA3      1    CBZ    H90    171      0.090      1.008   ;
   172       HGA3      1    CBZ    H91    172      0.090      1.008   ;
   173       HGA3      1    CBZ    H92    173      0.090      1.008   ;
   174       HGA3      1    CBZ    H93    174      0.090      1.008   ;
   175       HGA3      1    CBZ    H94    175      0.090      1.008   ;
   176      HGR61      1    CBZ    H95    176      0.115      1.008   ;
   177      HGR61      1    CBZ    H96    177      0.115      1.008   ;
   178      HGR61      1    CBZ    H97    178      0.115      1.008   ;
   179      HGR61      1    CBZ    H98    179      0.115      1.008   ;
   180      HGR61      1    CBZ    H99    180      0.115      1.008   ;

[ bonds ]
;	ai	  aj funct			  c0			c1			  c2			c3
    1     2	 1 ;       CG331      CG321
    1    23	 1 ;       CG331       HGA3
    1    24	 1 ;       CG331       HGA3
    1    25	 1 ;       CG331       HGA3
    2     3	 1 ;       CG321      CG321
    2    26	 1 ;       CG321       HGA2
    2    27	 1 ;       CG321       HGA2
    3     4	 1 ;       CG321      CG321
    3    28	 1 ;       CG321       HGA2
    3    29	 1 ;       CG321       HGA2
    4     5	 1 ;       CG321      CG321
    4    30	 1 ;       CG321       HGA2
    4    31	 1 ;       CG321       HGA2
    5     6	 1 ;       CG321      CG321
    5    32	 1 ;       CG321       HGA2
    5    33	 1 ;       CG321       HGA2
    6     7	 1 ;       CG321      CG321
    6    34	 1 ;       CG321       HGA2
    6    35	 1 ;       CG321       HGA2
    7     8	 1 ;       CG321      CG321
    7    36	 1 ;       CG321       HGA2
    7    37	 1 ;       CG321       HGA2
    8     9	 1 ;       CG321      CG321
    8    38	 1 ;       CG321       HGA2
    8    39	 1 ;       CG321       HGA2
    9    10	 1 ;       CG321      CG321
    9    40	 1 ;       CG321       HGA2
    9    41	 1 ;       CG321       HGA2
   10    11	 1 ;       CG321      CG321
   10    42	 1 ;       CG321       HGA2
   10    43	 1 ;       CG321       HGA2
   11    12	 1 ;       CG321      CG321
   11    44	 1 ;       CG321       HGA2
   11    45	 1 ;       CG321       HGA2
   12    13	 1 ;       CG321      CG321
   12    46	 1 ;       CG321       HGA2
   12    47	 1 ;       CG321       HGA2
   13    14	 1 ;       CG321      CG321
   13    48	 1 ;       CG321       HGA2
   13    49	 1 ;       CG321       HGA2
   14    15	 1 ;       CG321      CG321
   14    50	 1 ;       CG321       HGA2
   14    51	 1 ;       CG321       HGA2
   15    16	 1 ;       CG321      CG321
   15    52	 1 ;       CG321       HGA2
   15    53	 1 ;       CG321       HGA2
   16    17	 1 ;       CG321      CG321
   16    54	 1 ;       CG321       HGA2
   16    55	 1 ;       CG321       HGA2
   17    18	 1 ;       CG321      CG321
   17    56	 1 ;       CG321       HGA2
   17    57	 1 ;       CG321       HGA2
   18    22	 1 ;       CG321      OG301
   18    58	 1 ;       CG321       HGA2
   18    59	 1 ;       CG321       HGA2
   19    20	 1 ;       CG301      CG331
   19    21	 1 ;       CG301      CG331
   19   112	 1 ;       CG301      OG301
   19    22	 1 ;       CG301      OG301
   20    60	 1 ;       CG331       HGA3
   20    61	 1 ;       CG331       HGA3
   20    62	 1 ;       CG331       HGA3
   21    63	 1 ;       CG331       HGA3
   21    64	 1 ;       CG331       HGA3
   21    65	 1 ;       CG331       HGA3
   66   101	 1 ;       NG2S1      CG2O1
   66   166	 1 ;       NG2S1       HGP1
   66   100	 1 ;       NG2S1      CG311
   67    68	 1 ;       CG311      CG2O2
   67   100	 1 ;       CG311      CG311
   67   125	 1 ;       CG311       HGA1
   67   112	 1 ;       CG311      OG301
   68   113	 1 ;       CG2O2      OG2D1
   68   114	 1 ;       CG2O2      OG302
   69    70	 1 ;       CG311      CG321
   69    87	 1 ;       CG311      CG2D1
   69   126	 1 ;       CG311       HGA1
   69   114	 1 ;       CG311      OG302
   70    71	 1 ;       CG321      CG301
   70   127	 1 ;       CG321       HGA2
   70   128	 1 ;       CG321       HGA2
   71    72	 1 ;       CG301      CG311
   71    89	 1 ;       CG301      CG301
   71   115	 1 ;       CG301      OG311
   72    80	 1 ;       CG311      CG311
   72   116	 1 ;       CG311      OG302
   72   130	 1 ;       CG311       HGA1
   73    74	 1 ;       CG2O2     CG2R61
   73   117	 1 ;       CG2O2      OG2D1
   73   116	 1 ;       CG2O2      OG302
   74    75	 1 ;      CG2R61     CG2R61
   74    79	 1 ;      CG2R61     CG2R61
   75    76	 1 ;      CG2R61     CG2R61
   75   131	 1 ;      CG2R61      HGR61
   76    77	 1 ;      CG2R61     CG2R61
   76   132	 1 ;      CG2R61      HGR61
   77    78	 1 ;      CG2R61     CG2R61
   77   133	 1 ;      CG2R61      HGR61
   78    79	 1 ;      CG2R61     CG2R61
   78   134	 1 ;      CG2R61      HGR61
   79   135	 1 ;      CG2R61      HGR61
   80    81	 1 ;       CG311      CG301
   80    97	 1 ;       CG311     CG3RC1
   80   136	 1 ;       CG311       HGA1
   81    82	 1 ;       CG301      CG331
   81    83	 1 ;       CG301      CG2O5
   81    92	 1 ;       CG301      CG311
   82   137	 1 ;       CG331       HGA3
   82   138	 1 ;       CG331       HGA3
   82   139	 1 ;       CG331       HGA3
   83    84	 1 ;       CG2O5      CG311
   83   118	 1 ;       CG2O5      OG2D3
   84    86	 1 ;       CG311      CG2D1
   84   119	 1 ;       CG311      OG301
   84   140	 1 ;       CG311       HGA1
   85   141	 1 ;       CG331       HGA3
   85   142	 1 ;       CG331       HGA3
   85   143	 1 ;       CG331       HGA3
   85   119	 1 ;       CG331      OG301
   86    87	 1 ;       CG2D1      CG2D1
   86    89	 1 ;       CG2D1      CG301
   87    88	 1 ;       CG2D1      CG331
   88   144	 1 ;       CG331       HGA3
   88   145	 1 ;       CG331       HGA3
   88   146	 1 ;       CG331       HGA3
   89    90	 1 ;       CG301      CG331
   89    91	 1 ;       CG301      CG331
   90   147	 1 ;       CG331       HGA3
   90   148	 1 ;       CG331       HGA3
   90   149	 1 ;       CG331       HGA3
   91   150	 1 ;       CG331       HGA3
   91   151	 1 ;       CG331       HGA3
   91   152	 1 ;       CG331       HGA3
   92    94	 1 ;       CG311      CG321
   92   120	 1 ;       CG311      OG301
   92   153	 1 ;       CG311       HGA1
   93   154	 1 ;       CG331       HGA3
   93   155	 1 ;       CG331       HGA3
   93   156	 1 ;       CG331       HGA3
   93   120	 1 ;       CG331      OG301
   94    95	 1 ;       CG321     CG3RC1
   94   157	 1 ;       CG321       HGA2
   94   158	 1 ;       CG321       HGA2
   95    97	 1 ;      CG3RC1     CG3RC1
   95   121	 1 ;      CG3RC1     OG3C51
   95   159	 1 ;      CG3RC1       HGA1
   96    97	 1 ;      CG3C41     CG3RC1
   96   160	 1 ;      CG3C41       HGA2
   96   161	 1 ;      CG3C41       HGA2
   96   121	 1 ;      CG3C41     OG3C51
   97   122	 1 ;      CG3RC1      OG302
   98    99	 1 ;       CG2O2      CG331
   98   123	 1 ;       CG2O2      OG2D1
   98   122	 1 ;       CG2O2      OG302
   99   162	 1 ;       CG331       HGA3
   99   163	 1 ;       CG331       HGA3
   99   164	 1 ;       CG331       HGA3
  100   106	 1 ;       CG311     CG2R61
  100   165	 1 ;       CG311       HGA1
  101   102	 1 ;       CG2O1      CG301
  101   124	 1 ;       CG2O1      OG2D1
  102   103	 1 ;       CG301      CG331
  102   104	 1 ;       CG301      CG331
  102   105	 1 ;       CG301      CG331
  103   167	 1 ;       CG331       HGA3
  103   168	 1 ;       CG331       HGA3
  103   169	 1 ;       CG331       HGA3
  104   170	 1 ;       CG331       HGA3
  104   171	 1 ;       CG331       HGA3
  104   172	 1 ;       CG331       HGA3
  105   173	 1 ;       CG331       HGA3
  105   174	 1 ;       CG331       HGA3
  105   175	 1 ;       CG331       HGA3
  106   107	 1 ;      CG2R61     CG2R61
  106   111	 1 ;      CG2R61     CG2R61
  107   108	 1 ;      CG2R61     CG2R61
  107   176	 1 ;      CG2R61      HGR61
  108   109	 1 ;      CG2R61     CG2R61
  108   177	 1 ;      CG2R61      HGR61
  109   110	 1 ;      CG2R61     CG2R61
  109   178	 1 ;      CG2R61      HGR61
  110   111	 1 ;      CG2R61     CG2R61
  110   179	 1 ;      CG2R61      HGR61
  111   180	 1 ;      CG2R61      HGR61
  115   129	 1 ;       OG311       HGP1

[ pairs ]
;	ai	  aj funct			  c0			c1			  c2			c3
    1     4	 1
    1    28	 1
    1    29	 1
    2     5	 1
    2    30	 1
    2    31	 1
    3    23	 1
    3    24	 1
    3    25	 1
    3     6	 1
    3    32	 1
    3    33	 1
    4    26	 1
    4    27	 1
    4     7	 1
    4    34	 1
    4    35	 1
    5    28	 1
    5    29	 1
    5     8	 1
    5    36	 1
    5    37	 1
    6    30	 1
    6    31	 1
    6     9	 1
    6    38	 1
    6    39	 1
    7    32	 1
    7    33	 1
    7    10	 1
    7    40	 1
    7    41	 1
    8    34	 1
    8    35	 1
    8    11	 1
    8    42	 1
    8    43	 1
    9    36	 1
    9    37	 1
    9    12	 1
    9    44	 1
    9    45	 1
   10    38	 1
   10    39	 1
   10    13	 1
   10    46	 1
   10    47	 1
   11    40	 1
   11    41	 1
   11    14	 1
   11    48	 1
   11    49	 1
   12    42	 1
   12    43	 1
   12    15	 1
   12    50	 1
   12    51	 1
   13    44	 1
   13    45	 1
   13    16	 1
   13    52	 1
   13    53	 1
   14    46	 1
   14    47	 1
   14    17	 1
   14    54	 1
   14    55	 1
   15    48	 1
   15    49	 1
   15    18	 1
   15    56	 1
   15    57	 1
   16    50	 1
   16    51	 1
   16    22	 1
   16    58	 1
   16    59	 1
   17    52	 1
   17    53	 1
   17    19	 1
   18    54	 1
   18    55	 1
   18    20	 1
   18    21	 1
   18   112	 1
   19    58	 1
   19    59	 1
   19    68	 1
   19   100	 1
   19   125	 1
   20    63	 1
   20    64	 1
   20    65	 1
   20    67	 1
   21    60	 1
   21    61	 1
   21    62	 1
   21    67	 1
   22    56	 1
   22    57	 1
   22    60	 1
   22    61	 1
   22    62	 1
   22    63	 1
   22    64	 1
   22    65	 1
   22    67	 1
   23    26	 1
   23    27	 1
   24    26	 1
   24    27	 1
   25    26	 1
   25    27	 1
   26    28	 1
   26    29	 1
   27    28	 1
   27    29	 1
   28    30	 1
   28    31	 1
   29    30	 1
   29    31	 1
   30    32	 1
   30    33	 1
   31    32	 1
   31    33	 1
   32    34	 1
   32    35	 1
   33    34	 1
   33    35	 1
   34    36	 1
   34    37	 1
   35    36	 1
   35    37	 1
   36    38	 1
   36    39	 1
   37    38	 1
   37    39	 1
   38    40	 1
   38    41	 1
   39    40	 1
   39    41	 1
   40    42	 1
   40    43	 1
   41    42	 1
   41    43	 1
   42    44	 1
   42    45	 1
   43    44	 1
   43    45	 1
   44    46	 1
   44    47	 1
   45    46	 1
   45    47	 1
   46    48	 1
   46    49	 1
   47    48	 1
   47    49	 1
   48    50	 1
   48    51	 1
   49    50	 1
   49    51	 1
   50    52	 1
   50    53	 1
   51    52	 1
   51    53	 1
   52    54	 1
   52    55	 1
   53    54	 1
   53    55	 1
   54    56	 1
   54    57	 1
   55    56	 1
   55    57	 1
   56    58	 1
   56    59	 1
   57    58	 1
   57    59	 1
   60   112	 1
   61   112	 1
   62   112	 1
   63   112	 1
   64   112	 1
   65   112	 1
   66    68	 1
   66   125	 1
   66   112	 1
   66   107	 1
   66   111	 1
   66   103	 1
   66   104	 1
   66   105	 1
   67   101	 1
   67   166	 1
   67    69	 1
   67   107	 1
   67   111	 1
   68   106	 1
   68   165	 1
   68    70	 1
   68    87	 1
   68   126	 1
   69   113	 1
   69    72	 1
   69    89	 1
   69   115	 1
   69    84	 1
   69   144	 1
   69   145	 1
   69   146	 1
   70    86	 1
   70    88	 1
   70    80	 1
   70   116	 1
   70   130	 1
   70    90	 1
   70    91	 1
   70   129	 1
   71    87	 1
   71   126	 1
   71   114	 1
   71    81	 1
   71    97	 1
   71   136	 1
   71    73	 1
   71    84	 1
   71   147	 1
   71   148	 1
   71   149	 1
   71   150	 1
   71   151	 1
   71   152	 1
   72   127	 1
   72   128	 1
   72    86	 1
   72    90	 1
   72    91	 1
   72   129	 1
   72    74	 1
   72   117	 1
   72    82	 1
   72    83	 1
   72    92	 1
   72    95	 1
   72    96	 1
   72   122	 1
   73    80	 1
   73   130	 1
   73    76	 1
   73   131	 1
   73    78	 1
   73   135	 1
   74    77	 1
   74   132	 1
   74   134	 1
   75   117	 1
   75   116	 1
   75    78	 1
   75   135	 1
   75   133	 1
   76    79	 1
   76   134	 1
   77   131	 1
   77   135	 1
   78   132	 1
   79   117	 1
   79   116	 1
   79   131	 1
   79   133	 1
   80    89	 1
   80   115	 1
   80   137	 1
   80   138	 1
   80   139	 1
   80    84	 1
   80   118	 1
   80    94	 1
   80   120	 1
   80   153	 1
   80   121	 1
   80   159	 1
   80   160	 1
   80   161	 1
   80    98	 1
   81   116	 1
   81   130	 1
   81    95	 1
   81    96	 1
   81   122	 1
   81    86	 1
   81   119	 1
   81   140	 1
   81   157	 1
   81   158	 1
   81    93	 1
   82    97	 1
   82   136	 1
   82    84	 1
   82   118	 1
   82    94	 1
   82   120	 1
   82   153	 1
   83    97	 1
   83   136	 1
   83   137	 1
   83   138	 1
   83   139	 1
   83    94	 1
   83   120	 1
   83   153	 1
   83    87	 1
   83    89	 1
   83    85	 1
   84    92	 1
   84   141	 1
   84   142	 1
   84   143	 1
   84    88	 1
   84    90	 1
   84    91	 1
   85    86	 1
   85   140	 1
   86   126	 1
   86   114	 1
   86   115	 1
   86   118	 1
   86   144	 1
   86   145	 1
   86   146	 1
   86   147	 1
   86   148	 1
   86   149	 1
   86   150	 1
   86   151	 1
   86   152	 1
   87   127	 1
   87   128	 1
   87   119	 1
   87   140	 1
   87    90	 1
   87    91	 1
   88   126	 1
   88   114	 1
   88    89	 1
   89   127	 1
   89   128	 1
   89   116	 1
   89   130	 1
   89   129	 1
   89   119	 1
   89   140	 1
   90   115	 1
   90   150	 1
   90   151	 1
   90   152	 1
   91   115	 1
   91   147	 1
   91   148	 1
   91   149	 1
   92    97	 1
   92   136	 1
   92   137	 1
   92   138	 1
   92   139	 1
   92   118	 1
   92   154	 1
   92   155	 1
   92   156	 1
   92   121	 1
   92   159	 1
   93    94	 1
   93   153	 1
   94    96	 1
   94   122	 1
   95   136	 1
   95   120	 1
   95   153	 1
   95   160	 1
   95   161	 1
   95    98	 1
   96   136	 1
   96   159	 1
   96    98	 1
   97   116	 1
   97   130	 1
   97   157	 1
   97   158	 1
   97    99	 1
   97   123	 1
  100   102	 1
  100   124	 1
  100   113	 1
  100   114	 1
  100   108	 1
  100   176	 1
  100   110	 1
  100   180	 1
  101   106	 1
  101   165	 1
  101   167	 1
  101   168	 1
  101   169	 1
  101   170	 1
  101   171	 1
  101   172	 1
  101   173	 1
  101   174	 1
  101   175	 1
  102   166	 1
  103   124	 1
  103   170	 1
  103   171	 1
  103   172	 1
  103   173	 1
  103   174	 1
  103   175	 1
  104   124	 1
  104   167	 1
  104   168	 1
  104   169	 1
  104   173	 1
  104   174	 1
  104   175	 1
  105   124	 1
  105   167	 1
  105   168	 1
  105   169	 1
  105   170	 1
  105   171	 1
  105   172	 1
  106   166	 1
  106   125	 1
  106   112	 1
  106   109	 1
  106   177	 1
  106   179	 1
  107   165	 1
  107   110	 1
  107   180	 1
  107   178	 1
  108   111	 1
  108   179	 1
  109   176	 1
  109   180	 1
  110   177	 1
  111   165	 1
  111   176	 1
  111   178	 1
  112   113	 1
  112   114	 1
  112   165	 1
  113   125	 1
  114   125	 1
  114   127	 1
  114   128	 1
  115   127	 1
  115   128	 1
  115   116	 1
  115   130	 1
  116   136	 1
  118   119	 1
  118   140	 1
  120   157	 1
  120   158	 1
  121   157	 1
  121   158	 1
  121   122	 1
  122   136	 1
  122   159	 1
  122   160	 1
  122   161	 1
  122   162	 1
  122   163	 1
  122   164	 1
  123   162	 1
  123   163	 1
  123   164	 1
  124   166	 1
  125   165	 1
  126   127	 1
  126   128	 1
  130   136	 1
  131   132	 1
  132   133	 1
  133   134	 1
  134   135	 1
  153   157	 1
  153   158	 1
  157   159	 1
  158   159	 1
  165   166	 1
  176   177	 1
  177   178	 1
  178   179	 1
  179   180	 1

[ angles ]
;	ai	  aj	ak funct			c0			  c1			c2			  c3
    2     1    23	5 ;      CG321      CG331       HGA3
    2     1    24	5 ;      CG321      CG331       HGA3
    2     1    25	5 ;      CG321      CG331       HGA3
   23     1    24	5 ;       HGA3      CG331       HGA3
   23     1    25	5 ;       HGA3      CG331       HGA3
   24     1    25	5 ;       HGA3      CG331       HGA3
    1     2     3	5 ;      CG331      CG321      CG321
    1     2    26	5 ;      CG331      CG321       HGA2
    1     2    27	5 ;      CG331      CG321       HGA2
    3     2    26	5 ;      CG321      CG321       HGA2
    3     2    27	5 ;      CG321      CG321       HGA2
   26     2    27	5 ;       HGA2      CG321       HGA2
    2     3     4	5 ;      CG321      CG321      CG321
    2     3    28	5 ;      CG321      CG321       HGA2
    2     3    29	5 ;      CG321      CG321       HGA2
    4     3    28	5 ;      CG321      CG321       HGA2
    4     3    29	5 ;      CG321      CG321       HGA2
   28     3    29	5 ;       HGA2      CG321       HGA2
    3     4     5	5 ;      CG321      CG321      CG321
    3     4    30	5 ;      CG321      CG321       HGA2
    3     4    31	5 ;      CG321      CG321       HGA2
    5     4    30	5 ;      CG321      CG321       HGA2
    5     4    31	5 ;      CG321      CG321       HGA2
   30     4    31	5 ;       HGA2      CG321       HGA2
    4     5     6	5 ;      CG321      CG321      CG321
    4     5    32	5 ;      CG321      CG321       HGA2
    4     5    33	5 ;      CG321      CG321       HGA2
    6     5    32	5 ;      CG321      CG321       HGA2
    6     5    33	5 ;      CG321      CG321       HGA2
   32     5    33	5 ;       HGA2      CG321       HGA2
    5     6     7	5 ;      CG321      CG321      CG321
    5     6    34	5 ;      CG321      CG321       HGA2
    5     6    35	5 ;      CG321      CG321       HGA2
    7     6    34	5 ;      CG321      CG321       HGA2
    7     6    35	5 ;      CG321      CG321       HGA2
   34     6    35	5 ;       HGA2      CG321       HGA2
    6     7     8	5 ;      CG321      CG321      CG321
    6     7    36	5 ;      CG321      CG321       HGA2
    6     7    37	5 ;      CG321      CG321       HGA2
    8     7    36	5 ;      CG321      CG321       HGA2
    8     7    37	5 ;      CG321      CG321       HGA2
   36     7    37	5 ;       HGA2      CG321       HGA2
    7     8     9	5 ;      CG321      CG321      CG321
    7     8    38	5 ;      CG321      CG321       HGA2
    7     8    39	5 ;      CG321      CG321       HGA2
    9     8    38	5 ;      CG321      CG321       HGA2
    9     8    39	5 ;      CG321      CG321       HGA2
   38     8    39	5 ;       HGA2      CG321       HGA2
    8     9    10	5 ;      CG321      CG321      CG321
    8     9    40	5 ;      CG321      CG321       HGA2
    8     9    41	5 ;      CG321      CG321       HGA2
   10     9    40	5 ;      CG321      CG321       HGA2
   10     9    41	5 ;      CG321      CG321       HGA2
   40     9    41	5 ;       HGA2      CG321       HGA2
    9    10    11	5 ;      CG321      CG321      CG321
    9    10    42	5 ;      CG321      CG321       HGA2
    9    10    43	5 ;      CG321      CG321       HGA2
   11    10    42	5 ;      CG321      CG321       HGA2
   11    10    43	5 ;      CG321      CG321       HGA2
   42    10    43	5 ;       HGA2      CG321       HGA2
   10    11    12	5 ;      CG321      CG321      CG321
   10    11    44	5 ;      CG321      CG321       HGA2
   10    11    45	5 ;      CG321      CG321       HGA2
   12    11    44	5 ;      CG321      CG321       HGA2
   12    11    45	5 ;      CG321      CG321       HGA2
   44    11    45	5 ;       HGA2      CG321       HGA2
   11    12    13	5 ;      CG321      CG321      CG321
   11    12    46	5 ;      CG321      CG321       HGA2
   11    12    47	5 ;      CG321      CG321       HGA2
   13    12    46	5 ;      CG321      CG321       HGA2
   13    12    47	5 ;      CG321      CG321       HGA2
   46    12    47	5 ;       HGA2      CG321       HGA2
   12    13    14	5 ;      CG321      CG321      CG321
   12    13    48	5 ;      CG321      CG321       HGA2
   12    13    49	5 ;      CG321      CG321       HGA2
   14    13    48	5 ;      CG321      CG321       HGA2
   14    13    49	5 ;      CG321      CG321       HGA2
   48    13    49	5 ;       HGA2      CG321       HGA2
   13    14    15	5 ;      CG321      CG321      CG321
   13    14    50	5 ;      CG321      CG321       HGA2
   13    14    51	5 ;      CG321      CG321       HGA2
   15    14    50	5 ;      CG321      CG321       HGA2
   15    14    51	5 ;      CG321      CG321       HGA2
   50    14    51	5 ;       HGA2      CG321       HGA2
   14    15    16	5 ;      CG321      CG321      CG321
   14    15    52	5 ;      CG321      CG321       HGA2
   14    15    53	5 ;      CG321      CG321       HGA2
   16    15    52	5 ;      CG321      CG321       HGA2
   16    15    53	5 ;      CG321      CG321       HGA2
   52    15    53	5 ;       HGA2      CG321       HGA2
   15    16    17	5 ;      CG321      CG321      CG321
   15    16    54	5 ;      CG321      CG321       HGA2
   15    16    55	5 ;      CG321      CG321       HGA2
   17    16    54	5 ;      CG321      CG321       HGA2
   17    16    55	5 ;      CG321      CG321       HGA2
   54    16    55	5 ;       HGA2      CG321       HGA2
   16    17    18	5 ;      CG321      CG321      CG321
   16    17    56	5 ;      CG321      CG321       HGA2
   16    17    57	5 ;      CG321      CG321       HGA2
   18    17    56	5 ;      CG321      CG321       HGA2
   18    17    57	5 ;      CG321      CG321       HGA2
   56    17    57	5 ;       HGA2      CG321       HGA2
   17    18    22	5 ;      CG321      CG321      OG301
   17    18    58	5 ;      CG321      CG321       HGA2
   17    18    59	5 ;      CG321      CG321       HGA2
   22    18    58	5 ;      OG301      CG321       HGA2
   22    18    59	5 ;      OG301      CG321       HGA2
   58    18    59	5 ;       HGA2      CG321       HGA2
   20    19    21	5 ;      CG331      CG301      CG331
   20    19   112	5 ;      CG331      CG301      OG301
   20    19    22	5 ;      CG331      CG301      OG301
   21    19   112	5 ;      CG331      CG301      OG301
   21    19    22	5 ;      CG331      CG301      OG301
  112    19    22	5 ;      OG301      CG301      OG301
   19    20    60	5 ;      CG301      CG331       HGA3
   19    20    61	5 ;      CG301      CG331       HGA3
   19    20    62	5 ;      CG301      CG331       HGA3
   60    20    61	5 ;       HGA3      CG331       HGA3
   60    20    62	5 ;       HGA3      CG331       HGA3
   61    20    62	5 ;       HGA3      CG331       HGA3
   19    21    63	5 ;      CG301      CG331       HGA3
   19    21    64	5 ;      CG301      CG331       HGA3
   19    21    65	5 ;      CG301      CG331       HGA3
   63    21    64	5 ;       HGA3      CG331       HGA3
   63    21    65	5 ;       HGA3      CG331       HGA3
   64    21    65	5 ;       HGA3      CG331       HGA3
   18    22    19	5 ;      CG321      OG301      CG301
  101    66   166	5 ;      CG2O1      NG2S1       HGP1
  101    66   100	5 ;      CG2O1      NG2S1      CG311
  166    66   100	5 ;       HGP1      NG2S1      CG311
   68    67   100	5 ;      CG2O2      CG311      CG311
   68    67   125	5 ;      CG2O2      CG311       HGA1
   68    67   112	5 ;      CG2O2      CG311      OG301
  100    67   125	5 ;      CG311      CG311       HGA1
  100    67   112	5 ;      CG311      CG311      OG301
  125    67   112	5 ;       HGA1      CG311      OG301
   67    68   113	5 ;      CG311      CG2O2      OG2D1
   67    68   114	5 ;      CG311      CG2O2      OG302
  113    68   114	5 ;      OG2D1      CG2O2      OG302
   70    69    87	5 ;      CG321      CG311      CG2D1
   70    69   126	5 ;      CG321      CG311       HGA1
   70    69   114	5 ;      CG321      CG311      OG302
   87    69   126	5 ;      CG2D1      CG311       HGA1
   87    69   114	5 ;      CG2D1      CG311      OG302
  126    69   114	5 ;       HGA1      CG311      OG302
   69    70    71	5 ;      CG311      CG321      CG301
   69    70   127	5 ;      CG311      CG321       HGA2
   69    70   128	5 ;      CG311      CG321       HGA2
   71    70   127	5 ;      CG301      CG321       HGA2
   71    70   128	5 ;      CG301      CG321       HGA2
  127    70   128	5 ;       HGA2      CG321       HGA2
   70    71    72	5 ;      CG321      CG301      CG311
   70    71    89	5 ;      CG321      CG301      CG301
   70    71   115	5 ;      CG321      CG301      OG311
   72    71    89	5 ;      CG311      CG301      CG301
   72    71   115	5 ;      CG311      CG301      OG311
   89    71   115	5 ;      CG301      CG301      OG311
   71    72    80	5 ;      CG301      CG311      CG311
   71    72   116	5 ;      CG301      CG311      OG302
   71    72   130	5 ;      CG301      CG311       HGA1
   80    72   116	5 ;      CG311      CG311      OG302
   80    72   130	5 ;      CG311      CG311       HGA1
  116    72   130	5 ;      OG302      CG311       HGA1
   74    73   117	5 ;     CG2R61      CG2O2      OG2D1
   74    73   116	5 ;     CG2R61      CG2O2      OG302
  117    73   116	5 ;      OG2D1      CG2O2      OG302
   73    74    75	5 ;      CG2O2     CG2R61     CG2R61
   73    74    79	5 ;      CG2O2     CG2R61     CG2R61
   75    74    79	5 ;     CG2R61     CG2R61     CG2R61
   74    75    76	5 ;     CG2R61     CG2R61     CG2R61
   74    75   131	5 ;     CG2R61     CG2R61      HGR61
   76    75   131	5 ;     CG2R61     CG2R61      HGR61
   75    76    77	5 ;     CG2R61     CG2R61     CG2R61
   75    76   132	5 ;     CG2R61     CG2R61      HGR61
   77    76   132	5 ;     CG2R61     CG2R61      HGR61
   76    77    78	5 ;     CG2R61     CG2R61     CG2R61
   76    77   133	5 ;     CG2R61     CG2R61      HGR61
   78    77   133	5 ;     CG2R61     CG2R61      HGR61
   77    78    79	5 ;     CG2R61     CG2R61     CG2R61
   77    78   134	5 ;     CG2R61     CG2R61      HGR61
   79    78   134	5 ;     CG2R61     CG2R61      HGR61
   74    79    78	5 ;     CG2R61     CG2R61     CG2R61
   74    79   135	5 ;     CG2R61     CG2R61      HGR61
   78    79   135	5 ;     CG2R61     CG2R61      HGR61
   72    80    81	5 ;      CG311      CG311      CG301
   72    80    97	5 ;      CG311      CG311     CG3RC1
   72    80   136	5 ;      CG311      CG311       HGA1
   81    80    97	5 ;      CG301      CG311     CG3RC1
   81    80   136	5 ;      CG301      CG311       HGA1
   97    80   136	5 ;     CG3RC1      CG311       HGA1
   80    81    82	5 ;      CG311      CG301      CG331
   80    81    83	5 ;      CG311      CG301      CG2O5
   80    81    92	5 ;      CG311      CG301      CG311
   82    81    83	5 ;      CG331      CG301      CG2O5
   82    81    92	5 ;      CG331      CG301      CG311
   83    81    92	5 ;      CG2O5      CG301      CG311
   81    82   137	5 ;      CG301      CG331       HGA3
   81    82   138	5 ;      CG301      CG331       HGA3
   81    82   139	5 ;      CG301      CG331       HGA3
  137    82   138	5 ;       HGA3      CG331       HGA3
  137    82   139	5 ;       HGA3      CG331       HGA3
  138    82   139	5 ;       HGA3      CG331       HGA3
   81    83    84	5 ;      CG301      CG2O5      CG311
   81    83   118	5 ;      CG301      CG2O5      OG2D3
   84    83   118	5 ;      CG311      CG2O5      OG2D3
   83    84    86	5 ;      CG2O5      CG311      CG2D1
   83    84   119	5 ;      CG2O5      CG311      OG301
   83    84   140	5 ;      CG2O5      CG311       HGA1
   86    84   119	5 ;      CG2D1      CG311      OG301
   86    84   140	5 ;      CG2D1      CG311       HGA1
  119    84   140	5 ;      OG301      CG311       HGA1
  141    85   142	5 ;       HGA3      CG331       HGA3
  141    85   143	5 ;       HGA3      CG331       HGA3
  141    85   119	5 ;       HGA3      CG331      OG301
  142    85   143	5 ;       HGA3      CG331       HGA3
  142    85   119	5 ;       HGA3      CG331      OG301
  143    85   119	5 ;       HGA3      CG331      OG301
   84    86    87	5 ;      CG311      CG2D1      CG2D1
   84    86    89	5 ;      CG311      CG2D1      CG301
   87    86    89	5 ;      CG2D1      CG2D1      CG301
   69    87    86	5 ;      CG311      CG2D1      CG2D1
   69    87    88	5 ;      CG311      CG2D1      CG331
   86    87    88	5 ;      CG2D1      CG2D1      CG331
   87    88   144	5 ;      CG2D1      CG331       HGA3
   87    88   145	5 ;      CG2D1      CG331       HGA3
   87    88   146	5 ;      CG2D1      CG331       HGA3
  144    88   145	5 ;       HGA3      CG331       HGA3
  144    88   146	5 ;       HGA3      CG331       HGA3
  145    88   146	5 ;       HGA3      CG331       HGA3
   71    89    86	5 ;      CG301      CG301      CG2D1
   71    89    90	5 ;      CG301      CG301      CG331
   71    89    91	5 ;      CG301      CG301      CG331
   86    89    90	5 ;      CG2D1      CG301      CG331
   86    89    91	5 ;      CG2D1      CG301      CG331
   90    89    91	5 ;      CG331      CG301      CG331
   89    90   147	5 ;      CG301      CG331       HGA3
   89    90   148	5 ;      CG301      CG331       HGA3
   89    90   149	5 ;      CG301      CG331       HGA3
  147    90   148	5 ;       HGA3      CG331       HGA3
  147    90   149	5 ;       HGA3      CG331       HGA3
  148    90   149	5 ;       HGA3      CG331       HGA3
   89    91   150	5 ;      CG301      CG331       HGA3
   89    91   151	5 ;      CG301      CG331       HGA3
   89    91   152	5 ;      CG301      CG331       HGA3
  150    91   151	5 ;       HGA3      CG331       HGA3
  150    91   152	5 ;       HGA3      CG331       HGA3
  151    91   152	5 ;       HGA3      CG331       HGA3
   81    92    94	5 ;      CG301      CG311      CG321
   81    92   120	5 ;      CG301      CG311      OG301
   81    92   153	5 ;      CG301      CG311       HGA1
   94    92   120	5 ;      CG321      CG311      OG301
   94    92   153	5 ;      CG321      CG311       HGA1
  120    92   153	5 ;      OG301      CG311       HGA1
  154    93   155	5 ;       HGA3      CG331       HGA3
  154    93   156	5 ;       HGA3      CG331       HGA3
  154    93   120	5 ;       HGA3      CG331      OG301
  155    93   156	5 ;       HGA3      CG331       HGA3
  155    93   120	5 ;       HGA3      CG331      OG301
  156    93   120	5 ;       HGA3      CG331      OG301
   92    94    95	5 ;      CG311      CG321     CG3RC1
   92    94   157	5 ;      CG311      CG321       HGA2
   92    94   158	5 ;      CG311      CG321       HGA2
   95    94   157	5 ;     CG3RC1      CG321       HGA2
   95    94   158	5 ;     CG3RC1      CG321       HGA2
  157    94   158	5 ;       HGA2      CG321       HGA2
   94    95    97	5 ;      CG321     CG3RC1     CG3RC1
   94    95   121	5 ;      CG321     CG3RC1     OG3C51
   94    95   159	5 ;      CG321     CG3RC1       HGA1
   97    95   121	5 ;     CG3RC1     CG3RC1     OG3C51
   97    95   159	5 ;     CG3RC1     CG3RC1       HGA1
  121    95   159	5 ;     OG3C51     CG3RC1       HGA1
   97    96   160	5 ;     CG3RC1     CG3C41       HGA2
   97    96   161	5 ;     CG3RC1     CG3C41       HGA2
   97    96   121	5 ;     CG3RC1     CG3C41     OG3C51
  160    96   161	5 ;       HGA2     CG3C41       HGA2
  160    96   121	5 ;       HGA2     CG3C41     OG3C51
  161    96   121	5 ;       HGA2     CG3C41     OG3C51
   80    97    95	5 ;      CG311     CG3RC1     CG3RC1
   80    97    96	5 ;      CG311     CG3RC1     CG3C41
   80    97   122	5 ;      CG311     CG3RC1      OG302
   95    97    96	5 ;     CG3RC1     CG3RC1     CG3C41
   95    97   122	5 ;     CG3RC1     CG3RC1      OG302
   96    97   122	5 ;     CG3C41     CG3RC1      OG302
   99    98   123	5 ;      CG331      CG2O2      OG2D1
   99    98   122	5 ;      CG331      CG2O2      OG302
  123    98   122	5 ;      OG2D1      CG2O2      OG302
   98    99   162	5 ;      CG2O2      CG331       HGA3
   98    99   163	5 ;      CG2O2      CG331       HGA3
   98    99   164	5 ;      CG2O2      CG331       HGA3
  162    99   163	5 ;       HGA3      CG331       HGA3
  162    99   164	5 ;       HGA3      CG331       HGA3
  163    99   164	5 ;       HGA3      CG331       HGA3
   67   100    66	5 ;      CG311      CG311      NG2S1
   67   100   106	5 ;      CG311      CG311     CG2R61
   67   100   165	5 ;      CG311      CG311       HGA1
   66   100   106	5 ;      NG2S1      CG311     CG2R61
   66   100   165	5 ;      NG2S1      CG311       HGA1
  106   100   165	5 ;     CG2R61      CG311       HGA1
   66   101   102	5 ;      NG2S1      CG2O1      CG301
   66   101   124	5 ;      NG2S1      CG2O1      OG2D1
  102   101   124	5 ;      CG301      CG2O1      OG2D1
  101   102   103	5 ;      CG2O1      CG301      CG331
  101   102   104	5 ;      CG2O1      CG301      CG331
  101   102   105	5 ;      CG2O1      CG301      CG331
  103   102   104	5 ;      CG331      CG301      CG331
  103   102   105	5 ;      CG331      CG301      CG331
  104   102   105	5 ;      CG331      CG301      CG331
  102   103   167	5 ;      CG301      CG331       HGA3
  102   103   168	5 ;      CG301      CG331       HGA3
  102   103   169	5 ;      CG301      CG331       HGA3
  167   103   168	5 ;       HGA3      CG331       HGA3
  167   103   169	5 ;       HGA3      CG331       HGA3
  168   103   169	5 ;       HGA3      CG331       HGA3
  102   104   170	5 ;      CG301      CG331       HGA3
  102   104   171	5 ;      CG301      CG331       HGA3
  102   104   172	5 ;      CG301      CG331       HGA3
  170   104   171	5 ;       HGA3      CG331       HGA3
  170   104   172	5 ;       HGA3      CG331       HGA3
  171   104   172	5 ;       HGA3      CG331       HGA3
  102   105   173	5 ;      CG301      CG331       HGA3
  102   105   174	5 ;      CG301      CG331       HGA3
  102   105   175	5 ;      CG301      CG331       HGA3
  173   105   174	5 ;       HGA3      CG331       HGA3
  173   105   175	5 ;       HGA3      CG331       HGA3
  174   105   175	5 ;       HGA3      CG331       HGA3
  100   106   107	5 ;      CG311     CG2R61     CG2R61
  100   106   111	5 ;      CG311     CG2R61     CG2R61
  107   106   111	5 ;     CG2R61     CG2R61     CG2R61
  106   107   108	5 ;     CG2R61     CG2R61     CG2R61
  106   107   176	5 ;     CG2R61     CG2R61      HGR61
  108   107   176	5 ;     CG2R61     CG2R61      HGR61
  107   108   109	5 ;     CG2R61     CG2R61     CG2R61
  107   108   177	5 ;     CG2R61     CG2R61      HGR61
  109   108   177	5 ;     CG2R61     CG2R61      HGR61
  108   109   110	5 ;     CG2R61     CG2R61     CG2R61
  108   109   178	5 ;     CG2R61     CG2R61      HGR61
  110   109   178	5 ;     CG2R61     CG2R61      HGR61
  109   110   111	5 ;     CG2R61     CG2R61     CG2R61
  109   110   179	5 ;     CG2R61     CG2R61      HGR61
  111   110   179	5 ;     CG2R61     CG2R61      HGR61
  106   111   110	5 ;     CG2R61     CG2R61     CG2R61
  106   111   180	5 ;     CG2R61     CG2R61      HGR61
  110   111   180	5 ;     CG2R61     CG2R61      HGR61
   19   112    67	5 ;      CG301      OG301      CG311
   68   114    69	5 ;      CG2O2      OG302      CG311
   71   115   129	5 ;      CG301      OG311       HGP1
   72   116    73	5 ;      CG311      OG302      CG2O2
   84   119    85	5 ;      CG311      OG301      CG331
   92   120    93	5 ;      CG311      OG301      CG331
   95   121    96	5 ;     CG3RC1     OG3C51     CG3C41
   97   122    98	5 ;     CG3RC1      OG302      CG2O2

[ dihedrals ]
;	ai	  aj	ak	  al funct			  c0			c1			  c2			c3			  c4			c5
   23     1     2     3	 9 ;       HGA3      CG331      CG321      CG321
   23     1     2    26	 9 ;       HGA3      CG331      CG321       HGA2
   23     1     2    27	 9 ;       HGA3      CG331      CG321       HGA2
   24     1     2     3	 9 ;       HGA3      CG331      CG321      CG321
   24     1     2    26	 9 ;       HGA3      CG331      CG321       HGA2
   24     1     2    27	 9 ;       HGA3      CG331      CG321       HGA2
   25     1     2     3	 9 ;       HGA3      CG331      CG321      CG321
   25     1     2    26	 9 ;       HGA3      CG331      CG321       HGA2
   25     1     2    27	 9 ;       HGA3      CG331      CG321       HGA2
    1     2     3     4	 9 ;      CG331      CG321      CG321      CG321
    1     2     3    28	 9 ;      CG331      CG321      CG321       HGA2
    1     2     3    29	 9 ;      CG331      CG321      CG321       HGA2
   26     2     3     4	 9 ;       HGA2      CG321      CG321      CG321
   26     2     3    28	 9 ;       HGA2      CG321      CG321       HGA2
   26     2     3    29	 9 ;       HGA2      CG321      CG321       HGA2
   27     2     3     4	 9 ;       HGA2      CG321      CG321      CG321
   27     2     3    28	 9 ;       HGA2      CG321      CG321       HGA2
   27     2     3    29	 9 ;       HGA2      CG321      CG321       HGA2
    2     3     4     5	 9 ;      CG321      CG321      CG321      CG321
    2     3     4    30	 9 ;      CG321      CG321      CG321       HGA2
    2     3     4    31	 9 ;      CG321      CG321      CG321       HGA2
   28     3     4     5	 9 ;       HGA2      CG321      CG321      CG321
   28     3     4    30	 9 ;       HGA2      CG321      CG321       HGA2
   28     3     4    31	 9 ;       HGA2      CG321      CG321       HGA2
   29     3     4     5	 9 ;       HGA2      CG321      CG321      CG321
   29     3     4    30	 9 ;       HGA2      CG321      CG321       HGA2
   29     3     4    31	 9 ;       HGA2      CG321      CG321       HGA2
    3     4     5     6	 9 ;      CG321      CG321      CG321      CG321
    3     4     5    32	 9 ;      CG321      CG321      CG321       HGA2
    3     4     5    33	 9 ;      CG321      CG321      CG321       HGA2
   30     4     5     6	 9 ;       HGA2      CG321      CG321      CG321
   30     4     5    32	 9 ;       HGA2      CG321      CG321       HGA2
   30     4     5    33	 9 ;       HGA2      CG321      CG321       HGA2
   31     4     5     6	 9 ;       HGA2      CG321      CG321      CG321
   31     4     5    32	 9 ;       HGA2      CG321      CG321       HGA2
   31     4     5    33	 9 ;       HGA2      CG321      CG321       HGA2
    4     5     6     7	 9 ;      CG321      CG321      CG321      CG321
    4     5     6    34	 9 ;      CG321      CG321      CG321       HGA2
    4     5     6    35	 9 ;      CG321      CG321      CG321       HGA2
   32     5     6     7	 9 ;       HGA2      CG321      CG321      CG321
   32     5     6    34	 9 ;       HGA2      CG321      CG321       HGA2
   32     5     6    35	 9 ;       HGA2      CG321      CG321       HGA2
   33     5     6     7	 9 ;       HGA2      CG321      CG321      CG321
   33     5     6    34	 9 ;       HGA2      CG321      CG321       HGA2
   33     5     6    35	 9 ;       HGA2      CG321      CG321       HGA2
    5     6     7     8	 9 ;      CG321      CG321      CG321      CG321
    5     6     7    36	 9 ;      CG321      CG321      CG321       HGA2
    5     6     7    37	 9 ;      CG321      CG321      CG321       HGA2
   34     6     7     8	 9 ;       HGA2      CG321      CG321      CG321
   34     6     7    36	 9 ;       HGA2      CG321      CG321       HGA2
   34     6     7    37	 9 ;       HGA2      CG321      CG321       HGA2
   35     6     7     8	 9 ;       HGA2      CG321      CG321      CG321
   35     6     7    36	 9 ;       HGA2      CG321      CG321       HGA2
   35     6     7    37	 9 ;       HGA2      CG321      CG321       HGA2
    6     7     8     9	 9 ;      CG321      CG321      CG321      CG321
    6     7     8    38	 9 ;      CG321      CG321      CG321       HGA2
    6     7     8    39	 9 ;      CG321      CG321      CG321       HGA2
   36     7     8     9	 9 ;       HGA2      CG321      CG321      CG321
   36     7     8    38	 9 ;       HGA2      CG321      CG321       HGA2
   36     7     8    39	 9 ;       HGA2      CG321      CG321       HGA2
   37     7     8     9	 9 ;       HGA2      CG321      CG321      CG321
   37     7     8    38	 9 ;       HGA2      CG321      CG321       HGA2
   37     7     8    39	 9 ;       HGA2      CG321      CG321       HGA2
    7     8     9    10	 9 ;      CG321      CG321      CG321      CG321
    7     8     9    40	 9 ;      CG321      CG321      CG321       HGA2
    7     8     9    41	 9 ;      CG321      CG321      CG321       HGA2
   38     8     9    10	 9 ;       HGA2      CG321      CG321      CG321
   38     8     9    40	 9 ;       HGA2      CG321      CG321       HGA2
   38     8     9    41	 9 ;       HGA2      CG321      CG321       HGA2
   39     8     9    10	 9 ;       HGA2      CG321      CG321      CG321
   39     8     9    40	 9 ;       HGA2      CG321      CG321       HGA2
   39     8     9    41	 9 ;       HGA2      CG321      CG321       HGA2
    8     9    10    11	 9 ;      CG321      CG321      CG321      CG321
    8     9    10    42	 9 ;      CG321      CG321      CG321       HGA2
    8     9    10    43	 9 ;      CG321      CG321      CG321       HGA2
   40     9    10    11	 9 ;       HGA2      CG321      CG321      CG321
   40     9    10    42	 9 ;       HGA2      CG321      CG321       HGA2
   40     9    10    43	 9 ;       HGA2      CG321      CG321       HGA2
   41     9    10    11	 9 ;       HGA2      CG321      CG321      CG321
   41     9    10    42	 9 ;       HGA2      CG321      CG321       HGA2
   41     9    10    43	 9 ;       HGA2      CG321      CG321       HGA2
    9    10    11    12	 9 ;      CG321      CG321      CG321      CG321
    9    10    11    44	 9 ;      CG321      CG321      CG321       HGA2
    9    10    11    45	 9 ;      CG321      CG321      CG321       HGA2
   42    10    11    12	 9 ;       HGA2      CG321      CG321      CG321
   42    10    11    44	 9 ;       HGA2      CG321      CG321       HGA2
   42    10    11    45	 9 ;       HGA2      CG321      CG321       HGA2
   43    10    11    12	 9 ;       HGA2      CG321      CG321      CG321
   43    10    11    44	 9 ;       HGA2      CG321      CG321       HGA2
   43    10    11    45	 9 ;       HGA2      CG321      CG321       HGA2
   10    11    12    13	 9 ;      CG321      CG321      CG321      CG321
   10    11    12    46	 9 ;      CG321      CG321      CG321       HGA2
   10    11    12    47	 9 ;      CG321      CG321      CG321       HGA2
   44    11    12    13	 9 ;       HGA2      CG321      CG321      CG321
   44    11    12    46	 9 ;       HGA2      CG321      CG321       HGA2
   44    11    12    47	 9 ;       HGA2      CG321      CG321       HGA2
   45    11    12    13	 9 ;       HGA2      CG321      CG321      CG321
   45    11    12    46	 9 ;       HGA2      CG321      CG321       HGA2
   45    11    12    47	 9 ;       HGA2      CG321      CG321       HGA2
   11    12    13    14	 9 ;      CG321      CG321      CG321      CG321
   11    12    13    48	 9 ;      CG321      CG321      CG321       HGA2
   11    12    13    49	 9 ;      CG321      CG321      CG321       HGA2
   46    12    13    14	 9 ;       HGA2      CG321      CG321      CG321
   46    12    13    48	 9 ;       HGA2      CG321      CG321       HGA2
   46    12    13    49	 9 ;       HGA2      CG321      CG321       HGA2
   47    12    13    14	 9 ;       HGA2      CG321      CG321      CG321
   47    12    13    48	 9 ;       HGA2      CG321      CG321       HGA2
   47    12    13    49	 9 ;       HGA2      CG321      CG321       HGA2
   12    13    14    15	 9 ;      CG321      CG321      CG321      CG321
   12    13    14    50	 9 ;      CG321      CG321      CG321       HGA2
   12    13    14    51	 9 ;      CG321      CG321      CG321       HGA2
   48    13    14    15	 9 ;       HGA2      CG321      CG321      CG321
   48    13    14    50	 9 ;       HGA2      CG321      CG321       HGA2
   48    13    14    51	 9 ;       HGA2      CG321      CG321       HGA2
   49    13    14    15	 9 ;       HGA2      CG321      CG321      CG321
   49    13    14    50	 9 ;       HGA2      CG321      CG321       HGA2
   49    13    14    51	 9 ;       HGA2      CG321      CG321       HGA2
   13    14    15    16	 9 ;      CG321      CG321      CG321      CG321
   13    14    15    52	 9 ;      CG321      CG321      CG321       HGA2
   13    14    15    53	 9 ;      CG321      CG321      CG321       HGA2
   50    14    15    16	 9 ;       HGA2      CG321      CG321      CG321
   50    14    15    52	 9 ;       HGA2      CG321      CG321       HGA2
   50    14    15    53	 9 ;       HGA2      CG321      CG321       HGA2
   51    14    15    16	 9 ;       HGA2      CG321      CG321      CG321
   51    14    15    52	 9 ;       HGA2      CG321      CG321       HGA2
   51    14    15    53	 9 ;       HGA2      CG321      CG321       HGA2
   14    15    16    17	 9 ;      CG321      CG321      CG321      CG321
   14    15    16    54	 9 ;      CG321      CG321      CG321       HGA2
   14    15    16    55	 9 ;      CG321      CG321      CG321       HGA2
   52    15    16    17	 9 ;       HGA2      CG321      CG321      CG321
   52    15    16    54	 9 ;       HGA2      CG321      CG321       HGA2
   52    15    16    55	 9 ;       HGA2      CG321      CG321       HGA2
   53    15    16    17	 9 ;       HGA2      CG321      CG321      CG321
   53    15    16    54	 9 ;       HGA2      CG321      CG321       HGA2
   53    15    16    55	 9 ;       HGA2      CG321      CG321       HGA2
   15    16    17    18	 9 ;      CG321      CG321      CG321      CG321
   15    16    17    56	 9 ;      CG321      CG321      CG321       HGA2
   15    16    17    57	 9 ;      CG321      CG321      CG321       HGA2
   54    16    17    18	 9 ;       HGA2      CG321      CG321      CG321
   54    16    17    56	 9 ;       HGA2      CG321      CG321       HGA2
   54    16    17    57	 9 ;       HGA2      CG321      CG321       HGA2
   55    16    17    18	 9 ;       HGA2      CG321      CG321      CG321
   55    16    17    56	 9 ;       HGA2      CG321      CG321       HGA2
   55    16    17    57	 9 ;       HGA2      CG321      CG321       HGA2
   16    17    18    22	 9 ;      CG321      CG321      CG321      OG301
   16    17    18    58	 9 ;      CG321      CG321      CG321       HGA2
   16    17    18    59	 9 ;      CG321      CG321      CG321       HGA2
   56    17    18    22	 9 ;       HGA2      CG321      CG321      OG301
   56    17    18    58	 9 ;       HGA2      CG321      CG321       HGA2
   56    17    18    59	 9 ;       HGA2      CG321      CG321       HGA2
   57    17    18    22	 9 ;       HGA2      CG321      CG321      OG301
   57    17    18    58	 9 ;       HGA2      CG321      CG321       HGA2
   57    17    18    59	 9 ;       HGA2      CG321      CG321       HGA2
   17    18    22    19	 9 ;      CG321      CG321      OG301      CG301
   58    18    22    19	 9 ;       HGA2      CG321      OG301      CG301
   59    18    22    19	 9 ;       HGA2      CG321      OG301      CG301
   21    19    20    60	 9 ;      CG331      CG301      CG331       HGA3
   21    19    20    61	 9 ;      CG331      CG301      CG331       HGA3
   21    19    20    62	 9 ;      CG331      CG301      CG331       HGA3
  112    19    20    60	 9 ;      OG301      CG301      CG331       HGA3
  112    19    20    61	 9 ;      OG301      CG301      CG331       HGA3
  112    19    20    62	 9 ;      OG301      CG301      CG331       HGA3
   22    19    20    60	 9 ;      OG301      CG301      CG331       HGA3
   22    19    20    61	 9 ;      OG301      CG301      CG331       HGA3
   22    19    20    62	 9 ;      OG301      CG301      CG331       HGA3
   20    19    21    63	 9 ;      CG331      CG301      CG331       HGA3
   20    19    21    64	 9 ;      CG331      CG301      CG331       HGA3
   20    19    21    65	 9 ;      CG331      CG301      CG331       HGA3
  112    19    21    63	 9 ;      OG301      CG301      CG331       HGA3
  112    19    21    64	 9 ;      OG301      CG301      CG331       HGA3
  112    19    21    65	 9 ;      OG301      CG301      CG331       HGA3
   22    19    21    63	 9 ;      OG301      CG301      CG331       HGA3
   22    19    21    64	 9 ;      OG301      CG301      CG331       HGA3
   22    19    21    65	 9 ;      OG301      CG301      CG331       HGA3
   20    19   112    67	 9 ;      CG331      CG301      OG301      CG311
   21    19   112    67	 9 ;      CG331      CG301      OG301      CG311
   22    19   112    67	 9 ;      OG301      CG301      OG301      CG311
   20    19    22    18	 9 ;      CG331      CG301      OG301      CG321
   21    19    22    18	 9 ;      CG331      CG301      OG301      CG321
  112    19    22    18	 9 ;      OG301      CG301      OG301      CG321
  166    66   101   102	 9 ;       HGP1      NG2S1      CG2O1      CG301
  166    66   101   124	 9 ;       HGP1      NG2S1      CG2O1      OG2D1
  100    66   101   102	 9 ;      CG311      NG2S1      CG2O1      CG301
  100    66   101   124	 9 ;      CG311      NG2S1      CG2O1      OG2D1
  101    66   100    67	 9 ;      CG2O1      NG2S1      CG311      CG311
  101    66   100   106	 9 ;      CG2O1      NG2S1      CG311     CG2R61
  101    66   100   165	 9 ;      CG2O1      NG2S1      CG311       HGA1
  166    66   100    67	 9 ;       HGP1      NG2S1      CG311      CG311
  166    66   100   106	 9 ;       HGP1      NG2S1      CG311     CG2R61
  166    66   100   165	 9 ;       HGP1      NG2S1      CG311       HGA1
  100    67    68   113	 9 ;      CG311      CG311      CG2O2      OG2D1
  100    67    68   114	 9 ;      CG311      CG311      CG2O2      OG302
  125    67    68   113	 9 ;       HGA1      CG311      CG2O2      OG2D1
  125    67    68   114	 9 ;       HGA1      CG311      CG2O2      OG302
  112    67    68   113	 9 ;      OG301      CG311      CG2O2      OG2D1
  112    67    68   114	 9 ;      OG301      CG311      CG2O2      OG302
   68    67   100    66	 9 ;      CG2O2      CG311      CG311      NG2S1
   68    67   100   106	 9 ;      CG2O2      CG311      CG311     CG2R61
   68    67   100   165	 9 ;      CG2O2      CG311      CG311       HGA1
  125    67   100    66	 9 ;       HGA1      CG311      CG311      NG2S1
  125    67   100   106	 9 ;       HGA1      CG311      CG311     CG2R61
  125    67   100   165	 9 ;       HGA1      CG311      CG311       HGA1
  112    67   100    66	 9 ;      OG301      CG311      CG311      NG2S1
  112    67   100   106	 9 ;      OG301      CG311      CG311     CG2R61
  112    67   100   165	 9 ;      OG301      CG311      CG311       HGA1
   68    67   112    19	 9 ;      CG2O2      CG311      OG301      CG301
  100    67   112    19	 9 ;      CG311      CG311      OG301      CG301
  125    67   112    19	 9 ;       HGA1      CG311      OG301      CG301
   67    68   114    69	 9 ;      CG311      CG2O2      OG302      CG311
  113    68   114    69	 9 ;      OG2D1      CG2O2      OG302      CG311
   87    69    70    71	 9 ;      CG2D1      CG311      CG321      CG301
   87    69    70   127	 9 ;      CG2D1      CG311      CG321       HGA2
   87    69    70   128	 9 ;      CG2D1      CG311      CG321       HGA2
  126    69    70    71	 9 ;       HGA1      CG311      CG321      CG301
  126    69    70   127	 9 ;       HGA1      CG311      CG321       HGA2
  126    69    70   128	 9 ;       HGA1      CG311      CG321       HGA2
  114    69    70    71	 9 ;      OG302      CG311      CG321      CG301
  114    69    70   127	 9 ;      OG302      CG311      CG321       HGA2
  114    69    70   128	 9 ;      OG302      CG311      CG321       HGA2
   70    69    87    86	 9 ;      CG321      CG311      CG2D1      CG2D1
   70    69    87    88	 9 ;      CG321      CG311      CG2D1      CG331
  126    69    87    86	 9 ;       HGA1      CG311      CG2D1      CG2D1
  126    69    87    88	 9 ;       HGA1      CG311      CG2D1      CG331
  114    69    87    86	 9 ;      OG302      CG311      CG2D1      CG2D1
  114    69    87    88	 9 ;      OG302      CG311      CG2D1      CG331
   70    69   114    68	 9 ;      CG321      CG311      OG302      CG2O2
   87    69   114    68	 9 ;      CG2D1      CG311      OG302      CG2O2
  126    69   114    68	 9 ;       HGA1      CG311      OG302      CG2O2
   69    70    71    72	 9 ;      CG311      CG321      CG301      CG311
   69    70    71    89	 9 ;      CG311      CG321      CG301      CG301
   69    70    71   115	 9 ;      CG311      CG321      CG301      OG311
  127    70    71    72	 9 ;       HGA2      CG321      CG301      CG311
  127    70    71    89	 9 ;       HGA2      CG321      CG301      CG301
  127    70    71   115	 9 ;       HGA2      CG321      CG301      OG311
  128    70    71    72	 9 ;       HGA2      CG321      CG301      CG311
  128    70    71    89	 9 ;       HGA2      CG321      CG301      CG301
  128    70    71   115	 9 ;       HGA2      CG321      CG301      OG311
   70    71    72    80	 9 ;      CG321      CG301      CG311      CG311
   70    71    72   116	 9 ;      CG321      CG301      CG311      OG302
   70    71    72   130	 9 ;      CG321      CG301      CG311       HGA1
   89    71    72    80	 9 ;      CG301      CG301      CG311      CG311
   89    71    72   116	 9 ;      CG301      CG301      CG311      OG302
   89    71    72   130	 9 ;      CG301      CG301      CG311       HGA1
  115    71    72    80	 9 ;      OG311      CG301      CG311      CG311
  115    71    72   116	 9 ;      OG311      CG301      CG311      OG302
  115    71    72   130	 9 ;      OG311      CG301      CG311       HGA1
   70    71    89    86	 9 ;      CG321      CG301      CG301      CG2D1
   70    71    89    90	 9 ;      CG321      CG301      CG301      CG331
   70    71    89    91	 9 ;      CG321      CG301      CG301      CG331
   72    71    89    86	 9 ;      CG311      CG301      CG301      CG2D1
   72    71    89    90	 9 ;      CG311      CG301      CG301      CG331
   72    71    89    91	 9 ;      CG311      CG301      CG301      CG331
  115    71    89    86	 9 ;      OG311      CG301      CG301      CG2D1
  115    71    89    90	 9 ;      OG311      CG301      CG301      CG331
  115    71    89    91	 9 ;      OG311      CG301      CG301      CG331
   70    71   115   129	 9 ;      CG321      CG301      OG311       HGP1
   72    71   115   129	 9 ;      CG311      CG301      OG311       HGP1
   89    71   115   129	 9 ;      CG301      CG301      OG311       HGP1
   71    72    80    81	 9 ;      CG301      CG311      CG311      CG301
   71    72    80    97	 9 ;      CG301      CG311      CG311     CG3RC1
   71    72    80   136	 9 ;      CG301      CG311      CG311       HGA1
  116    72    80    81	 9 ;      OG302      CG311      CG311      CG301
  116    72    80    97	 9 ;      OG302      CG311      CG311     CG3RC1
  116    72    80   136	 9 ;      OG302      CG311      CG311       HGA1
  130    72    80    81	 9 ;       HGA1      CG311      CG311      CG301
  130    72    80    97	 9 ;       HGA1      CG311      CG311     CG3RC1
  130    72    80   136	 9 ;       HGA1      CG311      CG311       HGA1
   71    72   116    73	 9 ;      CG301      CG311      OG302      CG2O2
   80    72   116    73	 9 ;      CG311      CG311      OG302      CG2O2
  130    72   116    73	 9 ;       HGA1      CG311      OG302      CG2O2
  117    73    74    75	 9 ;      OG2D1      CG2O2     CG2R61     CG2R61
  117    73    74    79	 9 ;      OG2D1      CG2O2     CG2R61     CG2R61
  116    73    74    75	 9 ;      OG302      CG2O2     CG2R61     CG2R61
  116    73    74    79	 9 ;      OG302      CG2O2     CG2R61     CG2R61
   74    73   116    72	 9 ;     CG2R61      CG2O2      OG302      CG311
  117    73   116    72	 9 ;      OG2D1      CG2O2      OG302      CG311
   73    74    75    76	 9 ;      CG2O2     CG2R61     CG2R61     CG2R61
   73    74    75   131	 9 ;      CG2O2     CG2R61     CG2R61      HGR61
   79    74    75    76	 9 ;     CG2R61     CG2R61     CG2R61     CG2R61
   79    74    75   131	 9 ;     CG2R61     CG2R61     CG2R61      HGR61
   73    74    79    78	 9 ;      CG2O2     CG2R61     CG2R61     CG2R61
   73    74    79   135	 9 ;      CG2O2     CG2R61     CG2R61      HGR61
   75    74    79    78	 9 ;     CG2R61     CG2R61     CG2R61     CG2R61
   75    74    79   135	 9 ;     CG2R61     CG2R61     CG2R61      HGR61
   74    75    76    77	 9 ;     CG2R61     CG2R61     CG2R61     CG2R61
   74    75    76   132	 9 ;     CG2R61     CG2R61     CG2R61      HGR61
  131    75    76    77	 9 ;      HGR61     CG2R61     CG2R61     CG2R61
  131    75    76   132	 9 ;      HGR61     CG2R61     CG2R61      HGR61
   75    76    77    78	 9 ;     CG2R61     CG2R61     CG2R61     CG2R61
   75    76    77   133	 9 ;     CG2R61     CG2R61     CG2R61      HGR61
  132    76    77    78	 9 ;      HGR61     CG2R61     CG2R61     CG2R61
  132    76    77   133	 9 ;      HGR61     CG2R61     CG2R61      HGR61
   76    77    78    79	 9 ;     CG2R61     CG2R61     CG2R61     CG2R61
   76    77    78   134	 9 ;     CG2R61     CG2R61     CG2R61      HGR61
  133    77    78    79	 9 ;      HGR61     CG2R61     CG2R61     CG2R61
  133    77    78   134	 9 ;      HGR61     CG2R61     CG2R61      HGR61
   77    78    79    74	 9 ;     CG2R61     CG2R61     CG2R61     CG2R61
   77    78    79   135	 9 ;     CG2R61     CG2R61     CG2R61      HGR61
  134    78    79    74	 9 ;      HGR61     CG2R61     CG2R61     CG2R61
  134    78    79   135	 9 ;      HGR61     CG2R61     CG2R61      HGR61
   72    80    81    82	 9 ;      CG311      CG311      CG301      CG331
   72    80    81    83	 9 ;      CG311      CG311      CG301      CG2O5
   72    80    81    92	 9 ;      CG311      CG311      CG301      CG311
   97    80    81    82	 9 ;     CG3RC1      CG311      CG301      CG331
   97    80    81    83	 9 ;     CG3RC1      CG311      CG301      CG2O5
   97    80    81    92	 9 ;     CG3RC1      CG311      CG301      CG311
  136    80    81    82	 9 ;       HGA1      CG311      CG301      CG331
  136    80    81    83	 9 ;       HGA1      CG311      CG301      CG2O5
  136    80    81    92	 9 ;       HGA1      CG311      CG301      CG311
   72    80    97    95	 9 ;      CG311      CG311     CG3RC1     CG3RC1
   72    80    97    96	 9 ;      CG311      CG311     CG3RC1     CG3C41
   72    80    97   122	 9 ;      CG311      CG311     CG3RC1      OG302
   81    80    97    95	 9 ;      CG301      CG311     CG3RC1     CG3RC1
   81    80    97    96	 9 ;      CG301      CG311     CG3RC1     CG3C41
   81    80    97   122	 9 ;      CG301      CG311     CG3RC1      OG302
  136    80    97    95	 9 ;       HGA1      CG311     CG3RC1     CG3RC1
  136    80    97    96	 9 ;       HGA1      CG311     CG3RC1     CG3C41
  136    80    97   122	 9 ;       HGA1      CG311     CG3RC1      OG302
   80    81    82   137	 9 ;      CG311      CG301      CG331       HGA3
   80    81    82   138	 9 ;      CG311      CG301      CG331       HGA3
   80    81    82   139	 9 ;      CG311      CG301      CG331       HGA3
   83    81    82   137	 9 ;      CG2O5      CG301      CG331       HGA3
   83    81    82   138	 9 ;      CG2O5      CG301      CG331       HGA3
   83    81    82   139	 9 ;      CG2O5      CG301      CG331       HGA3
   92    81    82   137	 9 ;      CG311      CG301      CG331       HGA3
   92    81    82   138	 9 ;      CG311      CG301      CG331       HGA3
   92    81    82   139	 9 ;      CG311      CG301      CG331       HGA3
   80    81    83    84	 9 ;      CG311      CG301      CG2O5      CG311
   80    81    83   118	 9 ;      CG311      CG301      CG2O5      OG2D3
   82    81    83    84	 9 ;      CG331      CG301      CG2O5      CG311
   82    81    83   118	 9 ;      CG331      CG301      CG2O5      OG2D3
   92    81    83    84	 9 ;      CG311      CG301      CG2O5      CG311
   92    81    83   118	 9 ;      CG311      CG301      CG2O5      OG2D3
   80    81    92    94	 9 ;      CG311      CG301      CG311      CG321
   80    81    92   120	 9 ;      CG311      CG301      CG311      OG301
   80    81    92   153	 9 ;      CG311      CG301      CG311       HGA1
   82    81    92    94	 9 ;      CG331      CG301      CG311      CG321
   82    81    92   120	 9 ;      CG331      CG301      CG311      OG301
   82    81    92   153	 9 ;      CG331      CG301      CG311       HGA1
   83    81    92    94	 9 ;      CG2O5      CG301      CG311      CG321
   83    81    92   120	 9 ;      CG2O5      CG301      CG311      OG301
   83    81    92   153	 9 ;      CG2O5      CG301      CG311       HGA1
   81    83    84    86	 9 ;      CG301      CG2O5      CG311      CG2D1
   81    83    84   119	 9 ;      CG301      CG2O5      CG311      OG301
   81    83    84   140	 9 ;      CG301      CG2O5      CG311       HGA1
  118    83    84    86	 9 ;      OG2D3      CG2O5      CG311      CG2D1
  118    83    84   119	 9 ;      OG2D3      CG2O5      CG311      OG301
  118    83    84   140	 9 ;      OG2D3      CG2O5      CG311       HGA1
   83    84    86    87	 9 ;      CG2O5      CG311      CG2D1      CG2D1
   83    84    86    89	 9 ;      CG2O5      CG311      CG2D1      CG301
  119    84    86    87	 9 ;      OG301      CG311      CG2D1      CG2D1
  119    84    86    89	 9 ;      OG301      CG311      CG2D1      CG301
  140    84    86    87	 9 ;       HGA1      CG311      CG2D1      CG2D1
  140    84    86    89	 9 ;       HGA1      CG311      CG2D1      CG301
   83    84   119    85	 9 ;      CG2O5      CG311      OG301      CG331
   86    84   119    85	 9 ;      CG2D1      CG311      OG301      CG331
  140    84   119    85	 9 ;       HGA1      CG311      OG301      CG331
  141    85   119    84	 9 ;       HGA3      CG331      OG301      CG311
  142    85   119    84	 9 ;       HGA3      CG331      OG301      CG311
  143    85   119    84	 9 ;       HGA3      CG331      OG301      CG311
   84    86    87    69	 9 ;      CG311      CG2D1      CG2D1      CG311
   84    86    87    88	 9 ;      CG311      CG2D1      CG2D1      CG331
   89    86    87    69	 9 ;      CG301      CG2D1      CG2D1      CG311
   89    86    87    88	 9 ;      CG301      CG2D1      CG2D1      CG331
   84    86    89    71	 9 ;      CG311      CG2D1      CG301      CG301
   84    86    89    90	 9 ;      CG311      CG2D1      CG301      CG331
   84    86    89    91	 9 ;      CG311      CG2D1      CG301      CG331
   87    86    89    71	 9 ;      CG2D1      CG2D1      CG301      CG301
   87    86    89    90	 9 ;      CG2D1      CG2D1      CG301      CG331
   87    86    89    91	 9 ;      CG2D1      CG2D1      CG301      CG331
   69    87    88   144	 9 ;      CG311      CG2D1      CG331       HGA3
   69    87    88   145	 9 ;      CG311      CG2D1      CG331       HGA3
   69    87    88   146	 9 ;      CG311      CG2D1      CG331       HGA3
   86    87    88   144	 9 ;      CG2D1      CG2D1      CG331       HGA3
   86    87    88   145	 9 ;      CG2D1      CG2D1      CG331       HGA3
   86    87    88   146	 9 ;      CG2D1      CG2D1      CG331       HGA3
   71    89    90   147	 9 ;      CG301      CG301      CG331       HGA3
   71    89    90   148	 9 ;      CG301      CG301      CG331       HGA3
   71    89    90   149	 9 ;      CG301      CG301      CG331       HGA3
   86    89    90   147	 9 ;      CG2D1      CG301      CG331       HGA3
   86    89    90   148	 9 ;      CG2D1      CG301      CG331       HGA3
   86    89    90   149	 9 ;      CG2D1      CG301      CG331       HGA3
   91    89    90   147	 9 ;      CG331      CG301      CG331       HGA3
   91    89    90   148	 9 ;      CG331      CG301      CG331       HGA3
   91    89    90   149	 9 ;      CG331      CG301      CG331       HGA3
   71    89    91   150	 9 ;      CG301      CG301      CG331       HGA3
   71    89    91   151	 9 ;      CG301      CG301      CG331       HGA3
   71    89    91   152	 9 ;      CG301      CG301      CG331       HGA3
   86    89    91   150	 9 ;      CG2D1      CG301      CG331       HGA3
   86    89    91   151	 9 ;      CG2D1      CG301      CG331       HGA3
   86    89    91   152	 9 ;      CG2D1      CG301      CG331       HGA3
   90    89    91   150	 9 ;      CG331      CG301      CG331       HGA3
   90    89    91   151	 9 ;      CG331      CG301      CG331       HGA3
   90    89    91   152	 9 ;      CG331      CG301      CG331       HGA3
   81    92    94    95	 9 ;      CG301      CG311      CG321     CG3RC1
   81    92    94   157	 9 ;      CG301      CG311      CG321       HGA2
   81    92    94   158	 9 ;      CG301      CG311      CG321       HGA2
  120    92    94    95	 9 ;      OG301      CG311      CG321     CG3RC1
  120    92    94   157	 9 ;      OG301      CG311      CG321       HGA2
  120    92    94   158	 9 ;      OG301      CG311      CG321       HGA2
  153    92    94    95	 9 ;       HGA1      CG311      CG321     CG3RC1
  153    92    94   157	 9 ;       HGA1      CG311      CG321       HGA2
  153    92    94   158	 9 ;       HGA1      CG311      CG321       HGA2
   81    92   120    93	 9 ;      CG301      CG311      OG301      CG331
   94    92   120    93	 9 ;      CG321      CG311      OG301      CG331
  153    92   120    93	 9 ;       HGA1      CG311      OG301      CG331
  154    93   120    92	 9 ;       HGA3      CG331      OG301      CG311
  155    93   120    92	 9 ;       HGA3      CG331      OG301      CG311
  156    93   120    92	 9 ;       HGA3      CG331      OG301      CG311
   92    94    95    97	 9 ;      CG311      CG321     CG3RC1     CG3RC1
   92    94    95   121	 9 ;      CG311      CG321     CG3RC1     OG3C51
   92    94    95   159	 9 ;      CG311      CG321     CG3RC1       HGA1
  157    94    95    97	 9 ;       HGA2      CG321     CG3RC1     CG3RC1
  157    94    95   121	 9 ;       HGA2      CG321     CG3RC1     OG3C51
  157    94    95   159	 9 ;       HGA2      CG321     CG3RC1       HGA1
  158    94    95    97	 9 ;       HGA2      CG321     CG3RC1     CG3RC1
  158    94    95   121	 9 ;       HGA2      CG321     CG3RC1     OG3C51
  158    94    95   159	 9 ;       HGA2      CG321     CG3RC1       HGA1
   94    95    97    80	 9 ;      CG321     CG3RC1     CG3RC1      CG311
   94    95    97    96	 9 ;      CG321     CG3RC1     CG3RC1     CG3C41
   94    95    97   122	 9 ;      CG321     CG3RC1     CG3RC1      OG302
  121    95    97    80	 9 ;     OG3C51     CG3RC1     CG3RC1      CG311
  121    95    97    96	 9 ;     OG3C51     CG3RC1     CG3RC1     CG3C41
  121    95    97   122	 9 ;     OG3C51     CG3RC1     CG3RC1      OG302
  159    95    97    80	 9 ;       HGA1     CG3RC1     CG3RC1      CG311
  159    95    97    96	 9 ;       HGA1     CG3RC1     CG3RC1     CG3C41
  159    95    97   122	 9 ;       HGA1     CG3RC1     CG3RC1      OG302
   94    95   121    96	 9 ;      CG321     CG3RC1     OG3C51     CG3C41
   97    95   121    96	 9 ;     CG3RC1     CG3RC1     OG3C51     CG3C41
  159    95   121    96	 9 ;       HGA1     CG3RC1     OG3C51     CG3C41
  160    96    97    80	 9 ;       HGA2     CG3C41     CG3RC1      CG311
  160    96    97    95	 9 ;       HGA2     CG3C41     CG3RC1     CG3RC1
  160    96    97   122	 9 ;       HGA2     CG3C41     CG3RC1      OG302
  161    96    97    80	 9 ;       HGA2     CG3C41     CG3RC1      CG311
  161    96    97    95	 9 ;       HGA2     CG3C41     CG3RC1     CG3RC1
  161    96    97   122	 9 ;       HGA2     CG3C41     CG3RC1      OG302
  121    96    97    80	 9 ;     OG3C51     CG3C41     CG3RC1      CG311
  121    96    97    95	 9 ;     OG3C51     CG3C41     CG3RC1     CG3RC1
  121    96    97   122	 9 ;     OG3C51     CG3C41     CG3RC1      OG302
   97    96   121    95	 9 ;     CG3RC1     CG3C41     OG3C51     CG3RC1
  160    96   121    95	 9 ;       HGA2     CG3C41     OG3C51     CG3RC1
  161    96   121    95	 9 ;       HGA2     CG3C41     OG3C51     CG3RC1
   80    97   122    98	 9 ;      CG311     CG3RC1      OG302      CG2O2
   95    97   122    98	 9 ;     CG3RC1     CG3RC1      OG302      CG2O2
   96    97   122    98	 9 ;     CG3C41     CG3RC1      OG302      CG2O2
  123    98    99   162	 9 ;      OG2D1      CG2O2      CG331       HGA3
  123    98    99   163	 9 ;      OG2D1      CG2O2      CG331       HGA3
  123    98    99   164	 9 ;      OG2D1      CG2O2      CG331       HGA3
  122    98    99   162	 9 ;      OG302      CG2O2      CG331       HGA3
  122    98    99   163	 9 ;      OG302      CG2O2      CG331       HGA3
  122    98    99   164	 9 ;      OG302      CG2O2      CG331       HGA3
   99    98   122    97	 9 ;      CG331      CG2O2      OG302     CG3RC1
  123    98   122    97	 9 ;      OG2D1      CG2O2      OG302     CG3RC1
   67   100   106   107	 9 ;      CG311      CG311     CG2R61     CG2R61
   67   100   106   111	 9 ;      CG311      CG311     CG2R61     CG2R61
   66   100   106   107	 9 ;      NG2S1      CG311     CG2R61     CG2R61
   66   100   106   111	 9 ;      NG2S1      CG311     CG2R61     CG2R61
  165   100   106   107	 9 ;       HGA1      CG311     CG2R61     CG2R61
  165   100   106   111	 9 ;       HGA1      CG311     CG2R61     CG2R61
   66   101   102   103	 9 ;      NG2S1      CG2O1      CG301      CG331
   66   101   102   104	 9 ;      NG2S1      CG2O1      CG301      CG331
   66   101   102   105	 9 ;      NG2S1      CG2O1      CG301      CG331
  124   101   102   103	 9 ;      OG2D1      CG2O1      CG301      CG331
  124   101   102   104	 9 ;      OG2D1      CG2O1      CG301      CG331
  124   101   102   105	 9 ;      OG2D1      CG2O1      CG301      CG331
  101   102   103   167	 9 ;      CG2O1      CG301      CG331       HGA3
  101   102   103   168	 9 ;      CG2O1      CG301      CG331       HGA3
  101   102   103   169	 9 ;      CG2O1      CG301      CG331       HGA3
  104   102   103   167	 9 ;      CG331      CG301      CG331       HGA3
  104   102   103   168	 9 ;      CG331      CG301      CG331       HGA3
  104   102   103   169	 9 ;      CG331      CG301      CG331       HGA3
  105   102   103   167	 9 ;      CG331      CG301      CG331       HGA3
  105   102   103   168	 9 ;      CG331      CG301      CG331       HGA3
  105   102   103   169	 9 ;      CG331      CG301      CG331       HGA3
  101   102   104   170	 9 ;      CG2O1      CG301      CG331       HGA3
  101   102   104   171	 9 ;      CG2O1      CG301      CG331       HGA3
  101   102   104   172	 9 ;      CG2O1      CG301      CG331       HGA3
  103   102   104   170	 9 ;      CG331      CG301      CG331       HGA3
  103   102   104   171	 9 ;      CG331      CG301      CG331       HGA3
  103   102   104   172	 9 ;      CG331      CG301      CG331       HGA3
  105   102   104   170	 9 ;      CG331      CG301      CG331       HGA3
  105   102   104   171	 9 ;      CG331      CG301      CG331       HGA3
  105   102   104   172	 9 ;      CG331      CG301      CG331       HGA3
  101   102   105   173	 9 ;      CG2O1      CG301      CG331       HGA3
  101   102   105   174	 9 ;      CG2O1      CG301      CG331       HGA3
  101   102   105   175	 9 ;      CG2O1      CG301      CG331       HGA3
  103   102   105   173	 9 ;      CG331      CG301      CG331       HGA3
  103   102   105   174	 9 ;      CG331      CG301      CG331       HGA3
  103   102   105   175	 9 ;      CG331      CG301      CG331       HGA3
  104   102   105   173	 9 ;      CG331      CG301      CG331       HGA3
  104   102   105   174	 9 ;      CG331      CG301      CG331       HGA3
  104   102   105   175	 9 ;      CG331      CG301      CG331       HGA3
  100   106   107   108	 9 ;      CG311     CG2R61     CG2R61     CG2R61
  100   106   107   176	 9 ;      CG311     CG2R61     CG2R61      HGR61
  111   106   107   108	 9 ;     CG2R61     CG2R61     CG2R61     CG2R61
  111   106   107   176	 9 ;     CG2R61     CG2R61     CG2R61      HGR61
  100   106   111   110	 9 ;      CG311     CG2R61     CG2R61     CG2R61
  100   106   111   180	 9 ;      CG311     CG2R61     CG2R61      HGR61
  107   106   111   110	 9 ;     CG2R61     CG2R61     CG2R61     CG2R61
  107   106   111   180	 9 ;     CG2R61     CG2R61     CG2R61      HGR61
  106   107   108   109	 9 ;     CG2R61     CG2R61     CG2R61     CG2R61
  106   107   108   177	 9 ;     CG2R61     CG2R61     CG2R61      HGR61
  176   107   108   109	 9 ;      HGR61     CG2R61     CG2R61     CG2R61
  176   107   108   177	 9 ;      HGR61     CG2R61     CG2R61      HGR61
  107   108   109   110	 9 ;     CG2R61     CG2R61     CG2R61     CG2R61
  107   108   109   178	 9 ;     CG2R61     CG2R61     CG2R61      HGR61
  177   108   109   110	 9 ;      HGR61     CG2R61     CG2R61     CG2R61
  177   108   109   178	 9 ;      HGR61     CG2R61     CG2R61      HGR61
  108   109   110   111	 9 ;     CG2R61     CG2R61     CG2R61     CG2R61
  108   109   110   179	 9 ;     CG2R61     CG2R61     CG2R61      HGR61
  178   109   110   111	 9 ;      HGR61     CG2R61     CG2R61     CG2R61
  178   109   110   179	 9 ;      HGR61     CG2R61     CG2R61      HGR61
  109   110   111   106	 9 ;     CG2R61     CG2R61     CG2R61     CG2R61
  109   110   111   180	 9 ;     CG2R61     CG2R61     CG2R61      HGR61
  179   110   111   106	 9 ;      HGR61     CG2R61     CG2R61     CG2R61
  179   110   111   180	 9 ;      HGR61     CG2R61     CG2R61      HGR61

[ dihedrals ]
;	ai	  aj	ak	  al funct			  c0			c1			  c2			c3
   68    67   113   114	 2
   73    74   117   116	 2
   83    81    84   118	 2
   98    99   123   122	 2
  101   102    66   124	 2

