; CHARMM-port for GROMACS
; created with charmm2gmx version 0.7.dev45+g7b82040.d20221208 on 2022-12-08 10:52:45.500886
; Code: https://gitlab.com/awacha/charmm2gmx
; Documentation: https://awacha.gitlab.com/charmm2gmx
; Charmm2GMX written by András Wacha, based on the original port by 
; E. Prabhu Raman, Justin A. Lemkul, Robert Best and Alexander D. MacKerell, Jr.
; The following files were used: 
; 
; toppar_c36_jul22/metals/CHARMM_METAL/par_all22_prot_metals.inp
; toppar_c36_jul22/metals/CHARMM_METAL/top_all22_prot_metals.inp
; toppar_c36_jul22/par_all35_ethers.prm
; toppar_c36_jul22/par_all36_carb.prm
; toppar_c36_jul22/par_all36_cgenff.prm
; toppar_c36_jul22/par_all36_lipid.prm
; toppar_c36_jul22/par_all36_na.prm
; toppar_c36_jul22/par_all36m_prot.prm
; toppar_c36_jul22/silicates/toppar/par_silicates.inp
; toppar_c36_jul22/silicates/toppar/top_silicates.inp
; toppar_c36_jul22/stream/carb/toppar_all36_carb_glycolipid.str
; toppar_c36_jul22/stream/carb/toppar_all36_carb_glycopeptide.str
; toppar_c36_jul22/stream/carb/toppar_all36_carb_imlab.str
; toppar_c36_jul22/stream/carb/toppar_all36_carb_lignin.str
; toppar_c36_jul22/stream/lipid/toppar_all36_lipid_bacterial.str
; toppar_c36_jul22/stream/lipid/toppar_all36_lipid_cholesterol.str
; toppar_c36_jul22/stream/lipid/toppar_all36_lipid_detergent.str
; toppar_c36_jul22/stream/lipid/toppar_all36_lipid_ether.str
; toppar_c36_jul22/stream/lipid/toppar_all36_lipid_lps.str
; toppar_c36_jul22/stream/lipid/toppar_all36_lipid_miscellaneous.str
; toppar_c36_jul22/stream/lipid/toppar_all36_lipid_prot.str
; toppar_c36_jul22/stream/lipid/toppar_all36_lipid_sphingo.str
; toppar_c36_jul22/stream/misc/toppar_ions_won.str
; toppar_c36_jul22/stream/na/toppar_all36_na_modifications.str
; toppar_c36_jul22/stream/na/toppar_all36_na_nad_ppi.str
; toppar_c36_jul22/stream/prot/toppar_all36_prot_arg0.str
; toppar_c36_jul22/stream/prot/toppar_all36_prot_c36m_d_aminoacids.str
; toppar_c36_jul22/stream/prot/toppar_all36_prot_fluoro_alkanes.str
; toppar_c36_jul22/stream/prot/toppar_all36_prot_heme.str
; toppar_c36_jul22/stream/prot/toppar_all36_prot_model.str
; toppar_c36_jul22/stream/prot/toppar_all36_prot_modify_res.str
; toppar_c36_jul22/stream/prot/toppar_all36_prot_na_combined.str
; toppar_c36_jul22/stream/prot/toppar_all36_prot_retinol.str
; toppar_c36_jul22/top_all36_prot.rtf
; toppar_c36_jul22/toppar_water_ions.str
;

[ atomtypes ]

; from file 
; type atnum         mass   charge ptype           sigma  epsilon

; from file toppar_c36_jul22/metals/CHARMM_METAL/par_all22_prot_metals.inp
; type atnum         mass   charge ptype           sigma  epsilon

; from file toppar_c36_jul22/metals/CHARMM_METAL/top_all22_prot_metals.inp
; type atnum         mass   charge ptype           sigma  epsilon
    HB     1     1.008000    0.000     A  0.235197261589  0.0920480  ; backbone H
    HE     2     4.002600    0.000     A  0.263706020570  0.0889937  ; helium
   CAP     6    12.011000    0.000     A  0.355005321205  0.2928800  ; aromatic C for pyrimidines (see toppar_all22_prot_pyridines.str)
    CN     6    12.011000    0.000     A  0.311814551349  0.8368000  ; C for cyano group (see toppar_all22_prot_pyridines.str)
   COA     6    12.011000    0.000     A  0.356359487256  0.4602400  ; carbonyl C for pyrimidines (see toppar_all22_prot_pyridines.str)
  CT1X     6    12.011000    0.000     A  0.405358916754  0.0836800  ; aliphatic sp3 C for CH, new LJ params (see toppar_all22_prot_aliphatic_c27.str)
  CT2X     6    12.011000    0.000     A  0.358141284692  0.2343040  ; aliphatic sp3 C for CH2, new LJ params (see toppar_all22_prot_aliphatic_c27.str)
  CT3X     6    12.011000    0.000     A  0.363486677001  0.3263520  ; aliphatic sp3 C for CH3, new LJ params (see toppar_all22_prot_aliphatic_c27.str)
    NC     7    14.007000    0.000     A  0.329632525712  2.5104000  ; N for cyano group (see toppar_all22_prot_pyridines.str)
   OCA     8    15.999000    0.000     A  0.302905564168  0.5020800  ; carbonyl O for pyrimidines (see toppar_all22_prot_pyridines.str)
    FA     9    18.998000    0.000     A  0.302905564168  0.5020800  ; aromatic flourine (see toppar_all22_prot_pyridines.str)
    NE    10    20.179700    0.000     A  0.272615007751  0.3598240  ; neon
    AL    13    26.981540    0.000     A  0.260587875056 16.8196800  ; Aluminium metal (HH et al. 2008)
  CLAL    17    35.453000    0.000     A  0.340002586791  0.1255200  ; Chlorine Atom (see toppar_all22_prot_aldehydes.str)
    NI    28    58.693400    0.000     A  0.227357352869 23.6396000  ; Nickel metal (HH et al. 2008)
    CU    29    63.546000    0.000     A  0.233059104666 19.7484800  ; Copper metal (HH et al. 2008)
    PD    46   106.420000    0.000     A  0.251144348644 25.7316000  ; Palladium metal (HH et al. 2008)
    AG    47   107.868200    0.000     A  0.263260571210 19.0790400  ; Silver metal (HH et al. 2008)
    PT    78   195.084000    0.000     A  0.253460685311 32.6352000  ; Platinum metal (HH et al. 2008)
    AU    79   196.966500    0.000     A  0.262904211723 22.1333600  ; Gold metal (HH et al. 2008)
    PB    82   207.200000    0.000     A  0.317605393017 12.2591200  ; Lead metal (HH et al. 2008)

; from file toppar_c36_jul22/par_all35_ethers.prm
; type atnum         mass   charge ptype           sigma  epsilon
 HCA1A     1     1.008000    0.000     A  0.238760856462  0.1882800  ; Alkane H attached to C(sp3)H  (eq. HA1)
HCA25A     1     1.008000    0.000     A  0.231633666716  0.1464400  ; Alkane H attached to C(sp3)H2 in 5-membered ring
 HCA2A     1     1.008000    0.000     A  0.238760856462  0.1464400  ; Alkane H attached to C(sp3)H2 (eq. HA2)
 HCA3A     1     1.008000    0.000     A  0.238760856462  0.1004160  ; Alkane H attached to C(sp3)H3 (eq. HA3)
 CC30A     6    12.011000    0.000     A  0.356359487256  0.1338880  ; -C(sp3)   Carbon (eq. CT)
 CC31A     6    12.011000    0.000     A  0.356359487256  0.1338880  ; -C(sp3)H  Carbon (eq. CT1)
CC325A     6    12.011000    0.000     A  0.359923082129  0.2510400  ; -C(sp3)H2 Carbon in 5-membered ring
CC325B     6    12.011000    0.000     A  0.359923082129  0.2510400  ; -C(sp3)H2 Carbon in THF (tetrahydrofuran)
CC326A     6    12.011000    0.000     A  0.358141284692  0.2343040  ; -C(sp3)H2 Carbon in THP (tetrahydropyran)
 CC32A     6    12.011000    0.000     A  0.358141284692  0.2343040  ; -C(sp3)H2 Carbon (eq. CT2)
 CC33A     6    12.011000    0.000     A  0.363486677001  0.3263520  ; -C(sp3)H3 Carbon (eq. CT3)
OC305A     8    15.999400    0.000     A  0.293996576986  0.4184000  ; Ether Oxygen in THF
 OC30A     8    15.999400    0.000     A  0.293996576986  0.4184000  ; Ether Oxygen

; from file toppar_c36_jul22/par_all36_carb.prm
; type atnum         mass   charge ptype           sigma  epsilon
  HCA1     1     1.008000    0.000     A  0.238760856462  0.1882800  ; aliphatic proton, CH
HCA1C2     1     1.008000    0.000     A  0.238760856462  0.1882800  ; tf2m aliphatic proton, CH1
  HCA2     1     1.008000    0.000     A  0.238760856462  0.1464400  ; aliphatic proton, CH2
HCA2C2     1     1.008000    0.000     A  0.231633666716  0.1464400  ; cyclopentane, thp aliphatic proton, CH2
  HCA3     1     1.008000    0.000     A  0.238760856462  0.1004160  ; aliphatic proton, CH3
 HCA3M     1     1.008000    0.000     A  0.238760856462  0.1004160  ; alcohol aliphatic proton, CH3
  HCP1     1     1.008000    0.000     A  0.040001352445  0.1924640  ; polar H
 HCP1M     1     1.008000    0.000     A  0.040001352445  0.1924640  ; EGLY hydroxyl H
  HCR1     1     1.008000    0.000     A  0.142543794902  0.1924640  ; c22 HR1
 CC2O1     6    12.011000    0.000     A  0.356359487256  0.4602400  ; sp2 carbon in amides, aldoses
 CC2O2     6    12.011000    0.000     A  0.356359487256  0.2928800  ; sp2 carbon in carboxylates
 CC2O3     6    12.011000    0.000     A  0.356359487256  0.3765600  ; sp2 carbon in acetone, ketoses
 CC2O4     6    12.011000    0.000     A  0.320723538531  0.2510400  ; c22 CD
 CC2O5     6    12.011000    0.000     A  0.302905564168  0.4100320  ; carbonyl C on acetyl
 CC301     6    12.011000    0.000     A  0.356359487256  0.1338880  ; aliphatic C, no H's
CC3051     6    12.011000    0.000     A  0.356359487256  0.1338880  ; furan ring carbon; C2 fructose
CC3062     6    12.011000    0.000     A  0.356359487256  0.1338880  ; C2 on NE5AC
 CC311     6    12.011000    0.000     A  0.356359487256  0.1338880  ; generic acyclic CH carbon
CC311C     6    12.011000    0.000     A  0.356359487256  0.1338880  ; patch C1 in model compound
CC311D     6    12.011000    0.000     A  0.356359487256  0.1338880  ; patch C1 in model compound
 CC312     6    12.011000    0.000     A  0.356359487256  0.1338880  ; CH carbon in linear polyols
CC312C     6    12.011000    0.000     A  0.356359487256  0.1338880  ; tf2m CH1
CC312D     6    12.011000    0.000     A  0.356359487256  0.1338880  ; from CC322C; THF anomeric carbon
CC3151     6    12.011000    0.000     A  0.356359487256  0.1338880  ; furan ring carbon
CC3152     6    12.011000    0.000     A  0.356359487256  0.1338880  ; furan ring carbon
CC3153     6    12.011000    0.000     A  0.356359487256  0.1338880  ; furan ring carbon
CC3161     6    12.011000    0.000     A  0.356359487256  0.1338880  ; C2, C3, C4 CH bound to OH
CC3162     6    12.011000    0.000     A  0.356359487256  0.1338880  ; C1 (anomeric) CH bound to OH
CC3163     6    12.011000    0.000     A  0.356359487256  0.1338880  ; C5 CH bound to exocylic CH2OH
 CC321     6    12.011000    0.000     A  0.358141284692  0.2343040  ; generic acyclic CH2 carbon (hexopyranose C6)
CC321C     6    12.011000    0.000     A  0.358141284692  0.2343040  ; cyclohexane, thp CH2
CC321D     6    12.011000    0.000     A  0.358141284692  0.2343040  ; cyclohexane, thp CH2 model for 1-1 linkage
 CC322     6    12.011000    0.000     A  0.358141284692  0.2343040  ; CH2 carbon in linear polyols erh
CC322C     6    12.011000    0.000     A  0.359923082129  0.2510400  ; cyclopentane, thf CH2
CC3251     6    12.011000    0.000     A  0.359923082129  0.2510400  ; furan ring carbon; C2 deoxy
CC3261     6    12.011000    0.000     A  0.358141284692  0.2343040  ; C3 on NE5AC
CC3263     6    12.011000    0.000     A  0.358141284692  0.2343040  ; C5 in xylose
 CC331     6    12.011000    0.000     A  0.363486677001  0.3263520  ; generic acyclic CH3 carbon (xyl C6, glcna/galna CT)
 NC2D1     7    14.007000    0.000     A  0.329632525712  0.8368000  ; peptide, NMA, IPAA nitrogen (C=NHR)
 NC311     7    14.007000    0.000     A  0.356359487256  0.1882800  ; N ! Sulfamate nitrogen, xxwy
 OC2D1     8    15.999400    0.000     A  0.302905564168  0.5020800  ; sp2 oxygen in amides, aldoses
 OC2D2     8    15.999400    0.000     A  0.302905564168  0.5020800  ; sp2 oxygen in carboxylates
 OC2D3     8    15.999400    0.000     A  0.302905564168  0.2092000  ; sp2 oxygen in acetone, ketoses
 OC2D4     8    15.999400    0.000     A  0.302905564168  0.5020800  ; par22 O
 OC2DP     8    15.999400    0.000     A  0.302905564168  0.5020800  ; =0 in P03H (phosphate) || O2L in top_all27_lipid.rtf
 OC301     8    15.999400    0.000     A  0.293996576986  0.4184000  ; generic linear ether
 OC302     8    15.999400    0.000     A  0.293996576986  0.4184000  ; linear ether in 1-1 glycosidic linkage
 OC303     8    15.999400    0.000     A  0.293996576986  0.4184000  ; from OC301; linear ether in P1->F3 pyranose-furanose glycosidic linkage
 OC30P     8    15.999400    0.000     A  0.315378146222  0.6363864  ; ester O in PO3H (phosphate) || OSL in top_all27_lipid.rtf
 OC311     8    15.999400    0.000     A  0.314487247504  0.8037464  ; hydroxyl oxygen
OC311M     8    15.999400    0.000     A  0.314487247504  0.8037464  ; MEOH, ETOH, PRO2, EGLY hydroxyl O
 OC312     8    15.999400    0.000     A  0.315378146222  0.6363864  ; OH in PO3H (phosphate) || OHL in top_all27_lipid.rtf
OC3C51     8    15.999400    0.000     A  0.293996576986  0.4184000  ; furan ring oxygen
OC3C5M     8    15.999400    0.000     A  0.293996576986  0.4184000  ; thf ring oxygen
OC3C61     8    15.999400    0.000     A  0.293996576986  0.4184000  ; ether in six membered ring
    PC    15    30.974000    0.000     A  0.383086448800  2.4476400  ; phosphorus || PL in top_all27_lipid.rtf
    SC    16    32.060000    0.000     A  0.374177461619  1.9664800  ; Sulfate sulfur

; from file toppar_c36_jul22/par_all36_cgenff.prm
; type atnum         mass   charge ptype           sigma  epsilon
  HGA1     1     1.008000    0.000     A  0.238760856462  0.1882800  ; alphatic proton, CH
  HGA2     1     1.008000    0.000     A  0.238760856462  0.1464400  ; alphatic proton, CH2
  HGA3     1     1.008000    0.000     A  0.238760856462  0.1004160  ; alphatic proton, CH3
  HGA4     1     1.008000    0.000     A  0.222724679535  0.1297040  ; alkene proton; RHC=
  HGA5     1     1.008000    0.000     A  0.224506476971  0.1087840  ; alkene proton; H2C=CR
  HGA6     1     1.008000    0.000     A  0.235197261589  0.1171520  ; aliphatic H on fluorinated C, monofluoro
  HGA7     1     1.008000    0.000     A  0.231633666716  0.1255200  ; aliphatic H on fluorinated C, difluoro
HGAAM0     1     1.008000    0.000     A  0.228070071844  0.1171520  ; aliphatic H, NEUTRAL trimethylamine (#)
HGAAM1     1     1.008000    0.000     A  0.228070071844  0.1171520  ; aliphatic H, NEUTRAL dimethylamine (#)
HGAAM2     1     1.008000    0.000     A  0.224506476971  0.1673600  ; aliphatic H, NEUTRAL methylamine (#)
  HGP1     1     1.008000    0.000     A  0.040001352445  0.1924640  ; polar H
  HGP2     1     1.008000    0.000     A  0.040001352445  0.1924640  ; polar H, +ve charge
  HGP3     1     1.008000    0.000     A  0.080180884633  0.4184000  ; polar H, thiol
  HGP4     1     1.008000    0.000     A  0.040001352445  0.1924640  ; polar H, neutral conjugated -NH2 group (NA bases)
  HGP5     1     1.008000    0.000     A  0.124725820540  0.1924640  ; polar H on quarternary ammonium salt (choline)
HGPAM1     1     1.008000    0.000     A  0.155907275675  0.0376560  ; polar H, NEUTRAL dimethylamine (#), terminal alkyne H
HGPAM2     1     1.008000    0.000     A  0.155907275675  0.0418400  ; polar H, NEUTRAL methylamine (#)
HGPAM3     1     1.008000    0.000     A  0.155016376956  0.0502080  ; polar H, NEUTRAL ammonia (#)
 HGR51     1     1.008000    0.000     A  0.242003727796  0.1255200  ; nonpolar H, neutral 5-mem planar ring C, LJ based on benzene
 HGR52     1     1.008000    0.000     A  0.160361769265  0.1924640  ; Aldehyde H, formamide H (RCOH); nonpolar H, neutral 5-mem planar ring C adjacent to heteroatom or + charge
 HGR53     1     1.008000    0.000     A  0.124725820540  0.1924640  ; nonpolar H, +ve charge HIS he1(+1)
 HGR61     1     1.008000    0.000     A  0.242003727796  0.1255200  ; aromatic H
 HGR62     1     1.008000    0.000     A  0.195997717991  0.1924640  ; nonpolar H, neutral 6-mem planar ring C adjacent to heteroatom
 HGR63     1     1.008000    0.000     A  0.160361769265  0.1924640  ; nonpolar H, NAD+ nicotineamide all ring CH hydrogens
 HGR71     1     1.008000    0.000     A  0.242003727796  0.1255200  ; nonpolar H, neutral 7-mem arom ring, AZUL, azulene, kevo
   LPH     1     0.000000    0.000     A  0.000000000000  0.0000000  ; Lone pair for halogens
 BG201     5    10.811000    0.000     A  0.454358346252  0.1589920  ; Boronic acid B
 CG1N1     6    12.011000    0.000     A  0.333196120584  0.7531200  ; C for cyano group
 CG1T1     6    12.011000    0.000     A  0.327850728276  0.6987280  ; internal alkyne R-C#C
 CG1T2     6    12.011000    0.000     A  0.355023139179  0.4317888  ; terminal alkyne H-C#C
CG251O     6    12.011000    0.000     A  0.372395664183  0.2845120  ; same as CG2D1O but in 5-membered ring with exocyclic double bond
CG252O     6    12.011000    0.000     A  0.372395664183  0.2845120  ; same as CG2D2O but in 5-membered ring with exocyclic double bond
CG25C1     6    12.011000    0.000     A  0.372395664183  0.2845120  ; same as CG2DC1 but in 5-membered ring with exocyclic double bond
CG25C2     6    12.011000    0.000     A  0.372395664183  0.2845120  ; same as CG2DC2 but in 5-membered ring with exocyclic double bond
 CG2D1     6    12.011000    0.000     A  0.372395664183  0.2845120  ; alkene; RHC= ; imine C
CG2D1O     6    12.011000    0.000     A  0.372395664183  0.2845120  ; double bond C adjacent to heteroatom. In conjugated systems, the atom to which it is double bonded must be CG2DC1.
 CG2D2     6    12.011000    0.000     A  0.370613866746  0.2677760  ; alkene; H2C=
CG2D2O     6    12.011000    0.000     A  0.372395664183  0.2845120  ; double bond C adjacent to heteroatom. In conjugated systems, the atom to which it is double bonded must be CG2DC2.
CG2DC1     6    12.011000    0.000     A  0.372395664183  0.2845120  ; conjugated alkenes, R2C=CR2
CG2DC2     6    12.011000    0.000     A  0.372395664183  0.2845120  ; conjugated alkenes, R2C=CR2
CG2DC3     6    12.011000    0.000     A  0.370613866746  0.2677760  ; conjugated alkenes, H2C=
 CG2N1     6    12.011000    0.000     A  0.356359487256  0.4602400  ; conjugated C in guanidine/guanidinium
 CG2N2     6    12.011000    0.000     A  0.356359487256  0.4602400  ; conjugated C in amidinium cation
 CG2O1     6    12.011000    0.000     A  0.356359487256  0.4602400  ; carbonyl C: amides
 CG2O2     6    12.011000    0.000     A  0.302905564168  0.4100320  ; carbonyl C: esters, [neutral] carboxylic acids
 CG2O3     6    12.011000    0.000     A  0.356359487256  0.2928800  ; carbonyl C: [negative] carboxylates
 CG2O4     6    12.011000    0.000     A  0.320723538531  0.2510400  ; carbonyl C: aldehydes
 CG2O5     6    12.011000    0.000     A  0.356359487256  0.3765600  ; carbonyl C: ketones
 CG2O6     6    12.011000    0.000     A  0.356359487256  0.2928800  ; carbonyl C: urea, carbonate
 CG2O7     6    12.011000    0.000     A  0.278494939291  0.2426720  ; CO2 carbon
CG2R51     6    12.011000    0.000     A  0.374177461619  0.2092000  ; 5-mem ring, his CG, CD2(0), trp
CG2R52     6    12.011000    0.000     A  0.391995435982  0.0836800  ; 5-mem ring, double bound to N, PYRZ, pyrazole
CG2R53     6    12.011000    0.000     A  0.391995435982  0.0836800  ; 5-mem ring, double bound to N and adjacent to another heteroatom, purine C8, his CE1 (0,+1), 2PDO, kevo
CG2R57     6    12.011000    0.000     A  0.374177461619  0.2092000  ; 5-mem ring, bipyrroles
CG2R61     6    12.011000    0.000     A  0.355005321205  0.2928800  ; 6-mem aromatic C
CG2R62     6    12.011000    0.000     A  0.338541512893  0.3765600  ; 6-mem aromatic C for protonated pyridine (NIC) and rings containing carbonyls (see CG2R63) (NA)
CG2R63     6    12.011000    0.000     A  0.338541512893  0.4184000  ; 6-mem aromatic amide carbon (NA) (and other 6-mem aromatic carbonyls?)
CG2R64     6    12.011000    0.000     A  0.374177461619  0.1673600  ; 6-mem aromatic amidine and guanidine carbon (between 2 or 3 Ns and double-bound to one of them), NA, PYRM
CG2R66     6    12.011000    0.000     A  0.338541512893  0.2928800  ; 6-mem aromatic carbon bound to F
CG2R67     6    12.011000    0.000     A  0.355005321205  0.2928800  ; 6-mem aromatic carbon of biphenyl
CG2R71     6    12.011000    0.000     A  0.355432952589  0.2803280  ; 7-mem ring arom C, AZUL, azulene, kevo
CG2RC0     6    12.011000    0.000     A  0.331414323148  0.4142160  ; 6/5-mem ring bridging C, guanine C4,C5, trp
CG2RC7     6    12.011000    0.000     A  0.331414323148  0.4142160  ; sp2 ring connection with single bond(!), AZUL, azulene, kevo
 CG301     6    12.011000    0.000     A  0.356359487256  0.1338880  ; aliphatic C, no hydrogens, neopentane
 CG302     6    12.011000    0.000     A  0.409813410345  0.0836800  ; aliphatic C, no hydrogens, trifluoromethyl
 CG311     6    12.011000    0.000     A  0.356359487256  0.1338880  ; aliphatic C with 1 H, CH
 CG312     6    12.011000    0.000     A  0.365268474438  0.1757280  ; aliphatic C with 1 H, difluoromethyl
 CG314     6    12.011000    0.000     A  0.385759144955  0.1297040  ; aliphatic C with 1 H, adjacent to positive N (PROT NTER) (+)
 CG321     6    12.011000    0.000     A  0.358141284692  0.2343040  ; aliphatic C for CH2
 CG322     6    12.011000    0.000     A  0.338541512893  0.2510400  ; aliphatic C for CH2, monofluoromethyl
 CG323     6    12.011000    0.000     A  0.391995435982  0.4602400  ; aliphatic C for CH2, thiolate carbon
 CG324     6    12.011000    0.000     A  0.387540942391  0.2301200  ; aliphatic C for CH2, adjacent to positive N (piperidine) (+)
 CG331     6    12.011000    0.000     A  0.365268474438  0.3263520  ; aliphatic C for methyl group (-CH3)
 CG334     6    12.011000    0.000     A  0.394668132136  0.3221680  ; aliphatic C for methyl group (-CH3), adjacent to positive N (PROT NTER) (+)
CG3AM0     6    12.011000    0.000     A  0.351014094947  0.2928800  ; aliphatic C for CH3, NEUTRAL trimethylamine methyl carbon (#)
CG3AM1     6    12.011000    0.000     A  0.352795892384  0.3263520  ; aliphatic C for CH3, NEUTRAL dimethylamine methyl carbon (#)
CG3AM2     6    12.011000    0.000     A  0.354577689820  0.3347200  ; aliphatic C for CH3, NEUTRAL methylamine methyl carbon (#)
CG3C31     6    12.011000    0.000     A  0.358141284692  0.2343040  ; cyclopropyl carbon
CG3C41     6    12.011000    0.000     A  0.359923082129  0.2719600  ; cyclobutyl carbon
CG3C50     6    12.011000    0.000     A  0.358141284692  0.1506240  ; 5-mem ring aliphatic quaternary C (cholesterol, bile acids)
CG3C51     6    12.011000    0.000     A  0.358141284692  0.1506240  ; 5-mem ring aliphatic CH  (proline CA, furanoses)
CG3C52     6    12.011000    0.000     A  0.359923082129  0.2510400  ; 5-mem ring aliphatic CH2 (proline CB/CG/CD, THF, deoxyribose)
CG3C53     6    12.011000    0.000     A  0.387540942391  0.1464400  ; 5-mem ring aliphatic CH  adjacent to positive N (proline.H+ CA) (+)
CG3C54     6    12.011000    0.000     A  0.389322739827  0.2468560  ; 5-mem ring aliphatic CH2 adjacent to positive N (proline.H+ CD) (+)
CG3RC1     6    12.011000    0.000     A  0.356359487256  0.1338880  ; bridgehead in bicyclic systems containing at least one 5-membered or smaller ring
 NG1T1     7    14.007000    0.000     A  0.318941741094  0.7531200  ; N for cyano group
 NG2D1     7    14.007000    0.000     A  0.329632525712  0.8368000  ; N for neutral imine/Schiff's base (C=N-R, acyclic amidine, gunaidine)
 NG2O1     7    14.007000    0.000     A  0.329632525712  0.8368000  ; NITB, nitrobenzene
 NG2P1     7    14.007000    0.000     A  0.329632525712  0.8368000  ; N for protonated imine/Schiff's base (C=N(+)H-R, acyclic amidinium, guanidinium)
NG2R43     7    14.007000    0.000     A  0.329632525712  0.8368000  ; amide in 4-memebered ring (planar), AZDO, lsk
NG2R50     7    14.007000    0.000     A  0.329632525712  0.8368000  ; double bound neutral 5-mem planar ring, purine N7
NG2R51     7    14.007000    0.000     A  0.329632525712  0.8368000  ; single bound neutral 5-mem planar (all atom types sp2) ring, his, trp pyrrole (fused)
NG2R52     7    14.007000    0.000     A  0.329632525712  0.8368000  ; protonated schiff base, amidinium, guanidinium in 5-membered ring, HIS, 2HPP, kevo
NG2R53     7    14.007000    0.000     A  0.329632525712  0.8368000  ; amide in 5-memebered NON-SP2 ring (slightly pyramidized), 2PDO, kevo
NG2R57     7    14.007000    0.000     A  0.329632525712  0.8368000  ; 5-mem ring, bipyrroles
NG2R60     7    14.007000    0.000     A  0.336759715457  0.2510400  ; double bound neutral 6-mem planar ring, pyr1, pyzn
NG2R61     7    14.007000    0.000     A  0.329632525712  0.8368000  ; single bound neutral 6-mem planar ring imino nitrogen; glycosyl linkage
NG2R62     7    14.007000    0.000     A  0.367050271874  0.2092000  ; double bound 6-mem planar ring with heteroatoms in o or m, pyrd, pyrm
NG2R67     7    14.007000    0.000     A  0.329632525712  0.8368000  ; 6-mem planar ring substituted with 6-mem planar ring (N-phenyl pyridinones etc.)
NG2RC0     7    14.007000    0.000     A  0.329632525712  0.8368000  ; 6/5-mem ring bridging N, indolizine, INDZ, kevo
 NG2S0     7    14.007000    0.000     A  0.329632525712  0.8368000  ; N,N-disubstituted amide, proline N (CO=NRR')
 NG2S1     7    14.007000    0.000     A  0.329632525712  0.8368000  ; peptide nitrogen (CO=NHR)
 NG2S2     7    14.007000    0.000     A  0.329632525712  0.8368000  ; terminal amide nitrogen (CO=NH2)
 NG2S3     7    14.007000    0.000     A  0.329632525712  0.8368000  ; external amine ring nitrogen (planar/aniline), phosphoramidate
 NG301     7    14.007000    0.000     A  0.356359487256  0.1464400  ; neutral trimethylamine nitrogen
 NG311     7    14.007000    0.000     A  0.356359487256  0.1882800  ; neutral dimethylamine nitrogen
 NG321     7    14.007000    0.000     A  0.354577689820  0.2510400  ; neutral methylamine nitrogen
 NG331     7    14.007000    0.000     A  0.352795892384  0.2928800  ; neutral ammonia nitrogen
NG3C51     7    14.007000    0.000     A  0.329632525712  0.8368000  ; secondary sp3 amine in 5-membered ring
 NG3N1     7    14.007000    0.000     A  0.365268474438  0.2510400  ; N in hydrazine, HDZN
 NG3P0     7    14.007000    0.000     A  0.329632525712  0.8368000  ; quarternary N+, choline
 NG3P1     7    14.007000    0.000     A  0.329632525712  0.8368000  ; tertiary NH+ (PIP)
 NG3P2     7    14.007000    0.000     A  0.329632525712  0.8368000  ; secondary NH2+ (proline)
 NG3P3     7    14.007000    0.000     A  0.329632525712  0.8368000  ; primary NH3+, phosphatidylethanolamine
 OG2D1     8    15.999400    0.000     A  0.302905564168  0.5020800  ; carbonyl O: amides, esters, [neutral] carboxylic acids, aldehydes, uera
 OG2D2     8    15.999400    0.000     A  0.302905564168  0.5020800  ; carbonyl O: negative groups: carboxylates, carbonate
 OG2D3     8    15.999400    0.000     A  0.302905564168  0.2092000  ; carbonyl O: ketones
 OG2D4     8    15.999400    0.000     A  0.302905564168  0.5020800  ; 6-mem aromatic carbonyl oxygen (nucleic bases)
 OG2D5     8    15.999400    0.000     A  0.301480126219  0.6903600  ; CO2 oxygen
 OG2N1     8    15.999400    0.000     A  0.302905564168  0.5020800  ; NITB, nitrobenzene
 OG2P1     8    15.999400    0.000     A  0.302905564168  0.5020800  ; =O in phosphate or sulfate
OG2R50     8    15.999400    0.000     A  0.302905564168  0.5020800  ; FURA, furan
 OG2S1     8    15.999400    0.000     A  0.299270697398  0.5953832  ; mono-thio S-P bond modulated oxygen; lsk
 OG301     8    15.999400    0.000     A  0.293996576986  0.4184000  ; ether -O- !SHOULD WE HAVE A SEPARATE ENOL ETHER??? IF YES, SHOULD WE MERGE IT WITH OG3R60???
 OG302     8    15.999400    0.000     A  0.293996576986  0.4184000  ; ester -O-
 OG303     8    15.999400    0.000     A  0.293996576986  0.4184000  ; phosphate/sulfate ester oxygen
 OG304     8    15.999400    0.000     A  0.293996576986  0.4184000  ; linkage oxygen in pyrophosphate/pyrosulphate
 OG311     8    15.999400    0.000     A  0.314487247504  0.8037464  ; hydroxyl oxygen
 OG312     8    15.999400    0.000     A  0.311814551349  0.5020800  ; ionized alcohol oxygen
OG3C31     8    15.999400    0.000     A  0.293996576986  0.4184000  ; epoxide oxygen, 1EOX, 1BOX, sc
OG3C51     8    15.999400    0.000     A  0.293996576986  0.4184000  ; 5-mem furanose ring oxygen (ether)
OG3C61     8    15.999400    0.000     A  0.293996576986  0.4184000  ; DIOX, dioxane, ether in 6-membered ring !SHOULD WE MERGE THIS WITH OG3R60???
OG3R60     8    15.999400    0.000     A  0.293996576986  0.4184000  ; O in 6-mem cyclic enol ether (PY01, PY02) or ester
  FGA1     9    18.998000    0.000     A  0.290432982114  0.5648400  ; aliphatic fluorine, monofluoro
  FGA2     9    18.998000    0.000     A  0.290432982114  0.4393200  ; aliphatic fluorine, difluoro
  FGA3     9    18.998000    0.000     A  0.285087589805  0.4058480  ; aliphatic fluorine, trifluoro
  FGP1     9    18.998000    0.000     A  0.285087589805  0.4058480  ; anionic F, for ALF4 AlF4-
  FGR1     9    18.998000    0.000     A  0.302905564168  0.5020800  ; aromatic flourine
  ALG1    13    26.981540    0.000     A  0.356359487256  2.7196000  ; Aluminum, for ALF4, AlF4-
   PG0    15    30.973800    0.000     A  0.383086448800  2.4476400  ; neutral phosphate
   PG1    15    30.973800    0.000     A  0.383086448800  2.4476400  ; phosphate -1
   PG2    15    30.973800    0.000     A  0.383086448800  2.4476400  ; phosphate -2
 SG2D1    16    32.060000    0.000     A  0.365268474438  2.3639600  ; thiocarbonyl S
 SG2P1    16    32.060000    0.000     A  0.373054929234  2.6392672  ; mono-thio S-P bond; lsk
 SG2P2    16    32.060000    0.000     A  0.366088101258  2.5936616  ; di-thio S-P bond; lsk
SG2R50    16    32.060000    0.000     A  0.356359487256  1.8828000  ; THIP, thiophene
 SG301    16    32.060000    0.000     A  0.351904993665  1.5899200  ; sulfur C-S-S-C type
 SG302    16    32.060000    0.000     A  0.391995435982  1.9664800  ; thiolate sulfur (-1)
 SG311    16    32.060000    0.000     A  0.356359487256  1.8828000  ; sulphur, SH, -S-
 SG3O1    16    32.060000    0.000     A  0.374177461619  1.9664800  ; sulfate -1 sulfur
 SG3O2    16    32.060000    0.000     A  0.356359487256  1.4644000  ; neutral sulfone/sulfonamide sulfur
 SG3O3    16    32.060000    0.000     A  0.356359487256  1.4644000  ; neutral sulfoxide sulfur
 CLGA1    17    35.453000    0.000     A  0.340323310330  1.4351120  ; CLET, DCLE, chloroethane, 1,1-dichloroethane
 CLGA3    17    35.453000    0.000     A  0.340323310330  1.2970400  ; TCLE, 1,1,1-trichloroethane
 CLGR1    17    35.453000    0.000     A  0.331414323148  0.9623200  ; CHLB, chlorobenzene
 SEGD1    34    78.960000    0.000     A  0.387540942391  2.6066320  ; selenocarbonyl Se
 BRGA1    35    79.904000    0.000     A  0.351014094947  2.0083200  ; BRET, bromoethane
 BRGA2    35    79.904000    0.000     A  0.365268474438  2.2175200  ; DBRE, 1,1-dibromoethane
 BRGA3    35    79.904000    0.000     A  0.356359487256  2.2593600  ; TBRE, 1,1,1-dibromoethane
 BRGR1    35    79.904000    0.000     A  0.352795892384  1.3388800  ; BROB, bromobenzene
  IGR1    53   126.904470    0.000     A  0.399122625727  2.1756800  ; IODB, iodobenzene

; from file toppar_c36_jul22/par_all36_lipid.prm
; type atnum         mass   charge ptype           sigma  epsilon
  HAL1     1     1.008000    0.000     A  0.235197261589  0.0920480  ; alphatic proton
  HAL2     1     1.008000    0.000     A  0.238760856462  0.1171520  ; alphatic proton
  HAL3     1     1.008000    0.000     A  0.238760856462  0.1004160  ; alphatic proton
   HBL     1     1.008000    0.000     A  0.235197261589  0.0920480  ; POPS SER backbone H
   HCL     1     1.008000    0.000     A  0.040001352445  0.1924640  ; charged H for PE (equivalent to protein HC)
  HEL1     1     1.008000    0.000     A  0.222724679535  0.1297040  ; for alkene; RHC=CR
  HEL2     1     1.008000    0.000     A  0.224506476971  0.1087840  ; for alkene; H2C=CR
    HL     1     1.008000    0.000     A  0.124725820540  0.1924640  ; polar H (equivalent to protein H)
   HOL     1     1.008000    0.000     A  0.040001352445  0.1924640  ; Nucleic acid phosphate hydroxyl proton
   CCL     6    12.011000    0.000     A  0.356359487256  0.2928800  ; for POPS
  CEL1     6    12.011000    0.000     A  0.372395664183  0.2845120  ; for alkene; RHC=CR
  CEL2     6    12.011000    0.000     A  0.370613866746  0.2677760  ; for alkene; H2C=CR
    CL     6    12.011000    0.000     A  0.356359487256  0.2928800  ; carbonyl C (acetic acid/methyl acetate)
  CRL1     6    12.011000    0.000     A  0.358141284692  0.1506240  ; sp3 carbon with 1 H on a ring  (-CH1-) for sterols
  CRL2     6    12.011000    0.000     A  0.359923082129  0.2510400  ; carbon of methylene group on a ring (-CH2-) for sterols
  CTL1     6    12.011000    0.000     A  0.405358916754  0.0836800  ; sp3 carbon with 1 H  (-CH1-)
  CTL2     6    12.011000    0.000     A  0.358141284692  0.2343040  ; carbon of methylene group (-CH2-)
  CTL3     6    12.011000    0.000     A  0.363486677001  0.3263520  ; carbon of methyl group (-CH3)
  CTL5     6    12.011000    0.000     A  0.367050271874  0.3347200  ; carbon of methyl group (-CH3) for tetramethylammonium
  NH3L     7    14.007000    0.000     A  0.329632525712  0.8368000  ; nitrogen phosphatidylethanolamine
   NTL     7    14.007000    0.000     A  0.329632525712  0.8368000  ; ammonium nitrogen
   O2L     8    15.999400    0.000     A  0.302905564168  0.5020800  ; Nucleic acid =O in phosphate or sulfate
   OBL     8    15.999400    0.000     A  0.302905564168  0.5020800  ; acetic acid carboxyl oxygen (e. to protein OB)
   OCL     8    15.999400    0.000     A  0.302905564168  0.5020800  ; acetate oxygen
   OHL     8    15.999400    0.000     A  0.315378146222  0.6363864  ; Nucleic acid phosphate hydroxyl oxygen
   OSL     8    15.999400    0.000     A  0.293996576986  0.4184000  ; ester oxygen
  OSLP     8    15.999400    0.000     A  0.293996576986  0.4184000  ; Phosphate oxygen, to avoid conflict with methylacetate type O
    PL    15    30.974000    0.000     A  0.383086448800  2.4476400  ; phosphorus
    SL    16    32.060000    0.000     A  0.374177461619  1.9664800  ; Sulfate sulfur

; from file toppar_c36_jul22/par_all36_na.prm
; type atnum         mass   charge ptype           sigma  epsilon
   HN1     1     1.008000    0.000     A  0.040001352445  0.1924640  ; Nucleic acid amine proton
   HN2     1     1.008000    0.000     A  0.040001352445  0.1924640  ; Nucleic acid ring nitrogen proton
   HN3     1     1.008000    0.000     A  0.195997717991  0.1924640  ; Nucleic acid aromatic carbon proton
   HN4     1     1.008000    0.000     A  0.040001352445  0.1924640  ; Nucleic acid phosphate hydroxyl proton
   HN5     1     1.008000    0.000     A  0.040001352445  0.1924640  ; Nucleic acid ribose hydroxyl proton
   HN6     1     1.008000    0.000     A  0.235197261589  0.0920480  ; Nucleic acid ribose aliphatic proton
   HN7     1     1.008000    0.000     A  0.235197261589  0.0920480  ; Nucleic acid proton (equivalent to protein HA)
   HN8     1     1.008000    0.000     A  0.238760856462  0.1171520  ; Bound to CN8 in nucleic acids/model compounds
   HN9     1     1.008000    0.000     A  0.238760856462  0.1004160  ; Bound to CN9 in nucleic acids/model compounds
   CN1     6    12.011000    0.000     A  0.338541512893  0.4184000  ; Nucleic acid carbonyl carbon
  CN1T     6    12.011000    0.000     A  0.338541512893  0.4184000  ; Nucleic acid carbonyl carbon (T/U C2)
   CN2     6    12.011000    0.000     A  0.338541512893  0.4184000  ; Nucleic acid aromatic carbon to amide
   CN3     6    12.011000    0.000     A  0.338541512893  0.3765600  ; Nucleic acid aromatic carbon
  CN3T     6    12.011000    0.000     A  0.338541512893  0.3765600  ; Nucleic acid aromatic carbon, Thy C5
   CN4     6    12.011000    0.000     A  0.338541512893  0.3138000  ; Nucleic acid purine C8 and ADE C2
   CN5     6    12.011000    0.000     A  0.338541512893  0.3138000  ; Nucleic acid purine C4 and C5
  CN5G     6    12.011000    0.000     A  0.338541512893  0.3138000  ; Nucleic acid guanine C5
   CN7     6    12.011000    0.000     A  0.405358916754  0.0836800  ; Nucleic acid carbon (equivalent to protein CT1)
  CN7B     6    12.011000    0.000     A  0.405358916754  0.0836800  ; Nucleic acid aliphatic carbon for C1'
   CN8     6    12.011000    0.000     A  0.358141284692  0.2343040  ; Nucleic acid carbon (equivalent to protein CT2)
  CN8B     6    12.011000    0.000     A  0.358141284692  0.2343040  ; Nucleic acid carbon (equivalent to protein CT2)
   CN9     6    12.011000    0.000     A  0.363486677001  0.3263520  ; Nucleic acid carbon (equivalent to protein CT3)
   NN1     7    14.007000    0.000     A  0.329632525712  0.8368000  ; Nucleic acid amide nitrogen
   NN2     7    14.007000    0.000     A  0.329632525712  0.8368000  ; Nucleic acid protonated ring nitrogen
  NN2B     7    14.007000    0.000     A  0.329632525712  0.8368000  ; From NN2, for N9 in GUA different from ADE
  NN2G     7    14.007000    0.000     A  0.329632525712  0.8368000  ; Nucleic acid protonated ring nitrogen, gua N1
  NN2U     7    14.007000    0.000     A  0.329632525712  0.8368000  ; Nucleic acid protonated ring nitrogen, ura N3
   NN3     7    14.007000    0.000     A  0.329632525712  0.8368000  ; Nucleic acid unprotonated ring nitrogen
  NN3A     7    14.007000    0.000     A  0.329632525712  0.8368000  ; Nucleic acid unprotonated ring nitrogen, ade N1 and N3
  NN3G     7    14.007000    0.000     A  0.329632525712  0.8368000  ; Nucleic acid unprotonated ring nitrogen, gua N3
   NN4     7    14.007000    0.000     A  0.329632525712  0.8368000  ; Nucleic acid purine N7
   NN6     7    14.007000    0.000     A  0.329632525712  0.8368000  ; Nucleic acid sp3 amine nitrogen (equiv to protein nh3)
   ON1     8    15.999400    0.000     A  0.302905564168  0.5020800  ; Nucleic acid carbonyl oxygen
  ON1C     8    15.999400    0.000     A  0.302905564168  0.5020800  ; Nucleic acid carbonyl oxygen, cyt O2
   ON2     8    15.999400    0.000     A  0.315378146222  0.6363864  ; Nucleic acid phosphate ester oxygen
   ON3     8    15.999400    0.000     A  0.302905564168  0.5020800  ; Nucleic acid =O in phosphate
   ON4     8    15.999400    0.000     A  0.315378146222  0.6363864  ; Nucleic acid phosphate hydroxyl oxygen
   ON5     8    15.999400    0.000     A  0.315378146222  0.6363864  ; Nucleic acid ribose hydroxyl oxygen
   ON6     8    15.999400    0.000     A  0.315378146222  0.6363864  ; Nucleic acid deoxyribose ring oxygen
  ON6B     8    15.999400    0.000     A  0.315378146222  0.6363864  ; Nucleic acid ribose ring oxygen
     P    15    30.974000    0.000     A  0.383086448800  2.4476400  ; phosphorus
    P2    15    30.974000    0.000     A  0.383086448800  2.4476400  ; phosphorus, adm, 2011 DNA update
    P3    15    30.974000    0.000     A  0.383086448800  2.4476400  ; pyrophosphate phosphorus
    P4    15    30.974000    0.000     A  0.383086448800  2.4476400  ; protonated pyrophosphate phosphorus

; from file toppar_c36_jul22/par_all36m_prot.prm
; type atnum         mass   charge ptype           sigma  epsilon
     H     1     1.008000    0.000     A  0.040001352445  0.1924640  ; polar H
    HA     1     1.008000    0.000     A  0.235197261589  0.0920480  ; nonpolar H
   HA1     1     1.008000    0.000     A  0.238760856462  0.1882800  ; alkane, CH, new LJ params (see toppar_all22_prot_aliphatic_c27.str)
   HA2     1     1.008000    0.000     A  0.238760856462  0.1422560  ; alkane, CH2, new LJ params (see toppar_all22_prot_aliphatic_c27.str)
   HA3     1     1.008000    0.000     A  0.238760856462  0.1004160  ; alkane, CH3, new LJ params (see toppar_all22_prot_aliphatic_c27.str)
   HB1     1     1.008000    0.000     A  0.235197261589  0.0920480  ; backbone H
   HB2     1     1.008000    0.000     A  0.238760856462  0.1171520  ; aliphatic backbone H, to CT2
    HC     1     1.008000    0.000     A  0.040001352445  0.1924640  ; N-ter H
   HE1     1     1.008000    0.000     A  0.222724679535  0.1297040  ; for alkene; RHC=CR
   HE2     1     1.008000    0.000     A  0.224506476971  0.1087840  ; for alkene; H2C=CR
    HP     1     1.008000    0.000     A  0.242003727796  0.1255200  ; aromatic H
   HR1     1     1.008000    0.000     A  0.160361769265  0.1924640  ; his he1, (+) his HG,HD2
   HR2     1     1.008000    0.000     A  0.124725820540  0.1924640  ; (+) his HE1
   HR3     1     1.008000    0.000     A  0.261567863646  0.0326352  ; neutral his HG, HD2
    HS     1     1.008000    0.000     A  0.080180884633  0.4184000  ; thiol hydrogen
     C     6    12.011000    0.000     A  0.356359487256  0.4602400  ; carbonyl C, peptide backbone
    C3     6    12.011000    0.000     A  0.405358916754  0.0836800  ; cyclopropane carbon
    CA     6    12.011000    0.000     A  0.355005321205  0.2928800  ; aromatic C
   CAI     6    12.011000    0.000     A  0.354577689820  0.3054320  ; aromatic C next to CPT in trp
    CC     6    12.011000    0.000     A  0.356359487256  0.2928800  ; carbonyl C, asn,asp,gln,glu,cter,ct2
    CD     6    12.011000    0.000     A  0.356359487256  0.2928800  ; carbonyl C, pres aspp,glup,ct1
   CE1     6    12.011000    0.000     A  0.372395664183  0.2845120  ; for alkene; RHC=CR
   CE2     6    12.011000    0.000     A  0.370613866746  0.2677760  ; for alkene; H2C=CR
   CP1     6    12.011000    0.000     A  0.405358916754  0.0836800  ; tetrahedral C (proline CA)
   CP2     6    12.011000    0.000     A  0.387540942391  0.2301200  ; tetrahedral C (proline CB/CG)
   CP3     6    12.011000    0.000     A  0.387540942391  0.2301200  ; tetrahedral C (proline CD)
  CPH1     6    12.011000    0.000     A  0.320723538531  0.2092000  ; his CG and CD2 carbons
  CPH2     6    12.011000    0.000     A  0.320723538531  0.2092000  ; his CE1 carbon
   CPT     6    12.011000    0.000     A  0.331414323148  0.4142160  ; trp C between rings
    CS     6    12.011000    0.000     A  0.391995435982  0.4602400  ; thiolate carbon
    CT     6    12.011000    0.000     A  0.405358916754  0.0836800  ; aliphatic sp3 C, new LJ params, no hydrogens, see retinol stream file for parameters
   CT1     6    12.011000    0.000     A  0.356359487256  0.1338880  ; aliphatic sp3 C for CH
   CT2     6    12.011000    0.000     A  0.358141284692  0.2343040  ; aliphatic sp3 C for CH2
  CT2A     6    12.011000    0.000     A  0.358141284692  0.2343040  ; from CT2 (GLU, HSP chi1/chi2 fitting) 05282010, zhu
   CT3     6    12.011000    0.000     A  0.363486677001  0.3263520  ; aliphatic sp3 C for CH3
    CY     6    12.011000    0.000     A  0.354577689820  0.3054320  ; TRP C in pyrrole ring
     N     7    14.007000    0.000     A  0.329632525712  0.8368000  ; proline N
   NC2     7    14.007000    0.000     A  0.329632525712  0.8368000  ; guanidinium nitrogen
   NH1     7    14.007000    0.000     A  0.329632525712  0.8368000  ; peptide nitrogen
   NH2     7    14.007000    0.000     A  0.329632525712  0.8368000  ; amide nitrogen
   NH3     7    14.007000    0.000     A  0.329632525712  0.8368000  ; ammonium nitrogen
    NP     7    14.007000    0.000     A  0.329632525712  0.8368000  ; Proline ring NH2+ (N-terminal)
   NR1     7    14.007000    0.000     A  0.329632525712  0.8368000  ; neutral his protonated ring nitrogen
   NR2     7    14.007000    0.000     A  0.329632525712  0.8368000  ; neutral his unprotonated ring nitrogen
   NR3     7    14.007000    0.000     A  0.329632525712  0.8368000  ; charged his ring nitrogen
    NY     7    14.007000    0.000     A  0.329632525712  0.8368000  ; TRP N in pyrrole ring
    OS     8    15.999400    0.000     A  0.315378146222  0.6363864  ; ester oxygen
     S    16    32.060000    0.000     A  0.356359487256  1.8828000  ; sulphur
    SM    16    32.060000    0.000     A  0.351904993665  1.5899200  ; sulfur C-S-S-C type
    SS    16    32.060000    0.000     A  0.391995435982  1.9664800  ; thiolate sulfur

; from file toppar_c36_jul22/silicates/toppar/par_silicates.inp
; type atnum         mass   charge ptype           sigma  epsilon

; from file toppar_c36_jul22/silicates/toppar/top_silicates.inp
; type atnum         mass   charge ptype           sigma  epsilon
   DUM     1     1.008000    0.000     A  0.000000000000  0.0000000  ; dummy atom
   HAL     1     1.008000    0.000     A  0.235197261589  0.0920480  ; Si aliphatic hydrogen;
  HSIA     1     1.008000    0.000     A  0.235197261589  0.0920480  ; Si aliphatic hydrogen;
  HSIO     1     1.008000    0.000     A  0.040001352445  0.1924640  ; Si hydroxyl hydrogen;
   OAL     8    15.999000    0.000     A  0.315378146222  0.6363864  ; Si Hydroxyl Oxygen;
  OSIA     8    15.999000    0.000     A  0.315378146222  0.6363864  ; Si Ester Oxygen;
  OSIE     8    15.999000    0.000     A  0.315378146222  0.6363864  ; Si Ester Oxygen;
  OSIH     8    15.999000    0.000     A  0.315378146222  0.6363864  ; Si Hydroxyl Oxygen;
  ALSI    13    26.981540    0.000     A  0.391995435982  2.7196000  ; Aluminum Atom;
    SI    14    28.085500    0.000     A  0.391995435982  2.5104000  ; Si Atom;
  SIH3    14    28.085500    0.000     A  0.391995435982  2.5104000  ; Si Atom;

; from file toppar_c36_jul22/stream/carb/toppar_all36_carb_glycolipid.str
; type atnum         mass   charge ptype           sigma  epsilon

; from file toppar_c36_jul22/stream/carb/toppar_all36_carb_glycopeptide.str
; type atnum         mass   charge ptype           sigma  epsilon

; from file toppar_c36_jul22/stream/carb/toppar_all36_carb_imlab.str
; type atnum         mass   charge ptype           sigma  epsilon

; from file toppar_c36_jul22/stream/carb/toppar_all36_carb_lignin.str
; type atnum         mass   charge ptype           sigma  epsilon
 HLGA1     1     1.008000    0.000     A  0.238760856462  0.1882800  ; 
 HLGA2     1     1.008000    0.000     A  0.238760856462  0.1464400  ; 
 HLGA3     1     1.008000    0.000     A  0.238760856462  0.1004160  ; 
 HLGA4     1     1.008000    0.000     A  0.222724679535  0.1297040  ; 
 HLGP1     1     1.008000    0.000     A  0.040001352445  0.1924640  ; 
HLGR52     1     1.008000    0.000     A  0.160361769265  0.1924640  ; 
HLGR61     1     1.008000    0.000     A  0.242003727796  0.1255200  ; 
HLGR62     1     1.008000    0.000     A  0.195997717991  0.1924640  ; 
 CLG01     6    12.011000    0.000     A  0.372395664183  0.2845120  ; CLG2DC1
 CLG02     6    12.011000    0.000     A  0.372395664183  0.2845120  ; CLG2DC2
 CLG03     6    12.011000    0.000     A  0.302905564168  0.4100320  ; CLG2O2
 CLG04     6    12.011000    0.000     A  0.356359487256  0.2928800  ; CLG2O3
 CLG05     6    12.011000    0.000     A  0.320723538531  0.2510400  ; CLG2O4
 CLG06     6    12.011000    0.000     A  0.355005321205  0.2928800  ; CLG2R61
CLG06A     6    12.011000    0.000     A  0.355005321205  0.2928800  ; CLG2R6A
CLG06B     6    12.011000    0.000     A  0.355005321205  0.2928800  ; CLG2R6B
 CLG07     6    12.011000    0.000     A  0.338541512893  0.3765600  ; CLG2R62
 CLG08     6    12.011000    0.000     A  0.338541512893  0.4184000  ; CLG2R63
 CLG09     6    12.011000    0.000     A  0.355005321205  0.2928800  ; CLG2R67
 CLG10     6    12.011000    0.000     A  0.331414323148  0.4142160  ; CLG2RC0
 CLG11     6    12.011000    0.000     A  0.356359487256  0.1338880  ; CLG311
 CLG12     6    12.011000    0.000     A  0.358141284692  0.2343040  ; CLG321
 CLG13     6    12.011000    0.000     A  0.365268474438  0.3263520  ; CLG331
 CLG14     6    12.011000    0.000     A  0.358141284692  0.1506240  ; CLG3C51
 CLG15     6    12.011000    0.000     A  0.359923082129  0.2510400  ; CLG3C52
 CLG16     6    12.011000    0.000     A  0.356359487256  0.1338880  ; CLG3RC1
  OLG1     8    15.999400    0.000     A  0.302905564168  0.5020800  ; OLG2D1
  OLG2     8    15.999400    0.000     A  0.302905564168  0.5020800  ; OLG2D2
  OLG3     8    15.999400    0.000     A  0.302905564168  0.5020800  ; OLG2D4
  OLG4     8    15.999400    0.000     A  0.293996576986  0.4184000  ; OLG301
  OLG5     8    15.999400    0.000     A  0.293996576986  0.4184000  ; OLG302
  OLG6     8    15.999400    0.000     A  0.314487247504  0.8037464  ; OLG311
  OLG7     8    15.999400    0.000     A  0.293996576986  0.4184000  ; OLG3C51
  OLG8     8    15.999400    0.000     A  0.293996576986  0.4184000  ; OLG3R60

; from file toppar_c36_jul22/stream/lipid/toppar_all36_lipid_bacterial.str
; type atnum         mass   charge ptype           sigma  epsilon

; from file toppar_c36_jul22/stream/lipid/toppar_all36_lipid_cholesterol.str
; type atnum         mass   charge ptype           sigma  epsilon

; from file toppar_c36_jul22/stream/lipid/toppar_all36_lipid_detergent.str
; type atnum         mass   charge ptype           sigma  epsilon

; from file toppar_c36_jul22/stream/lipid/toppar_all36_lipid_ether.str
; type atnum         mass   charge ptype           sigma  epsilon

; from file toppar_c36_jul22/stream/lipid/toppar_all36_lipid_lps.str
; type atnum         mass   charge ptype           sigma  epsilon

; from file toppar_c36_jul22/stream/lipid/toppar_all36_lipid_miscellaneous.str
; type atnum         mass   charge ptype           sigma  epsilon

; from file toppar_c36_jul22/stream/lipid/toppar_all36_lipid_prot.str
; type atnum         mass   charge ptype           sigma  epsilon

; from file toppar_c36_jul22/stream/lipid/toppar_all36_lipid_sphingo.str
; type atnum         mass   charge ptype           sigma  epsilon
  CEL3     6    12.011000    0.000     A  0.372395664183  0.2845120  ; 
  CTO1     6    12.011000    0.000     A  0.405358916754  0.0836800  ; 
  CTO2     6    12.011000    0.000     A  0.358141284692  0.2343040  ; 
   NHL     7    14.007000    0.000     A  0.329632525712  0.8368000  ; 

; from file toppar_c36_jul22/stream/misc/toppar_ions_won.str
; type atnum         mass   charge ptype           sigma  epsilon
  BE2P     4     9.012200    0.000     A  0.007127189745  0.4250944  ; Beryllium
  AL3P    13    26.982000    0.000     A  0.039377723342  0.4460144  ; Aluminum
  SC3P    21    44.956000    0.000     A  0.195445360786  0.5899440  ; Scandium
  TI1P    22    47.867000    0.000     A  0.344011631023  1.7016328  ; Titanium
  TI3P    22    47.867000    0.000     A  0.147693189493  0.5376440  ; Titanium
   V2P    23    50.942000    0.000     A  0.196656983042  0.6732056  ; Vanadium
   V3P    23    50.942000    0.000     A  0.109437998536  0.5171424  ; Vanadium
  CR2P    24    51.996000    0.000     A  0.188727984451  0.6974728  ; Chromium
  CR3P    24    51.996000    0.000     A  0.150223341853  0.5045904  ; Chromium
  MN2P    25    54.938000    0.000     A  0.214474957405  0.7050040  ; Manganese
  MN3P    25    54.938000    0.000     A  0.068492293451  0.5238368  ; Manganese
  FE2P    26    55.854000    0.000     A  0.192451941093  0.6673480  ; Iron
  FE3P    26    55.854000    0.000     A  0.100903188817  0.5238368  ; Iron
  CO2P    27    58.933000    0.000     A  0.165279530189  0.6439176  ; Cobalt
  CO3P    27    58.933000    0.000     A  0.045988191830  0.4983144  ; Cobalt
  NI2P    28    58.693000    0.000     A  0.139033653953  0.5999856  ; Nickel
  CU1P    29    63.546000    0.000     A  0.153590939007  0.7748768  ; Copper
  CU2P    29    63.546000    0.000     A  0.129198132105  0.6296920  ; Copper
  GA3P    31    69.723000    0.000     A  0.040428983829  0.5045904  ; Gallium
  SR2P    38    87.620000    0.000     A  0.330683786199  0.9572992  ; Strontium
   Y3P    39    88.906000    0.000     A  0.251839249644  0.6928704  ; Yttrium
  RH3P    45   102.910000    0.000     A  0.082194315736  0.5376440  ; Rhodium
  PD2P    46   106.420000    0.000     A  0.165190440318  0.7288528  ; Palladium
  AG1P    47   107.870000    0.000     A  0.216363662688  1.2008080  ; Silver
  AG2P    47   107.870000    0.000     A  0.186910551066  0.7752952  ; Silver
  IN3P    49   114.820000    0.000     A  0.154357111905  0.6163032  ; Indium
  SN2P    50   118.710000    0.000     A  0.295422014935  0.7861736  ; Tin
  LA3P    57   138.910000    0.000     A  0.315859231529  0.7932864  ; Lanthanum
  CE3P    58   140.120000    0.000     A  0.304954631219  0.7702744  ; Cerium
  PR3P    59   140.910000    0.000     A  0.295618012653  0.7627432  ; Praseodynium
  ND3P    60   144.240000    0.000     A  0.288633366703  0.7497728  ; Neodynium
  PM3P    61   144.910000    0.000     A  0.295279471140  0.7426600  ; Promethium
  SM2P    62   150.360000    0.000     A  0.330790694046  1.0242432  ; Samarium
  SM3P    62   150.360000    0.000     A  0.279154204342  0.7351288  ; Samarium
  EU2P    63   151.960000    0.000     A  0.327922000173  0.9907712  ; Europium
  EU3P    63   151.960000    0.000     A  0.271367749546  0.7280160  ; Europium
  GD3P    64   157.250000    0.000     A  0.268160514160  0.7209032  ; Gadolinium
  TB3P    65   158.930000    0.000     A  0.262815121851  0.7083512  ; Terbium
  DY3P    66   162.500000    0.000     A  0.257362821696  0.6999832  ; Dysprosium
  HO3P    67   164.930000    0.000     A  0.247794569464  0.6928704  ; Holmium
  ER3P    68   167.280000    0.000     A  0.243625163463  0.6845024  ; Erbium
  TM3P    69   168.930000    0.000     A  0.240293202257  0.6778080  ; Thulium
  YB2P    70   173.050000    0.000     A  0.286691207498  0.8593936  ; Ytterbium
  YB3P    70   173.050000    0.000     A  0.230778403947  0.6711136  ; Ytterbium
  LU3P    71   174.970000    0.000     A  0.240756469590  0.6644192  ; Lutetium
  PT2P    78   195.080000    0.000     A  0.142027073646  0.6824104  ; Platinum
  AU1P    79   196.970000    0.000     A  0.112502690127  1.4907592  ; Gold
  AU3P    79   196.970000    0.000     A  0.065106878322  0.5564720  ; Gold
  HG2P    80   200.590000    0.000     A  0.210572821020  0.8593936  ; Mercury
  TL3P    81   204.380000    0.000     A  0.154891651136  0.6815736  ; Thallium
  PB2P    82   207.200000    0.000     A  0.313239989298  1.0016496  ; Lead
  BI3P    83   208.980000    0.000     A  0.243785525232  0.7740400  ; Bismuth
  RA2P    88   226.030000    0.000     A  0.372377846208  1.2631496  ; Radium
   U3P    92   238.030000    0.000     A  0.303119379860  0.7932864  ; Uranium
  PU3P    94   244.060000    0.000     A  0.297506717936  0.7702744  ; Plutonium

; from file toppar_c36_jul22/stream/na/toppar_all36_na_modifications.str
; type atnum         mass   charge ptype           sigma  epsilon
  HNE1     1     1.008000    0.000     A  0.222724679535  0.1297040  ; for alkene; RHC=CR (modified thy patch Sasha)
  HNE2     1     1.008000    0.000     A  0.224506476971  0.1087840  ; for alkene; H2C=CR (modified thy patch Sasha)
   HNP     1     1.008000    0.000     A  0.242003727796  0.1255200  ; pure aromatic H
  CN3D     6    12.011000    0.000     A  0.338541512893  0.3765600  ; Nucleic acid aromatic carbon for 5MC
   CN6     6    12.011000    0.000     A  0.405358916754  0.0836800  ; carbocylic NA modifications (numbering is correct)
  CN7E     6    12.011000    0.000     A  0.405358916754  0.0836800  ; cabocyclic NA modifications
   CNA     6    12.011000    0.000     A  0.355005321205  0.2928800  ; pure aromatic carbon
  CNA2     6    12.011000    0.000     A  0.338541512893  0.2928800  ; pure aromatic carbon bound to F
  CNE1     6    12.011000    0.000     A  0.372395664183  0.2845120  ; for alkene; RHC=CR (modified thy patch Sasha)
  CNE2     6    12.011000    0.000     A  0.370613866746  0.2677760  ; for alkene; H2C=CR (modified thy patch Sasha)
   CNG     6    12.011000    0.000     A  0.356359487256  0.4602400  ; guanidinium type carbon
  CT2P     6    12.011000    0.000     A  0.358141284692  0.2343040  ; (sp3)H2 Carbon in PNA backbone (eq. CT2)
  NN1C     7    14.007000    0.000     A  0.329632525712  0.8368000  ; Nucleic acid imino nitrogen (cyt taut Sasha)
  NN2C     7    14.007000    0.000     A  0.329632525712  0.8368000  ; Nucleic acid protonated ring nitrogen (cyt taut Sasha)
  NN3I     7    14.007000    0.000     A  0.329632525712  0.8368000  ; Nucleic acid unprotonated ring nitrogen, inosine N3
   NNG     7    14.007000    0.000     A  0.329632525712  0.8368000  ; guanidinium type nitrogen
  ON2M     8    15.999400    0.000     A  0.293996576986  0.4184000  ; ether oxygen for methylated C2' of ribose
   FNA     9    18.998400    0.000     A  0.302905564168  0.5020800  ; Aromatic fluorine

; from file toppar_c36_jul22/stream/na/toppar_all36_na_nad_ppi.str
; type atnum         mass   charge ptype           sigma  epsilon
  HN3B     1     1.008000    0.000     A  0.160361769265  0.1924640  ; NAD+ aromatic hydrogen
  CN1A     6    12.011000    0.000     A  0.356359487256  0.2928800  ; NAD+/NADH amide carbonyl carbon
  CN3A     6    12.011000    0.000     A  0.320723538531  0.7531200  ; NAD+ aromatic carbon
  CN3B     6    12.011000    0.000     A  0.320723538531  0.7531200  ; NAD+ aromatic carbon
  CN3C     6    12.011000    0.000     A  0.320723538531  0.7531200  ; NADH aromatic carbon

; from file toppar_c36_jul22/stream/prot/toppar_all36_prot_arg0.str
; type atnum         mass   charge ptype           sigma  epsilon
  HRA3     1     1.008000    0.000     A  0.238760856462  0.1004160  ; alphatic proton, CH3
  HRM1     1     1.008000    0.000     A  0.155907275675  0.0376560  ; polar H, dimethylamine
  HRM2     1     1.008000    0.000     A  0.155907275675  0.0418400  ; polar H, methylamine
  HRP2     1     1.008000    0.000     A  0.040001352445  0.1924640  ; polar H, +ve charge
  CR33     6    12.011000    0.000     A  0.365268474438  0.3263520  ; aliphatic C for methyl group (-CH3)
  CRN1     6    12.011000    0.000     A  0.356359487256  0.4602400  ; conjugated C in Arg/guanidinium
  NRC4     7    14.007000    0.000     A  0.329632525712  0.8368000  ; N for deprotonated Schiff's base
  NRN1     7    14.007000    0.000     A  0.356359487256  1.8828000  ; dimethylamine nitrogen
  NRN2     7    14.007000    0.000     A  0.354577689820  0.2510400  ; methylamine nitrogen

; from file toppar_c36_jul22/stream/prot/toppar_all36_prot_c36m_d_aminoacids.str
; type atnum         mass   charge ptype           sigma  epsilon
  CPD1     6    12.011000    0.000     A  0.405358916754  0.0836800  ; added for D-proline
  CTD1     6    12.011000    0.000     A  0.356359487256  0.1338880  ; added for D-amino acids

; from file toppar_c36_jul22/stream/prot/toppar_all36_prot_fluoro_alkanes.str
; type atnum         mass   charge ptype           sigma  epsilon
   HF1     1     1.008000    0.000     A  0.235197261589  0.1171520  ; Aliphatic H on fluorinated C
   HF2     1     1.008000    0.000     A  0.231633666716  0.1255200  ; Aliphatic H on fluorinated C
   CF1     6    12.011000    0.000     A  0.338541512893  0.2510400  ; monofluoromethyl
   CF2     6    12.011000    0.000     A  0.365268474438  0.1757280  ; difluoromethyl
   CF3     6    12.011000    0.000     A  0.409813410345  0.0836800  ; trifluoromethyl
    F1     9    18.998000    0.000     A  0.290432982114  0.5648400  ; Fluorine, monofluoro
    F2     9    18.998000    0.000     A  0.290432982114  0.4393200  ; Fluorine, difluoro
    F3     9    18.998000    0.000     A  0.285087589805  0.4058480  ; Fluorine, trifluoro

; from file toppar_c36_jul22/stream/prot/toppar_all36_prot_heme.str
; type atnum         mass   charge ptype           sigma  epsilon
    CM     6    12.011000    0.000     A  0.374177461619  0.4602400  ; heme CO carbon
   CPA     6    12.011000    0.000     A  0.320723538531  0.3765600  ; heme alpha-C
   CPB     6    12.011000    0.000     A  0.320723538531  0.3765600  ; heme beta-C
   CPM     6    12.011000    0.000     A  0.320723538531  0.3765600  ; heme meso-C
   CST     6    12.011000    0.000     A  0.278494939291  0.2426720  ; CO2 carbon
   NPH     7    14.007000    0.000     A  0.329632525712  0.8368000  ; heme pyrrole N
    OM     8    15.999000    0.000     A  0.302905564168  0.5020800  ; heme CO/O2 oxygen
   OST     8    15.999000    0.000     A  0.301480126219  0.6903600  ; CO2 oxygen
    FE    26    55.847000    0.000     A  0.115816833358  0.0000000  ; heme iron 56

; from file toppar_c36_jul22/stream/prot/toppar_all36_prot_model.str
; type atnum         mass   charge ptype           sigma  epsilon

; from file toppar_c36_jul22/stream/prot/toppar_all36_prot_modify_res.str
; type atnum         mass   charge ptype           sigma  epsilon

; from file toppar_c36_jul22/stream/prot/toppar_all36_prot_na_combined.str
; type atnum         mass   charge ptype           sigma  epsilon
  ON2B     8    15.999400    0.000     A  0.315378146222  0.6363864  ; Nucleic acid phosphate ester oxygen (pres tp1/tp2, toppar_tyr_ser_thr_phosphate.str)
    SP    16    32.060000    0.000     A  0.391995435982  1.8828000  ; positive Sulphur, S-adenosylmethionine (SAM)

; from file toppar_c36_jul22/stream/prot/toppar_all36_prot_retinol.str
; type atnum         mass   charge ptype           sigma  epsilon
  CC1A     6    12.011000    0.000     A  0.372395664183  0.2845120  ; alkene conjugation
  CC1B     6    12.011000    0.000     A  0.372395664183  0.2845120  ; alkene conjugation
   CC2     6    12.011000    0.000     A  0.370613866746  0.2677760  ; alkene conjugation
   NS1     7    14.007000    0.000     A  0.329632525712  0.8368000  ; N for deprotonated Schiff's base
   NS2     7    14.007000    0.000     A  0.329632525712  0.8368000  ; N for protonated Schiff's base

; from file toppar_c36_jul22/top_all36_prot.rtf
; type atnum         mass   charge ptype           sigma  epsilon
     O     8    15.999400    0.000     A  0.302905564168  0.5020800  ; carbonyl oxygen
    OB     8    15.999400    0.000     A  0.302905564168  0.5020800  ; carbonyl oxygen in acetic acid
    OC     8    15.999400    0.000     A  0.302905564168  0.5020800  ; carboxylate oxygen
   OH1     8    15.999400    0.000     A  0.315378146222  0.6363864  ; hydroxyl oxygen

; from file toppar_c36_jul22/toppar_water_ions.str
; type atnum         mass   charge ptype           sigma  epsilon
  HPER     1     1.008000    0.000     A  0.040001352445  0.1924640  ; H of H2O2
#ifdef HEAVY_H
    HT     1     4.032000    0.417     A  0.040001352445  0.1924640  ; TIPS3P WATER HYDROGEN
#else
    HT     1     1.008000    0.417     A  0.040001352445  0.1924640  ; TIPS3P WATER HYDROGEN
#endif
    HX     1     1.008000    0.000     A  0.040001352445  0.1924640  ; hydroxide hydrogen
   LIT     3     6.941000    0.000     A  0.231188217357  0.0097487  ; Lithium ion
  OPER     8    15.999000    0.000     A  0.298313872174  0.8528666  ; O of H2O2
#ifdef HEAVY_H
    OT     8     7.935400   -0.834     A  0.315057422683  0.6363864  ; TIPS3P WATER OXYGEN
#else
    OT     8    15.999400   -0.834     A  0.315057422683  0.6363864  ; TIPS3P WATER OXYGEN
#endif
    OX     8    15.999400    0.000     A  0.302905564168  0.5020800  ; hydroxide oxygen
   SOD    11    22.989770    0.000     A  0.251367073323  0.1962296  ; Sodium Ion
    MG    12    24.305000    0.000     A  0.211142996199  0.0627600  ; Magnesium Ion
   CLA    17    35.450000    0.000     A  0.404468018036  0.6276000  ; Chloride Ion
   POT    19    39.098300    0.000     A  0.314264522824  0.3640080  ; Potassium Ion
   CAL    20    40.080000    0.000     A  0.243571709540  0.5020800  ; Calcium Ion
    ZN    30    65.370000    0.000     A  0.194215920555  1.0460000  ; zinc (II) cation
   RUB    37    85.467800    0.000     A  0.338541512893  0.6276000  ; Rubidium Ion
   CAD    48   112.411000    0.000     A  0.241789912103  0.5020800  ; cadmium (II) cation
   CES    55   132.905450    0.000     A  0.374177461619  0.7949600  ; Cesium Ion
   BAR    56   137.327000    0.000     A  0.336759715457  0.6276000  ; Barium Ion

; The following atom types are NOT part of the CHARMM distribution.
; Atomtypes for additional water models
; Original TIP3P water model
#ifdef HEAVY_H
  HWT3     1     4.032000    0.417     A  0.000000000000  0.0000000  ; Hydrogen for TIP3P water model
  OWT3     8     7.936000   -0.834     A  0.315057422683  0.6363900  ; Oxygen for TIP3P water model
#else
  HWT3     1     1.008000    0.417     A  0.000000000000  0.0000000  ; Hydrogen for TIP3P water model
  OWT3     8    16.000000   -0.834     A  0.315057422683  0.6363900  ; Oxygen for TIP3P water model
#endif
; SPC water model
#ifdef HEAVY_H
 HWSPC     1     4.032000    0.410     A  0.000000000000  0.0000000  ; Hydrogen for SPC water model
 OWSPC     8     7.935400   -0.820     A  0.316557000000  0.6506290  ; Oxygen for SPC water model
#else
 HWSPC     1     1.008000    0.410     A  0.000000000000  0.0000000  ; Hydrogen for SPC water model
 OWSPC     8    15.999400   -0.820     A  0.316557000000  0.6506290  ; Oxygen for SPC water model
#endif
; SPC/E water model
#ifdef HEAVY_H
HWSPCE     1     4.032000    0.424     A  0.000000000000  0.0000000  ; Hydrogen for SPC/E water model
OWSPCE     8     7.935400   -0.848     A  0.316557000000  0.6506290  ; Oxygen for SPC/E water model
#else
HWSPCE     1     1.008000    0.424     A  0.000000000000  0.0000000  ; Hydrogen for SPC/E water model
OWSPCE     8    15.999400   -0.848     A  0.316557000000  0.6506290  ; Oxygen for SPC/E water model
#endif
; TIP5P water model
#ifdef HEAVY_H
  HWT5     1     4.032000    0.241     A  0.000000000000  0.0000000  ; Hydrogen for TIP5P water model
  OWT5     8     7.936000    0.000     A  0.312000000000  0.6694400  ; Oxygen for TIP5P water model
#else
  HWT5     1     1.008000    0.241     A  0.000000000000  0.0000000  ; Hydrogen for TIP5P water model
  OWT5     8    16.000000    0.000     A  0.312000000000  0.6694400  ; Oxygen for TIP5P water model
#endif
  MWT5     0     0.000000   -0.241     D  0.000000000000  0.0000000  ; Virtual site for TIP5P water model
; TIP4P water model
#ifdef HEAVY_H
  HWT4     1     4.032000    0.520     A  0.000000000000  0.0000000  ; Hydrogen for TIP4P water model
  OWT4     8     7.936000    0.000     A  0.315365000000  0.6485200  ; Oxygen for TIP4P water model
#else
  HWT4     1     1.008000    0.520     A  0.000000000000  0.0000000  ; Hydrogen for TIP4P water model
  OWT4     8    16.000000    0.000     A  0.315365000000  0.6485200  ; Oxygen for TIP4P water model
#endif
  MWT4     0     0.000000   -1.040     D  0.000000000000  0.0000000  ; Virtual site of TIP4P water model
; TIP4P/Ew water model
#ifdef HEAVY_H
HWT4EW     1     4.032000    0.524     A  0.000000000000  0.0000000  ; Hydrogen for TIP4P/Ew water model
OWT4EW     8     7.936000    0.000     A  0.316435000000  0.6809460  ; Oxygen for TIP4P/Ew water model
#else
HWT4EW     1     1.008000    0.524     A  0.000000000000  0.0000000  ; Hydrogen for TIP4P/Ew water model
OWT4EW     8    16.000000    0.000     A  0.316435000000  0.6809460  ; Oxygen for TIP4P/Ew water model
#endif
MWT4EW     0     0.000000   -1.048     D  0.000000000000  0.0000000  ; Virtual site of TIP4P/Ew water model
; special dummy-type particles
  MNH3     0     0.000000     0.000     D  0.000000000000  0.00000
  MNH2     0     0.000000     0.000     D  0.000000000000  0.00000
  MCH3     0     0.000000     0.000     D  0.000000000000  0.00000
 MCH3S     0     0.000000     0.000     D  0.000000000000  0.00000
    MW     0     0.000000     0.000     D  0.000000000000  0.00000

; Updated Mg2+ parameters by Allner et. al. (DOI: 10.1021/ct3000734)
   MGA    12    24.305000     0.000     A  0.277000000000  0.0123428

[ pairtypes ]
    AG  CC301     1  0.300901042052  0.893457908130
    AG CC3051     1  0.300901042052  0.893457908130
    AG CC3062     1  0.300901042052  0.893457908130
    AG  CC30A     1  0.300901042052  0.893457908130
    AG  CC311     1  0.300901042052  0.893457908130
    AG CC311C     1  0.300901042052  0.893457908130
    AG CC311D     1  0.300901042052  0.893457908130
    AG  CC312     1  0.300901042052  0.893457908130
    AG CC312C     1  0.300901042052  0.893457908130
    AG CC312D     1  0.300901042052  0.893457908130
    AG CC3151     1  0.300901042052  0.893457908130
    AG CC3152     1  0.300901042052  0.893457908130
    AG CC3153     1  0.300901042052  0.893457908130
    AG CC3161     1  0.300901042052  0.893457908130
    AG CC3162     1  0.300901042052  0.893457908130
    AG CC3163     1  0.300901042052  0.893457908130
    AG  CC31A     1  0.300901042052  0.893457908130
    AG  CC321     1  0.300901042052  0.893457908130
    AG CC321C     1  0.300901042052  0.893457908130
    AG CC321D     1  0.300901042052  0.893457908130
    AG  CC322     1  0.300901042052  0.893457908130
    AG CC322C     1  0.300901042052  0.893457908130
    AG CC3251     1  0.300901042052  0.893457908130
    AG CC325A     1  0.300901042052  0.893457908130
    AG CC325B     1  0.300901042052  0.893457908130
    AG CC3261     1  0.300901042052  0.893457908130
    AG CC3263     1  0.300901042052  0.893457908130
    AG CC326A     1  0.300901042052  0.893457908130
    AG  CC32A     1  0.300901042052  0.893457908130
    AG  CC331     1  0.300901042052  0.893457908130
    AG  CC33A     1  0.300901042052  0.893457908130
    AG  CG301     1  0.300901042052  0.893457908130
    AG  CG311     1  0.300901042052  0.893457908130
    AG  CG314     1  0.300901042052  0.893457908130
    AG  CG321     1  0.300901042052  0.893457908130
    AG  CG324     1  0.300901042052  0.893457908130
    AG  CG331     1  0.300901042052  0.893457908130
    AG  CG334     1  0.300901042052  0.893457908130
    AG CG3C31     1  0.300901042052  0.893457908130
    AG CG3C41     1  0.300901042052  0.893457908130
    AG CG3C50     1  0.300901042052  0.893457908130
    AG CG3C51     1  0.300901042052  0.893457908130
    AG CG3C52     1  0.300901042052  0.893457908130
    AG CG3C53     1  0.300901042052  0.893457908130
    AG CG3C54     1  0.300901042052  0.893457908130
    AG CG3RC1     1  0.300901042052  0.893457908130
    AG  CLG11     1  0.300901042052  0.893457908130
    AG  CLG12     1  0.300901042052  0.893457908130
    AG  CLG13     1  0.300901042052  0.893457908130
    AG  CLG14     1  0.300901042052  0.893457908130
    AG  CLG15     1  0.300901042052  0.893457908130
    AG  CLG16     1  0.300901042052  0.893457908130
    AG    CN6     1  0.300901042052  0.893457908130
    AG    CN7     1  0.300901042052  0.893457908130
    AG   CN7B     1  0.300901042052  0.893457908130
    AG   CN7E     1  0.300901042052  0.893457908130
    AG    CN8     1  0.300901042052  0.893457908130
    AG   CN8B     1  0.300901042052  0.893457908130
    AG    CN9     1  0.300901042052  0.893457908130
    AG    CP1     1  0.300901042052  0.893457908130
    AG    CP2     1  0.300901042052  0.893457908130
    AG    CP3     1  0.300901042052  0.893457908130
    AG   CPD1     1  0.300901042052  0.893457908130
    AG   CR33     1  0.300901042052  0.893457908130
    AG   CRL1     1  0.300901042052  0.893457908130
    AG   CRL2     1  0.300901042052  0.893457908130
    AG     CT     1  0.300901042052  0.893457908130
    AG    CT1     1  0.300901042052  0.893457908130
    AG   CT1X     1  0.300901042052  0.893457908130
    AG    CT2     1  0.300901042052  0.893457908130
    AG   CT2A     1  0.300901042052  0.893457908130
    AG   CT2P     1  0.300901042052  0.893457908130
    AG   CT2X     1  0.300901042052  0.893457908130
    AG    CT3     1  0.300901042052  0.893457908130
    AG   CT3X     1  0.300901042052  0.893457908130
    AG   CTD1     1  0.300901042052  0.893457908130
    AG   CTL1     1  0.300901042052  0.893457908130
    AG   CTL2     1  0.300901042052  0.893457908130
    AG   CTL3     1  0.300901042052  0.893457908130
    AG   CTL5     1  0.300901042052  0.893457908130
    AG   CTO1     1  0.300901042052  0.893457908130
    AG   CTO2     1  0.300901042052  0.893457908130
    AG     HP     1  0.252632149503  1.547514491305
    AG      N     1  0.296446548461  0.089345790813
    AG  NC2D1     1  0.269719586917  3.995665235227
    AG  NG2S0     1  0.296446548461  0.089345790813
    AG  NG2S1     1  0.269719586917  3.995665235227
    AG    NH1     1  0.269719586917  3.995665235227
    AG    NHL     1  0.269719586917  3.995665235227
    AG      O     1  0.256356106145  3.095028982611
    AG     OB     1  0.256356106145  3.095028982611
    AG    OBL     1  0.256356106145  3.095028982611
    AG  OC2D1     1  0.256356106145  3.095028982611
    AG  OC2D3     1  0.256356106145  3.095028982611
    AG  OC2D4     1  0.256356106145  3.095028982611
    AG    OCA     1  0.256356106145  3.095028982611
    AG  OG2D1     1  0.256356106145  3.095028982611
    AG  OG2D3     1  0.256356106145  3.095028982611
    AG   OLG1     1  0.256356106145  3.095028982611
  AG1P  CC301     1  0.277452587790  0.224146841869
  AG1P CC3051     1  0.277452587790  0.224146841869
  AG1P CC3062     1  0.277452587790  0.224146841869
  AG1P  CC30A     1  0.277452587790  0.224146841869
  AG1P  CC311     1  0.277452587790  0.224146841869
  AG1P CC311C     1  0.277452587790  0.224146841869
  AG1P CC311D     1  0.277452587790  0.224146841869
  AG1P  CC312     1  0.277452587790  0.224146841869
  AG1P CC312C     1  0.277452587790  0.224146841869
  AG1P CC312D     1  0.277452587790  0.224146841869
  AG1P CC3151     1  0.277452587790  0.224146841869
  AG1P CC3152     1  0.277452587790  0.224146841869
  AG1P CC3153     1  0.277452587790  0.224146841869
  AG1P CC3161     1  0.277452587790  0.224146841869
  AG1P CC3162     1  0.277452587790  0.224146841869
  AG1P CC3163     1  0.277452587790  0.224146841869
  AG1P  CC31A     1  0.277452587790  0.224146841869
  AG1P  CC321     1  0.277452587790  0.224146841869
  AG1P CC321C     1  0.277452587790  0.224146841869
  AG1P CC321D     1  0.277452587790  0.224146841869
  AG1P  CC322     1  0.277452587790  0.224146841869
  AG1P CC322C     1  0.277452587790  0.224146841869
  AG1P CC3251     1  0.277452587790  0.224146841869
  AG1P CC325A     1  0.277452587790  0.224146841869
  AG1P CC325B     1  0.277452587790  0.224146841869
  AG1P CC3261     1  0.277452587790  0.224146841869
  AG1P CC3263     1  0.277452587790  0.224146841869
  AG1P CC326A     1  0.277452587790  0.224146841869
  AG1P  CC32A     1  0.277452587790  0.224146841869
  AG1P  CC331     1  0.277452587790  0.224146841869
  AG1P  CC33A     1  0.277452587790  0.224146841869
  AG1P  CG301     1  0.277452587790  0.224146841869
  AG1P  CG311     1  0.277452587790  0.224146841869
  AG1P  CG314     1  0.277452587790  0.224146841869
  AG1P  CG321     1  0.277452587790  0.224146841869
  AG1P  CG324     1  0.277452587790  0.224146841869
  AG1P  CG331     1  0.277452587790  0.224146841869
  AG1P  CG334     1  0.277452587790  0.224146841869
  AG1P CG3C31     1  0.277452587790  0.224146841869
  AG1P CG3C41     1  0.277452587790  0.224146841869
  AG1P CG3C50     1  0.277452587790  0.224146841869
  AG1P CG3C51     1  0.277452587790  0.224146841869
  AG1P CG3C52     1  0.277452587790  0.224146841869
  AG1P CG3C53     1  0.277452587790  0.224146841869
  AG1P CG3C54     1  0.277452587790  0.224146841869
  AG1P CG3RC1     1  0.277452587790  0.224146841869
  AG1P  CLG11     1  0.277452587790  0.224146841869
  AG1P  CLG12     1  0.277452587790  0.224146841869
  AG1P  CLG13     1  0.277452587790  0.224146841869
  AG1P  CLG14     1  0.277452587790  0.224146841869
  AG1P  CLG15     1  0.277452587790  0.224146841869
  AG1P  CLG16     1  0.277452587790  0.224146841869
  AG1P    CN6     1  0.277452587790  0.224146841869
  AG1P    CN7     1  0.277452587790  0.224146841869
  AG1P   CN7B     1  0.277452587790  0.224146841869
  AG1P   CN7E     1  0.277452587790  0.224146841869
  AG1P    CN8     1  0.277452587790  0.224146841869
  AG1P   CN8B     1  0.277452587790  0.224146841869
  AG1P    CN9     1  0.277452587790  0.224146841869
  AG1P    CP1     1  0.277452587790  0.224146841869
  AG1P    CP2     1  0.277452587790  0.224146841869
  AG1P    CP3     1  0.277452587790  0.224146841869
  AG1P   CPD1     1  0.277452587790  0.224146841869
  AG1P   CR33     1  0.277452587790  0.224146841869
  AG1P   CRL1     1  0.277452587790  0.224146841869
  AG1P   CRL2     1  0.277452587790  0.224146841869
  AG1P     CT     1  0.277452587790  0.224146841869
  AG1P    CT1     1  0.277452587790  0.224146841869
  AG1P   CT1X     1  0.277452587790  0.224146841869
  AG1P    CT2     1  0.277452587790  0.224146841869
  AG1P   CT2A     1  0.277452587790  0.224146841869
  AG1P   CT2P     1  0.277452587790  0.224146841869
  AG1P   CT2X     1  0.277452587790  0.224146841869
  AG1P    CT3     1  0.277452587790  0.224146841869
  AG1P   CT3X     1  0.277452587790  0.224146841869
  AG1P   CTD1     1  0.277452587790  0.224146841869
  AG1P   CTL1     1  0.277452587790  0.224146841869
  AG1P   CTL2     1  0.277452587790  0.224146841869
  AG1P   CTL3     1  0.277452587790  0.224146841869
  AG1P   CTL5     1  0.277452587790  0.224146841869
  AG1P   CTO1     1  0.277452587790  0.224146841869
  AG1P   CTO2     1  0.277452587790  0.224146841869
  AG1P     HP     1  0.229183695242  0.388233718474
  AG1P      N     1  0.272998094200  0.022414684187
  AG1P  NC2D1     1  0.246271132656  1.002415150723
  AG1P  NG2S0     1  0.272998094200  0.022414684187
  AG1P  NG2S1     1  0.246271132656  1.002415150723
  AG1P    NH1     1  0.246271132656  1.002415150723
  AG1P    NHL     1  0.246271132656  1.002415150723
  AG1P      O     1  0.232907651883  0.776467436948
  AG1P     OB     1  0.232907651883  0.776467436948
  AG1P    OBL     1  0.232907651883  0.776467436948
  AG1P  OC2D1     1  0.232907651883  0.776467436948
  AG1P  OC2D3     1  0.232907651883  0.776467436948
  AG1P  OC2D4     1  0.232907651883  0.776467436948
  AG1P    OCA     1  0.232907651883  0.776467436948
  AG1P  OG2D1     1  0.232907651883  0.776467436948
  AG1P  OG2D3     1  0.232907651883  0.776467436948
  AG1P   OLG1     1  0.232907651883  0.776467436948
  AG2P  CC301     1  0.262726031980  0.180106499516
  AG2P CC3051     1  0.262726031980  0.180106499516
  AG2P CC3062     1  0.262726031980  0.180106499516
  AG2P  CC30A     1  0.262726031980  0.180106499516
  AG2P  CC311     1  0.262726031980  0.180106499516
  AG2P CC311C     1  0.262726031980  0.180106499516
  AG2P CC311D     1  0.262726031980  0.180106499516
  AG2P  CC312     1  0.262726031980  0.180106499516
  AG2P CC312C     1  0.262726031980  0.180106499516
  AG2P CC312D     1  0.262726031980  0.180106499516
  AG2P CC3151     1  0.262726031980  0.180106499516
  AG2P CC3152     1  0.262726031980  0.180106499516
  AG2P CC3153     1  0.262726031980  0.180106499516
  AG2P CC3161     1  0.262726031980  0.180106499516
  AG2P CC3162     1  0.262726031980  0.180106499516
  AG2P CC3163     1  0.262726031980  0.180106499516
  AG2P  CC31A     1  0.262726031980  0.180106499516
  AG2P  CC321     1  0.262726031980  0.180106499516
  AG2P CC321C     1  0.262726031980  0.180106499516
  AG2P CC321D     1  0.262726031980  0.180106499516
  AG2P  CC322     1  0.262726031980  0.180106499516
  AG2P CC322C     1  0.262726031980  0.180106499516
  AG2P CC3251     1  0.262726031980  0.180106499516
  AG2P CC325A     1  0.262726031980  0.180106499516
  AG2P CC325B     1  0.262726031980  0.180106499516
  AG2P CC3261     1  0.262726031980  0.180106499516
  AG2P CC3263     1  0.262726031980  0.180106499516
  AG2P CC326A     1  0.262726031980  0.180106499516
  AG2P  CC32A     1  0.262726031980  0.180106499516
  AG2P  CC331     1  0.262726031980  0.180106499516
  AG2P  CC33A     1  0.262726031980  0.180106499516
  AG2P  CG301     1  0.262726031980  0.180106499516
  AG2P  CG311     1  0.262726031980  0.180106499516
  AG2P  CG314     1  0.262726031980  0.180106499516
  AG2P  CG321     1  0.262726031980  0.180106499516
  AG2P  CG324     1  0.262726031980  0.180106499516
  AG2P  CG331     1  0.262726031980  0.180106499516
  AG2P  CG334     1  0.262726031980  0.180106499516
  AG2P CG3C31     1  0.262726031980  0.180106499516
  AG2P CG3C41     1  0.262726031980  0.180106499516
  AG2P CG3C50     1  0.262726031980  0.180106499516
  AG2P CG3C51     1  0.262726031980  0.180106499516
  AG2P CG3C52     1  0.262726031980  0.180106499516
  AG2P CG3C53     1  0.262726031980  0.180106499516
  AG2P CG3C54     1  0.262726031980  0.180106499516
  AG2P CG3RC1     1  0.262726031980  0.180106499516
  AG2P  CLG11     1  0.262726031980  0.180106499516
  AG2P  CLG12     1  0.262726031980  0.180106499516
  AG2P  CLG13     1  0.262726031980  0.180106499516
  AG2P  CLG14     1  0.262726031980  0.180106499516
  AG2P  CLG15     1  0.262726031980  0.180106499516
  AG2P  CLG16     1  0.262726031980  0.180106499516
  AG2P    CN6     1  0.262726031980  0.180106499516
  AG2P    CN7     1  0.262726031980  0.180106499516
  AG2P   CN7B     1  0.262726031980  0.180106499516
  AG2P   CN7E     1  0.262726031980  0.180106499516
  AG2P    CN8     1  0.262726031980  0.180106499516
  AG2P   CN8B     1  0.262726031980  0.180106499516
  AG2P    CN9     1  0.262726031980  0.180106499516
  AG2P    CP1     1  0.262726031980  0.180106499516
  AG2P    CP2     1  0.262726031980  0.180106499516
  AG2P    CP3     1  0.262726031980  0.180106499516
  AG2P   CPD1     1  0.262726031980  0.180106499516
  AG2P   CR33     1  0.262726031980  0.180106499516
  AG2P   CRL1     1  0.262726031980  0.180106499516
  AG2P   CRL2     1  0.262726031980  0.180106499516
  AG2P     CT     1  0.262726031980  0.180106499516
  AG2P    CT1     1  0.262726031980  0.180106499516
  AG2P   CT1X     1  0.262726031980  0.180106499516
  AG2P    CT2     1  0.262726031980  0.180106499516
  AG2P   CT2A     1  0.262726031980  0.180106499516
  AG2P   CT2P     1  0.262726031980  0.180106499516
  AG2P   CT2X     1  0.262726031980  0.180106499516
  AG2P    CT3     1  0.262726031980  0.180106499516
  AG2P   CT3X     1  0.262726031980  0.180106499516
  AG2P   CTD1     1  0.262726031980  0.180106499516
  AG2P   CTL1     1  0.262726031980  0.180106499516
  AG2P   CTL2     1  0.262726031980  0.180106499516
  AG2P   CTL3     1  0.262726031980  0.180106499516
  AG2P   CTL5     1  0.262726031980  0.180106499516
  AG2P   CTO1     1  0.262726031980  0.180106499516
  AG2P   CTO2     1  0.262726031980  0.180106499516
  AG2P     HP     1  0.214457139431  0.311953607936
  AG2P      N     1  0.258271538389  0.018010649952
  AG2P  NC2D1     1  0.231544576845  0.805460752216
  AG2P  NG2S0     1  0.258271538389  0.018010649952
  AG2P  NG2S1     1  0.231544576845  0.805460752216
  AG2P    NH1     1  0.231544576845  0.805460752216
  AG2P    NHL     1  0.231544576845  0.805460752216
  AG2P      O     1  0.218181096073  0.623907215871
  AG2P     OB     1  0.218181096073  0.623907215871
  AG2P    OBL     1  0.218181096073  0.623907215871
  AG2P  OC2D1     1  0.218181096073  0.623907215871
  AG2P  OC2D3     1  0.218181096073  0.623907215871
  AG2P  OC2D4     1  0.218181096073  0.623907215871
  AG2P    OCA     1  0.218181096073  0.623907215871
  AG2P  OG2D1     1  0.218181096073  0.623907215871
  AG2P  OG2D3     1  0.218181096073  0.623907215871
  AG2P   OLG1     1  0.218181096073  0.623907215871
    AL  CC301     1  0.299564693975  0.838889391517
    AL CC3051     1  0.299564693975  0.838889391517
    AL CC3062     1  0.299564693975  0.838889391517
    AL  CC30A     1  0.299564693975  0.838889391517
    AL  CC311     1  0.299564693975  0.838889391517
    AL CC311C     1  0.299564693975  0.838889391517
    AL CC311D     1  0.299564693975  0.838889391517
    AL  CC312     1  0.299564693975  0.838889391517
    AL CC312C     1  0.299564693975  0.838889391517
    AL CC312D     1  0.299564693975  0.838889391517
    AL CC3151     1  0.299564693975  0.838889391517
    AL CC3152     1  0.299564693975  0.838889391517
    AL CC3153     1  0.299564693975  0.838889391517
    AL CC3161     1  0.299564693975  0.838889391517
    AL CC3162     1  0.299564693975  0.838889391517
    AL CC3163     1  0.299564693975  0.838889391517
    AL  CC31A     1  0.299564693975  0.838889391517
    AL  CC321     1  0.299564693975  0.838889391517
    AL CC321C     1  0.299564693975  0.838889391517
    AL CC321D     1  0.299564693975  0.838889391517
    AL  CC322     1  0.299564693975  0.838889391517
    AL CC322C     1  0.299564693975  0.838889391517
    AL CC3251     1  0.299564693975  0.838889391517
    AL CC325A     1  0.299564693975  0.838889391517
    AL CC325B     1  0.299564693975  0.838889391517
    AL CC3261     1  0.299564693975  0.838889391517
    AL CC3263     1  0.299564693975  0.838889391517
    AL CC326A     1  0.299564693975  0.838889391517
    AL  CC32A     1  0.299564693975  0.838889391517
    AL  CC331     1  0.299564693975  0.838889391517
    AL  CC33A     1  0.299564693975  0.838889391517
    AL  CG301     1  0.299564693975  0.838889391517
    AL  CG311     1  0.299564693975  0.838889391517
    AL  CG314     1  0.299564693975  0.838889391517
    AL  CG321     1  0.299564693975  0.838889391517
    AL  CG324     1  0.299564693975  0.838889391517
    AL  CG331     1  0.299564693975  0.838889391517
    AL  CG334     1  0.299564693975  0.838889391517
    AL CG3C31     1  0.299564693975  0.838889391517
    AL CG3C41     1  0.299564693975  0.838889391517
    AL CG3C50     1  0.299564693975  0.838889391517
    AL CG3C51     1  0.299564693975  0.838889391517
    AL CG3C52     1  0.299564693975  0.838889391517
    AL CG3C53     1  0.299564693975  0.838889391517
    AL CG3C54     1  0.299564693975  0.838889391517
    AL CG3RC1     1  0.299564693975  0.838889391517
    AL  CLG11     1  0.299564693975  0.838889391517
    AL  CLG12     1  0.299564693975  0.838889391517
    AL  CLG13     1  0.299564693975  0.838889391517
    AL  CLG14     1  0.299564693975  0.838889391517
    AL  CLG15     1  0.299564693975  0.838889391517
    AL  CLG16     1  0.299564693975  0.838889391517
    AL    CN6     1  0.299564693975  0.838889391517
    AL    CN7     1  0.299564693975  0.838889391517
    AL   CN7B     1  0.299564693975  0.838889391517
    AL   CN7E     1  0.299564693975  0.838889391517
    AL    CN8     1  0.299564693975  0.838889391517
    AL   CN8B     1  0.299564693975  0.838889391517
    AL    CN9     1  0.299564693975  0.838889391517
    AL    CP1     1  0.299564693975  0.838889391517
    AL    CP2     1  0.299564693975  0.838889391517
    AL    CP3     1  0.299564693975  0.838889391517
    AL   CPD1     1  0.299564693975  0.838889391517
    AL   CR33     1  0.299564693975  0.838889391517
    AL   CRL1     1  0.299564693975  0.838889391517
    AL   CRL2     1  0.299564693975  0.838889391517
    AL     CT     1  0.299564693975  0.838889391517
    AL    CT1     1  0.299564693975  0.838889391517
    AL   CT1X     1  0.299564693975  0.838889391517
    AL    CT2     1  0.299564693975  0.838889391517
    AL   CT2A     1  0.299564693975  0.838889391517
    AL   CT2P     1  0.299564693975  0.838889391517
    AL   CT2X     1  0.299564693975  0.838889391517
    AL    CT3     1  0.299564693975  0.838889391517
    AL   CT3X     1  0.299564693975  0.838889391517
    AL   CTD1     1  0.299564693975  0.838889391517
    AL   CTL1     1  0.299564693975  0.838889391517
    AL   CTL2     1  0.299564693975  0.838889391517
    AL   CTL3     1  0.299564693975  0.838889391517
    AL   CTL5     1  0.299564693975  0.838889391517
    AL   CTO1     1  0.299564693975  0.838889391517
    AL   CTO2     1  0.299564693975  0.838889391517
    AL     HP     1  0.251295801426  1.452999048038
    AL      N     1  0.295110200384  0.083888939152
    AL  NC2D1     1  0.268383238840  3.751627410072
    AL  NG2S0     1  0.295110200384  0.083888939152
    AL  NG2S1     1  0.268383238840  3.751627410072
    AL    NH1     1  0.268383238840  3.751627410072
    AL    NHL     1  0.268383238840  3.751627410072
    AL      O     1  0.255019758068  2.905998096076
    AL     OB     1  0.255019758068  2.905998096076
    AL    OBL     1  0.255019758068  2.905998096076
    AL  OC2D1     1  0.255019758068  2.905998096076
    AL  OC2D3     1  0.255019758068  2.905998096076
    AL  OC2D4     1  0.255019758068  2.905998096076
    AL    OCA     1  0.255019758068  2.905998096076
    AL  OG2D1     1  0.255019758068  2.905998096076
    AL  OG2D3     1  0.255019758068  2.905998096076
    AL   OLG1     1  0.255019758068  2.905998096076
  AL3P  CC301     1  0.188959618118  0.136606158338
  AL3P CC3051     1  0.188959618118  0.136606158338
  AL3P CC3062     1  0.188959618118  0.136606158338
  AL3P  CC30A     1  0.188959618118  0.136606158338
  AL3P  CC311     1  0.188959618118  0.136606158338
  AL3P CC311C     1  0.188959618118  0.136606158338
  AL3P CC311D     1  0.188959618118  0.136606158338
  AL3P  CC312     1  0.188959618118  0.136606158338
  AL3P CC312C     1  0.188959618118  0.136606158338
  AL3P CC312D     1  0.188959618118  0.136606158338
  AL3P CC3151     1  0.188959618118  0.136606158338
  AL3P CC3152     1  0.188959618118  0.136606158338
  AL3P CC3153     1  0.188959618118  0.136606158338
  AL3P CC3161     1  0.188959618118  0.136606158338
  AL3P CC3162     1  0.188959618118  0.136606158338
  AL3P CC3163     1  0.188959618118  0.136606158338
  AL3P  CC31A     1  0.188959618118  0.136606158338
  AL3P  CC321     1  0.188959618118  0.136606158338
  AL3P CC321C     1  0.188959618118  0.136606158338
  AL3P CC321D     1  0.188959618118  0.136606158338
  AL3P  CC322     1  0.188959618118  0.136606158338
  AL3P CC322C     1  0.188959618118  0.136606158338
  AL3P CC3251     1  0.188959618118  0.136606158338
  AL3P CC325A     1  0.188959618118  0.136606158338
  AL3P CC325B     1  0.188959618118  0.136606158338
  AL3P CC3261     1  0.188959618118  0.136606158338
  AL3P CC3263     1  0.188959618118  0.136606158338
  AL3P CC326A     1  0.188959618118  0.136606158338
  AL3P  CC32A     1  0.188959618118  0.136606158338
  AL3P  CC331     1  0.188959618118  0.136606158338
  AL3P  CC33A     1  0.188959618118  0.136606158338
  AL3P  CG301     1  0.188959618118  0.136606158338
  AL3P  CG311     1  0.188959618118  0.136606158338
  AL3P  CG314     1  0.188959618118  0.136606158338
  AL3P  CG321     1  0.188959618118  0.136606158338
  AL3P  CG324     1  0.188959618118  0.136606158338
  AL3P  CG331     1  0.188959618118  0.136606158338
  AL3P  CG334     1  0.188959618118  0.136606158338
  AL3P CG3C31     1  0.188959618118  0.136606158338
  AL3P CG3C41     1  0.188959618118  0.136606158338
  AL3P CG3C50     1  0.188959618118  0.136606158338
  AL3P CG3C51     1  0.188959618118  0.136606158338
  AL3P CG3C52     1  0.188959618118  0.136606158338
  AL3P CG3C53     1  0.188959618118  0.136606158338
  AL3P CG3C54     1  0.188959618118  0.136606158338
  AL3P CG3RC1     1  0.188959618118  0.136606158338
  AL3P  CLG11     1  0.188959618118  0.136606158338
  AL3P  CLG12     1  0.188959618118  0.136606158338
  AL3P  CLG13     1  0.188959618118  0.136606158338
  AL3P  CLG14     1  0.188959618118  0.136606158338
  AL3P  CLG15     1  0.188959618118  0.136606158338
  AL3P  CLG16     1  0.188959618118  0.136606158338
  AL3P    CN6     1  0.188959618118  0.136606158338
  AL3P    CN7     1  0.188959618118  0.136606158338
  AL3P   CN7B     1  0.188959618118  0.136606158338
  AL3P   CN7E     1  0.188959618118  0.136606158338
  AL3P    CN8     1  0.188959618118  0.136606158338
  AL3P   CN8B     1  0.188959618118  0.136606158338
  AL3P    CN9     1  0.188959618118  0.136606158338
  AL3P    CP1     1  0.188959618118  0.136606158338
  AL3P    CP2     1  0.188959618118  0.136606158338
  AL3P    CP3     1  0.188959618118  0.136606158338
  AL3P   CPD1     1  0.188959618118  0.136606158338
  AL3P   CR33     1  0.188959618118  0.136606158338
  AL3P   CRL1     1  0.188959618118  0.136606158338
  AL3P   CRL2     1  0.188959618118  0.136606158338
  AL3P     CT     1  0.188959618118  0.136606158338
  AL3P    CT1     1  0.188959618118  0.136606158338
  AL3P   CT1X     1  0.188959618118  0.136606158338
  AL3P    CT2     1  0.188959618118  0.136606158338
  AL3P   CT2A     1  0.188959618118  0.136606158338
  AL3P   CT2P     1  0.188959618118  0.136606158338
  AL3P   CT2X     1  0.188959618118  0.136606158338
  AL3P    CT3     1  0.188959618118  0.136606158338
  AL3P   CT3X     1  0.188959618118  0.136606158338
  AL3P   CTD1     1  0.188959618118  0.136606158338
  AL3P   CTL1     1  0.188959618118  0.136606158338
  AL3P   CTL2     1  0.188959618118  0.136606158338
  AL3P   CTL3     1  0.188959618118  0.136606158338
  AL3P   CTL5     1  0.188959618118  0.136606158338
  AL3P   CTO1     1  0.188959618118  0.136606158338
  AL3P   CTO2     1  0.188959618118  0.136606158338
  AL3P     HP     1  0.140690725569  0.236608806869
  AL3P      N     1  0.184505124527  0.013660615834
  AL3P  NC2D1     1  0.157778162983  0.610921312380
  AL3P  NG2S0     1  0.184505124527  0.013660615834
  AL3P  NG2S1     1  0.157778162983  0.610921312380
  AL3P    NH1     1  0.157778162983  0.610921312380
  AL3P    NHL     1  0.157778162983  0.610921312380
  AL3P      O     1  0.144414682211  0.473217613738
  AL3P     OB     1  0.144414682211  0.473217613738
  AL3P    OBL     1  0.144414682211  0.473217613738
  AL3P  OC2D1     1  0.144414682211  0.473217613738
  AL3P  OC2D3     1  0.144414682211  0.473217613738
  AL3P  OC2D4     1  0.144414682211  0.473217613738
  AL3P    OCA     1  0.144414682211  0.473217613738
  AL3P  OG2D1     1  0.144414682211  0.473217613738
  AL3P  OG2D3     1  0.144414682211  0.473217613738
  AL3P   OLG1     1  0.144414682211  0.473217613738
  ALG1  CC301     1  0.347450500075  0.337324864189
  ALG1 CC3051     1  0.347450500075  0.337324864189
  ALG1 CC3062     1  0.347450500075  0.337324864189
  ALG1  CC30A     1  0.347450500075  0.337324864189
  ALG1  CC311     1  0.347450500075  0.337324864189
  ALG1 CC311C     1  0.347450500075  0.337324864189
  ALG1 CC311D     1  0.347450500075  0.337324864189
  ALG1  CC312     1  0.347450500075  0.337324864189
  ALG1 CC312C     1  0.347450500075  0.337324864189
  ALG1 CC312D     1  0.347450500075  0.337324864189
  ALG1 CC3151     1  0.347450500075  0.337324864189
  ALG1 CC3152     1  0.347450500075  0.337324864189
  ALG1 CC3153     1  0.347450500075  0.337324864189
  ALG1 CC3161     1  0.347450500075  0.337324864189
  ALG1 CC3162     1  0.347450500075  0.337324864189
  ALG1 CC3163     1  0.347450500075  0.337324864189
  ALG1  CC31A     1  0.347450500075  0.337324864189
  ALG1  CC321     1  0.347450500075  0.337324864189
  ALG1 CC321C     1  0.347450500075  0.337324864189
  ALG1 CC321D     1  0.347450500075  0.337324864189
  ALG1  CC322     1  0.347450500075  0.337324864189
  ALG1 CC322C     1  0.347450500075  0.337324864189
  ALG1 CC3251     1  0.347450500075  0.337324864189
  ALG1 CC325A     1  0.347450500075  0.337324864189
  ALG1 CC325B     1  0.347450500075  0.337324864189
  ALG1 CC3261     1  0.347450500075  0.337324864189
  ALG1 CC3263     1  0.347450500075  0.337324864189
  ALG1 CC326A     1  0.347450500075  0.337324864189
  ALG1  CC32A     1  0.347450500075  0.337324864189
  ALG1  CC331     1  0.347450500075  0.337324864189
  ALG1  CC33A     1  0.347450500075  0.337324864189
  ALG1  CG301     1  0.347450500075  0.337324864189
  ALG1  CG311     1  0.347450500075  0.337324864189
  ALG1  CG314     1  0.347450500075  0.337324864189
  ALG1  CG321     1  0.347450500075  0.337324864189
  ALG1  CG324     1  0.347450500075  0.337324864189
  ALG1  CG331     1  0.347450500075  0.337324864189
  ALG1  CG334     1  0.347450500075  0.337324864189
  ALG1 CG3C31     1  0.347450500075  0.337324864189
  ALG1 CG3C41     1  0.347450500075  0.337324864189
  ALG1 CG3C50     1  0.347450500075  0.337324864189
  ALG1 CG3C51     1  0.347450500075  0.337324864189
  ALG1 CG3C52     1  0.347450500075  0.337324864189
  ALG1 CG3C53     1  0.347450500075  0.337324864189
  ALG1 CG3C54     1  0.347450500075  0.337324864189
  ALG1 CG3RC1     1  0.347450500075  0.337324864189
  ALG1  CLG11     1  0.347450500075  0.337324864189
  ALG1  CLG12     1  0.347450500075  0.337324864189
  ALG1  CLG13     1  0.347450500075  0.337324864189
  ALG1  CLG14     1  0.347450500075  0.337324864189
  ALG1  CLG15     1  0.347450500075  0.337324864189
  ALG1  CLG16     1  0.347450500075  0.337324864189
  ALG1    CN6     1  0.347450500075  0.337324864189
  ALG1    CN7     1  0.347450500075  0.337324864189
  ALG1   CN7B     1  0.347450500075  0.337324864189
  ALG1   CN7E     1  0.347450500075  0.337324864189
  ALG1    CN8     1  0.347450500075  0.337324864189
  ALG1   CN8B     1  0.347450500075  0.337324864189
  ALG1    CN9     1  0.347450500075  0.337324864189
  ALG1    CP1     1  0.347450500075  0.337324864189
  ALG1    CP2     1  0.347450500075  0.337324864189
  ALG1    CP3     1  0.347450500075  0.337324864189
  ALG1   CPD1     1  0.347450500075  0.337324864189
  ALG1   CR33     1  0.347450500075  0.337324864189
  ALG1   CRL1     1  0.347450500075  0.337324864189
  ALG1   CRL2     1  0.347450500075  0.337324864189
  ALG1     CT     1  0.347450500075  0.337324864189
  ALG1    CT1     1  0.347450500075  0.337324864189
  ALG1   CT1X     1  0.347450500075  0.337324864189
  ALG1    CT2     1  0.347450500075  0.337324864189
  ALG1   CT2A     1  0.347450500075  0.337324864189
  ALG1   CT2P     1  0.347450500075  0.337324864189
  ALG1   CT2X     1  0.347450500075  0.337324864189
  ALG1    CT3     1  0.347450500075  0.337324864189
  ALG1   CT3X     1  0.347450500075  0.337324864189
  ALG1   CTD1     1  0.347450500075  0.337324864189
  ALG1   CTL1     1  0.347450500075  0.337324864189
  ALG1   CTL2     1  0.347450500075  0.337324864189
  ALG1   CTL3     1  0.347450500075  0.337324864189
  ALG1   CTL5     1  0.347450500075  0.337324864189
  ALG1   CTO1     1  0.347450500075  0.337324864189
  ALG1   CTO2     1  0.347450500075  0.337324864189
  ALG1     HP     1  0.299181607526  0.584263803431
  ALG1      N     1  0.342996006484  0.033732486419
  ALG1  NC2D1     1  0.316269044940  1.508562653654
  ALG1  NG2S0     1  0.342996006484  0.033732486419
  ALG1  NG2S1     1  0.316269044940  1.508562653654
  ALG1    NH1     1  0.316269044940  1.508562653654
  ALG1    NHL     1  0.316269044940  1.508562653654
  ALG1      O     1  0.302905564168  1.168527606863
  ALG1     OB     1  0.302905564168  1.168527606863
  ALG1    OBL     1  0.302905564168  1.168527606863
  ALG1  OC2D1     1  0.302905564168  1.168527606863
  ALG1  OC2D3     1  0.302905564168  1.168527606863
  ALG1  OC2D4     1  0.302905564168  1.168527606863
  ALG1    OCA     1  0.302905564168  1.168527606863
  ALG1  OG2D1     1  0.302905564168  1.168527606863
  ALG1  OG2D3     1  0.302905564168  1.168527606863
  ALG1   OLG1     1  0.302905564168  1.168527606863
  ALSI  CC301     1  0.365268474438  0.337324864189
  ALSI CC3051     1  0.365268474438  0.337324864189
  ALSI CC3062     1  0.365268474438  0.337324864189
  ALSI  CC30A     1  0.365268474438  0.337324864189
  ALSI  CC311     1  0.365268474438  0.337324864189
  ALSI CC311C     1  0.365268474438  0.337324864189
  ALSI CC311D     1  0.365268474438  0.337324864189
  ALSI  CC312     1  0.365268474438  0.337324864189
  ALSI CC312C     1  0.365268474438  0.337324864189
  ALSI CC312D     1  0.365268474438  0.337324864189
  ALSI CC3151     1  0.365268474438  0.337324864189
  ALSI CC3152     1  0.365268474438  0.337324864189
  ALSI CC3153     1  0.365268474438  0.337324864189
  ALSI CC3161     1  0.365268474438  0.337324864189
  ALSI CC3162     1  0.365268474438  0.337324864189
  ALSI CC3163     1  0.365268474438  0.337324864189
  ALSI  CC31A     1  0.365268474438  0.337324864189
  ALSI  CC321     1  0.365268474438  0.337324864189
  ALSI CC321C     1  0.365268474438  0.337324864189
  ALSI CC321D     1  0.365268474438  0.337324864189
  ALSI  CC322     1  0.365268474438  0.337324864189
  ALSI CC322C     1  0.365268474438  0.337324864189
  ALSI CC3251     1  0.365268474438  0.337324864189
  ALSI CC325A     1  0.365268474438  0.337324864189
  ALSI CC325B     1  0.365268474438  0.337324864189
  ALSI CC3261     1  0.365268474438  0.337324864189
  ALSI CC3263     1  0.365268474438  0.337324864189
  ALSI CC326A     1  0.365268474438  0.337324864189
  ALSI  CC32A     1  0.365268474438  0.337324864189
  ALSI  CC331     1  0.365268474438  0.337324864189
  ALSI  CC33A     1  0.365268474438  0.337324864189
  ALSI  CG301     1  0.365268474438  0.337324864189
  ALSI  CG311     1  0.365268474438  0.337324864189
  ALSI  CG314     1  0.365268474438  0.337324864189
  ALSI  CG321     1  0.365268474438  0.337324864189
  ALSI  CG324     1  0.365268474438  0.337324864189
  ALSI  CG331     1  0.365268474438  0.337324864189
  ALSI  CG334     1  0.365268474438  0.337324864189
  ALSI CG3C31     1  0.365268474438  0.337324864189
  ALSI CG3C41     1  0.365268474438  0.337324864189
  ALSI CG3C50     1  0.365268474438  0.337324864189
  ALSI CG3C51     1  0.365268474438  0.337324864189
  ALSI CG3C52     1  0.365268474438  0.337324864189
  ALSI CG3C53     1  0.365268474438  0.337324864189
  ALSI CG3C54     1  0.365268474438  0.337324864189
  ALSI CG3RC1     1  0.365268474438  0.337324864189
  ALSI  CLG11     1  0.365268474438  0.337324864189
  ALSI  CLG12     1  0.365268474438  0.337324864189
  ALSI  CLG13     1  0.365268474438  0.337324864189
  ALSI  CLG14     1  0.365268474438  0.337324864189
  ALSI  CLG15     1  0.365268474438  0.337324864189
  ALSI  CLG16     1  0.365268474438  0.337324864189
  ALSI    CN6     1  0.365268474438  0.337324864189
  ALSI    CN7     1  0.365268474438  0.337324864189
  ALSI   CN7B     1  0.365268474438  0.337324864189
  ALSI   CN7E     1  0.365268474438  0.337324864189
  ALSI    CN8     1  0.365268474438  0.337324864189
  ALSI   CN8B     1  0.365268474438  0.337324864189
  ALSI    CN9     1  0.365268474438  0.337324864189
  ALSI    CP1     1  0.365268474438  0.337324864189
  ALSI    CP2     1  0.365268474438  0.337324864189
  ALSI    CP3     1  0.365268474438  0.337324864189
  ALSI   CPD1     1  0.365268474438  0.337324864189
  ALSI   CR33     1  0.365268474438  0.337324864189
  ALSI   CRL1     1  0.365268474438  0.337324864189
  ALSI   CRL2     1  0.365268474438  0.337324864189
  ALSI     CT     1  0.365268474438  0.337324864189
  ALSI    CT1     1  0.365268474438  0.337324864189
  ALSI   CT1X     1  0.365268474438  0.337324864189
  ALSI    CT2     1  0.365268474438  0.337324864189
  ALSI   CT2A     1  0.365268474438  0.337324864189
  ALSI   CT2P     1  0.365268474438  0.337324864189
  ALSI   CT2X     1  0.365268474438  0.337324864189
  ALSI    CT3     1  0.365268474438  0.337324864189
  ALSI   CT3X     1  0.365268474438  0.337324864189
  ALSI   CTD1     1  0.365268474438  0.337324864189
  ALSI   CTL1     1  0.365268474438  0.337324864189
  ALSI   CTL2     1  0.365268474438  0.337324864189
  ALSI   CTL3     1  0.365268474438  0.337324864189
  ALSI   CTL5     1  0.365268474438  0.337324864189
  ALSI   CTO1     1  0.365268474438  0.337324864189
  ALSI   CTO2     1  0.365268474438  0.337324864189
  ALSI     HP     1  0.316999581889  0.584263803431
  ALSI      N     1  0.360813980847  0.033732486419
  ALSI  NC2D1     1  0.334087019303  1.508562653654
  ALSI  NG2S0     1  0.360813980847  0.033732486419
  ALSI  NG2S1     1  0.334087019303  1.508562653654
  ALSI    NH1     1  0.334087019303  1.508562653654
  ALSI    NHL     1  0.334087019303  1.508562653654
  ALSI      O     1  0.320723538531  1.168527606863
  ALSI     OB     1  0.320723538531  1.168527606863
  ALSI    OBL     1  0.320723538531  1.168527606863
  ALSI  OC2D1     1  0.320723538531  1.168527606863
  ALSI  OC2D3     1  0.320723538531  1.168527606863
  ALSI  OC2D4     1  0.320723538531  1.168527606863
  ALSI    OCA     1  0.320723538531  1.168527606863
  ALSI  OG2D1     1  0.320723538531  1.168527606863
  ALSI  OG2D3     1  0.320723538531  1.168527606863
  ALSI   OLG1     1  0.320723538531  1.168527606863
    AU  CC301     1  0.300722862308  0.962320000000
    AU CC3051     1  0.300722862308  0.962320000000
    AU CC3062     1  0.300722862308  0.962320000000
    AU  CC30A     1  0.300722862308  0.962320000000
    AU  CC311     1  0.300722862308  0.962320000000
    AU CC311C     1  0.300722862308  0.962320000000
    AU CC311D     1  0.300722862308  0.962320000000
    AU  CC312     1  0.300722862308  0.962320000000
    AU CC312C     1  0.300722862308  0.962320000000
    AU CC312D     1  0.300722862308  0.962320000000
    AU CC3151     1  0.300722862308  0.962320000000
    AU CC3152     1  0.300722862308  0.962320000000
    AU CC3153     1  0.300722862308  0.962320000000
    AU CC3161     1  0.300722862308  0.962320000000
    AU CC3162     1  0.300722862308  0.962320000000
    AU CC3163     1  0.300722862308  0.962320000000
    AU  CC31A     1  0.300722862308  0.962320000000
    AU  CC321     1  0.300722862308  0.962320000000
    AU CC321C     1  0.300722862308  0.962320000000
    AU CC321D     1  0.300722862308  0.962320000000
    AU  CC322     1  0.300722862308  0.962320000000
    AU CC322C     1  0.300722862308  0.962320000000
    AU CC3251     1  0.300722862308  0.962320000000
    AU CC325A     1  0.300722862308  0.962320000000
    AU CC325B     1  0.300722862308  0.962320000000
    AU CC3261     1  0.300722862308  0.962320000000
    AU CC3263     1  0.300722862308  0.962320000000
    AU CC326A     1  0.300722862308  0.962320000000
    AU  CC32A     1  0.300722862308  0.962320000000
    AU  CC331     1  0.300722862308  0.962320000000
    AU  CC33A     1  0.300722862308  0.962320000000
    AU  CG301     1  0.300722862308  0.962320000000
    AU  CG311     1  0.300722862308  0.962320000000
    AU  CG314     1  0.300722862308  0.962320000000
    AU  CG321     1  0.300722862308  0.962320000000
    AU  CG324     1  0.300722862308  0.962320000000
    AU  CG331     1  0.300722862308  0.962320000000
    AU  CG334     1  0.300722862308  0.962320000000
    AU CG3C31     1  0.300722862308  0.962320000000
    AU CG3C41     1  0.300722862308  0.962320000000
    AU CG3C50     1  0.300722862308  0.962320000000
    AU CG3C51     1  0.300722862308  0.962320000000
    AU CG3C52     1  0.300722862308  0.962320000000
    AU CG3C53     1  0.300722862308  0.962320000000
    AU CG3C54     1  0.300722862308  0.962320000000
    AU CG3RC1     1  0.300722862308  0.962320000000
    AU  CLG11     1  0.300722862308  0.962320000000
    AU  CLG12     1  0.300722862308  0.962320000000
    AU  CLG13     1  0.300722862308  0.962320000000
    AU  CLG14     1  0.300722862308  0.962320000000
    AU  CLG15     1  0.300722862308  0.962320000000
    AU  CLG16     1  0.300722862308  0.962320000000
    AU    CN6     1  0.300722862308  0.962320000000
    AU    CN7     1  0.300722862308  0.962320000000
    AU   CN7B     1  0.300722862308  0.962320000000
    AU   CN7E     1  0.300722862308  0.962320000000
    AU    CN8     1  0.300722862308  0.962320000000
    AU   CN8B     1  0.300722862308  0.962320000000
    AU    CN9     1  0.300722862308  0.962320000000
    AU    CP1     1  0.300722862308  0.962320000000
    AU    CP2     1  0.300722862308  0.962320000000
    AU    CP3     1  0.300722862308  0.962320000000
    AU   CPD1     1  0.300722862308  0.962320000000
    AU   CR33     1  0.300722862308  0.962320000000
    AU   CRL1     1  0.300722862308  0.962320000000
    AU   CRL2     1  0.300722862308  0.962320000000
    AU     CT     1  0.300722862308  0.962320000000
    AU    CT1     1  0.300722862308  0.962320000000
    AU   CT1X     1  0.300722862308  0.962320000000
    AU    CT2     1  0.300722862308  0.962320000000
    AU   CT2A     1  0.300722862308  0.962320000000
    AU   CT2P     1  0.300722862308  0.962320000000
    AU   CT2X     1  0.300722862308  0.962320000000
    AU    CT3     1  0.300722862308  0.962320000000
    AU   CT3X     1  0.300722862308  0.962320000000
    AU   CTD1     1  0.300722862308  0.962320000000
    AU   CTL1     1  0.300722862308  0.962320000000
    AU   CTL2     1  0.300722862308  0.962320000000
    AU   CTL3     1  0.300722862308  0.962320000000
    AU   CTL5     1  0.300722862308  0.962320000000
    AU   CTO1     1  0.300722862308  0.962320000000
    AU   CTO2     1  0.300722862308  0.962320000000
    AU     HP     1  0.252453969759  1.666787133140
    AU      N     1  0.296268368718  0.096232000000
    AU  NC2D1     1  0.269541407173  4.303625872215
    AU  NG2S0     1  0.296268368718  0.096232000000
    AU  NG2S1     1  0.269541407173  4.303625872215
    AU    NH1     1  0.269541407173  4.303625872215
    AU    NHL     1  0.269541407173  4.303625872215
    AU      O     1  0.256177926401  3.333574266279
    AU     OB     1  0.256177926401  3.333574266279
    AU    OBL     1  0.256177926401  3.333574266279
    AU  OC2D1     1  0.256177926401  3.333574266279
    AU  OC2D3     1  0.256177926401  3.333574266279
    AU  OC2D4     1  0.256177926401  3.333574266279
    AU    OCA     1  0.256177926401  3.333574266279
    AU  OG2D1     1  0.256177926401  3.333574266279
    AU  OG2D3     1  0.256177926401  3.333574266279
    AU   OLG1     1  0.256177926401  3.333574266279
  AU1P  CC301     1  0.225522101510  0.249746601434
  AU1P CC3051     1  0.225522101510  0.249746601434
  AU1P CC3062     1  0.225522101510  0.249746601434
  AU1P  CC30A     1  0.225522101510  0.249746601434
  AU1P  CC311     1  0.225522101510  0.249746601434
  AU1P CC311C     1  0.225522101510  0.249746601434
  AU1P CC311D     1  0.225522101510  0.249746601434
  AU1P  CC312     1  0.225522101510  0.249746601434
  AU1P CC312C     1  0.225522101510  0.249746601434
  AU1P CC312D     1  0.225522101510  0.249746601434
  AU1P CC3151     1  0.225522101510  0.249746601434
  AU1P CC3152     1  0.225522101510  0.249746601434
  AU1P CC3153     1  0.225522101510  0.249746601434
  AU1P CC3161     1  0.225522101510  0.249746601434
  AU1P CC3162     1  0.225522101510  0.249746601434
  AU1P CC3163     1  0.225522101510  0.249746601434
  AU1P  CC31A     1  0.225522101510  0.249746601434
  AU1P  CC321     1  0.225522101510  0.249746601434
  AU1P CC321C     1  0.225522101510  0.249746601434
  AU1P CC321D     1  0.225522101510  0.249746601434
  AU1P  CC322     1  0.225522101510  0.249746601434
  AU1P CC322C     1  0.225522101510  0.249746601434
  AU1P CC3251     1  0.225522101510  0.249746601434
  AU1P CC325A     1  0.225522101510  0.249746601434
  AU1P CC325B     1  0.225522101510  0.249746601434
  AU1P CC3261     1  0.225522101510  0.249746601434
  AU1P CC3263     1  0.225522101510  0.249746601434
  AU1P CC326A     1  0.225522101510  0.249746601434
  AU1P  CC32A     1  0.225522101510  0.249746601434
  AU1P  CC331     1  0.225522101510  0.249746601434
  AU1P  CC33A     1  0.225522101510  0.249746601434
  AU1P  CG301     1  0.225522101510  0.249746601434
  AU1P  CG311     1  0.225522101510  0.249746601434
  AU1P  CG314     1  0.225522101510  0.249746601434
  AU1P  CG321     1  0.225522101510  0.249746601434
  AU1P  CG324     1  0.225522101510  0.249746601434
  AU1P  CG331     1  0.225522101510  0.249746601434
  AU1P  CG334     1  0.225522101510  0.249746601434
  AU1P CG3C31     1  0.225522101510  0.249746601434
  AU1P CG3C41     1  0.225522101510  0.249746601434
  AU1P CG3C50     1  0.225522101510  0.249746601434
  AU1P CG3C51     1  0.225522101510  0.249746601434
  AU1P CG3C52     1  0.225522101510  0.249746601434
  AU1P CG3C53     1  0.225522101510  0.249746601434
  AU1P CG3C54     1  0.225522101510  0.249746601434
  AU1P CG3RC1     1  0.225522101510  0.249746601434
  AU1P  CLG11     1  0.225522101510  0.249746601434
  AU1P  CLG12     1  0.225522101510  0.249746601434
  AU1P  CLG13     1  0.225522101510  0.249746601434
  AU1P  CLG14     1  0.225522101510  0.249746601434
  AU1P  CLG15     1  0.225522101510  0.249746601434
  AU1P  CLG16     1  0.225522101510  0.249746601434
  AU1P    CN6     1  0.225522101510  0.249746601434
  AU1P    CN7     1  0.225522101510  0.249746601434
  AU1P   CN7B     1  0.225522101510  0.249746601434
  AU1P   CN7E     1  0.225522101510  0.249746601434
  AU1P    CN8     1  0.225522101510  0.249746601434
  AU1P   CN8B     1  0.225522101510  0.249746601434
  AU1P    CN9     1  0.225522101510  0.249746601434
  AU1P    CP1     1  0.225522101510  0.249746601434
  AU1P    CP2     1  0.225522101510  0.249746601434
  AU1P    CP3     1  0.225522101510  0.249746601434
  AU1P   CPD1     1  0.225522101510  0.249746601434
  AU1P   CR33     1  0.225522101510  0.249746601434
  AU1P   CRL1     1  0.225522101510  0.249746601434
  AU1P   CRL2     1  0.225522101510  0.249746601434
  AU1P     CT     1  0.225522101510  0.249746601434
  AU1P    CT1     1  0.225522101510  0.249746601434
  AU1P   CT1X     1  0.225522101510  0.249746601434
  AU1P    CT2     1  0.225522101510  0.249746601434
  AU1P   CT2A     1  0.225522101510  0.249746601434
  AU1P   CT2P     1  0.225522101510  0.249746601434
  AU1P   CT2X     1  0.225522101510  0.249746601434
  AU1P    CT3     1  0.225522101510  0.249746601434
  AU1P   CT3X     1  0.225522101510  0.249746601434
  AU1P   CTD1     1  0.225522101510  0.249746601434
  AU1P   CTL1     1  0.225522101510  0.249746601434
  AU1P   CTL2     1  0.225522101510  0.249746601434
  AU1P   CTL3     1  0.225522101510  0.249746601434
  AU1P   CTL5     1  0.225522101510  0.249746601434
  AU1P   CTO1     1  0.225522101510  0.249746601434
  AU1P   CTO2     1  0.225522101510  0.249746601434
  AU1P     HP     1  0.177253208961  0.432573802702
  AU1P      N     1  0.221067607919  0.024974660143
  AU1P  NC2D1     1  0.194340646375  1.116900755913
  AU1P  NG2S0     1  0.221067607919  0.024974660143
  AU1P  NG2S1     1  0.194340646375  1.116900755913
  AU1P    NH1     1  0.194340646375  1.116900755913
  AU1P    NHL     1  0.194340646375  1.116900755913
  AU1P      O     1  0.180977165603  0.865147605404
  AU1P     OB     1  0.180977165603  0.865147605404
  AU1P    OBL     1  0.180977165603  0.865147605404
  AU1P  OC2D1     1  0.180977165603  0.865147605404
  AU1P  OC2D3     1  0.180977165603  0.865147605404
  AU1P  OC2D4     1  0.180977165603  0.865147605404
  AU1P    OCA     1  0.180977165603  0.865147605404
  AU1P  OG2D1     1  0.180977165603  0.865147605404
  AU1P  OG2D3     1  0.180977165603  0.865147605404
  AU1P   OLG1     1  0.180977165603  0.865147605404
  AU3P  CC301     1  0.201824195608  0.152586986601
  AU3P CC3051     1  0.201824195608  0.152586986601
  AU3P CC3062     1  0.201824195608  0.152586986601
  AU3P  CC30A     1  0.201824195608  0.152586986601
  AU3P  CC311     1  0.201824195608  0.152586986601
  AU3P CC311C     1  0.201824195608  0.152586986601
  AU3P CC311D     1  0.201824195608  0.152586986601
  AU3P  CC312     1  0.201824195608  0.152586986601
  AU3P CC312C     1  0.201824195608  0.152586986601
  AU3P CC312D     1  0.201824195608  0.152586986601
  AU3P CC3151     1  0.201824195608  0.152586986601
  AU3P CC3152     1  0.201824195608  0.152586986601
  AU3P CC3153     1  0.201824195608  0.152586986601
  AU3P CC3161     1  0.201824195608  0.152586986601
  AU3P CC3162     1  0.201824195608  0.152586986601
  AU3P CC3163     1  0.201824195608  0.152586986601
  AU3P  CC31A     1  0.201824195608  0.152586986601
  AU3P  CC321     1  0.201824195608  0.152586986601
  AU3P CC321C     1  0.201824195608  0.152586986601
  AU3P CC321D     1  0.201824195608  0.152586986601
  AU3P  CC322     1  0.201824195608  0.152586986601
  AU3P CC322C     1  0.201824195608  0.152586986601
  AU3P CC3251     1  0.201824195608  0.152586986601
  AU3P CC325A     1  0.201824195608  0.152586986601
  AU3P CC325B     1  0.201824195608  0.152586986601
  AU3P CC3261     1  0.201824195608  0.152586986601
  AU3P CC3263     1  0.201824195608  0.152586986601
  AU3P CC326A     1  0.201824195608  0.152586986601
  AU3P  CC32A     1  0.201824195608  0.152586986601
  AU3P  CC331     1  0.201824195608  0.152586986601
  AU3P  CC33A     1  0.201824195608  0.152586986601
  AU3P  CG301     1  0.201824195608  0.152586986601
  AU3P  CG311     1  0.201824195608  0.152586986601
  AU3P  CG314     1  0.201824195608  0.152586986601
  AU3P  CG321     1  0.201824195608  0.152586986601
  AU3P  CG324     1  0.201824195608  0.152586986601
  AU3P  CG331     1  0.201824195608  0.152586986601
  AU3P  CG334     1  0.201824195608  0.152586986601
  AU3P CG3C31     1  0.201824195608  0.152586986601
  AU3P CG3C41     1  0.201824195608  0.152586986601
  AU3P CG3C50     1  0.201824195608  0.152586986601
  AU3P CG3C51     1  0.201824195608  0.152586986601
  AU3P CG3C52     1  0.201824195608  0.152586986601
  AU3P CG3C53     1  0.201824195608  0.152586986601
  AU3P CG3C54     1  0.201824195608  0.152586986601
  AU3P CG3RC1     1  0.201824195608  0.152586986601
  AU3P  CLG11     1  0.201824195608  0.152586986601
  AU3P  CLG12     1  0.201824195608  0.152586986601
  AU3P  CLG13     1  0.201824195608  0.152586986601
  AU3P  CLG14     1  0.201824195608  0.152586986601
  AU3P  CLG15     1  0.201824195608  0.152586986601
  AU3P  CLG16     1  0.201824195608  0.152586986601
  AU3P    CN6     1  0.201824195608  0.152586986601
  AU3P    CN7     1  0.201824195608  0.152586986601
  AU3P   CN7B     1  0.201824195608  0.152586986601
  AU3P   CN7E     1  0.201824195608  0.152586986601
  AU3P    CN8     1  0.201824195608  0.152586986601
  AU3P   CN8B     1  0.201824195608  0.152586986601
  AU3P    CN9     1  0.201824195608  0.152586986601
  AU3P    CP1     1  0.201824195608  0.152586986601
  AU3P    CP2     1  0.201824195608  0.152586986601
  AU3P    CP3     1  0.201824195608  0.152586986601
  AU3P   CPD1     1  0.201824195608  0.152586986601
  AU3P   CR33     1  0.201824195608  0.152586986601
  AU3P   CRL1     1  0.201824195608  0.152586986601
  AU3P   CRL2     1  0.201824195608  0.152586986601
  AU3P     CT     1  0.201824195608  0.152586986601
  AU3P    CT1     1  0.201824195608  0.152586986601
  AU3P   CT1X     1  0.201824195608  0.152586986601
  AU3P    CT2     1  0.201824195608  0.152586986601
  AU3P   CT2A     1  0.201824195608  0.152586986601
  AU3P   CT2P     1  0.201824195608  0.152586986601
  AU3P   CT2X     1  0.201824195608  0.152586986601
  AU3P    CT3     1  0.201824195608  0.152586986601
  AU3P   CT3X     1  0.201824195608  0.152586986601
  AU3P   CTD1     1  0.201824195608  0.152586986601
  AU3P   CTL1     1  0.201824195608  0.152586986601
  AU3P   CTL2     1  0.201824195608  0.152586986601
  AU3P   CTL3     1  0.201824195608  0.152586986601
  AU3P   CTL5     1  0.201824195608  0.152586986601
  AU3P   CTO1     1  0.201824195608  0.152586986601
  AU3P   CTO2     1  0.201824195608  0.152586986601
  AU3P     HP     1  0.153555303059  0.264288413367
  AU3P      N     1  0.197369702017  0.015258698660
  AU3P  NC2D1     1  0.170642740473  0.682389749044
  AU3P  NG2S0     1  0.197369702017  0.015258698660
  AU3P  NG2S1     1  0.170642740473  0.682389749044
  AU3P    NH1     1  0.170642740473  0.682389749044
  AU3P    NHL     1  0.170642740473  0.682389749044
  AU3P      O     1  0.157279259700  0.528576826734
  AU3P     OB     1  0.157279259700  0.528576826734
  AU3P    OBL     1  0.157279259700  0.528576826734
  AU3P  OC2D1     1  0.157279259700  0.528576826734
  AU3P  OC2D3     1  0.157279259700  0.528576826734
  AU3P  OC2D4     1  0.157279259700  0.528576826734
  AU3P    OCA     1  0.157279259700  0.528576826734
  AU3P  OG2D1     1  0.157279259700  0.528576826734
  AU3P  OG2D3     1  0.157279259700  0.528576826734
  AU3P   OLG1     1  0.157279259700  0.528576826734
   BAR  CC301     1  0.337650614175  0.162045623205
   BAR CC3051     1  0.337650614175  0.162045623205
   BAR CC3062     1  0.337650614175  0.162045623205
   BAR  CC30A     1  0.337650614175  0.162045623205
   BAR  CC311     1  0.337650614175  0.162045623205
   BAR CC311C     1  0.337650614175  0.162045623205
   BAR CC311D     1  0.337650614175  0.162045623205
   BAR  CC312     1  0.337650614175  0.162045623205
   BAR CC312C     1  0.337650614175  0.162045623205
   BAR CC312D     1  0.337650614175  0.162045623205
   BAR CC3151     1  0.337650614175  0.162045623205
   BAR CC3152     1  0.337650614175  0.162045623205
   BAR CC3153     1  0.337650614175  0.162045623205
   BAR CC3161     1  0.337650614175  0.162045623205
   BAR CC3162     1  0.337650614175  0.162045623205
   BAR CC3163     1  0.337650614175  0.162045623205
   BAR  CC31A     1  0.337650614175  0.162045623205
   BAR  CC321     1  0.337650614175  0.162045623205
   BAR CC321C     1  0.337650614175  0.162045623205
   BAR CC321D     1  0.337650614175  0.162045623205
   BAR  CC322     1  0.337650614175  0.162045623205
   BAR CC322C     1  0.337650614175  0.162045623205
   BAR CC3251     1  0.337650614175  0.162045623205
   BAR CC325A     1  0.337650614175  0.162045623205
   BAR CC325B     1  0.337650614175  0.162045623205
   BAR CC3261     1  0.337650614175  0.162045623205
   BAR CC3263     1  0.337650614175  0.162045623205
   BAR CC326A     1  0.337650614175  0.162045623205
   BAR  CC32A     1  0.337650614175  0.162045623205
   BAR  CC331     1  0.337650614175  0.162045623205
   BAR  CC33A     1  0.337650614175  0.162045623205
   BAR  CG301     1  0.337650614175  0.162045623205
   BAR  CG311     1  0.337650614175  0.162045623205
   BAR  CG314     1  0.337650614175  0.162045623205
   BAR  CG321     1  0.337650614175  0.162045623205
   BAR  CG324     1  0.337650614175  0.162045623205
   BAR  CG331     1  0.337650614175  0.162045623205
   BAR  CG334     1  0.337650614175  0.162045623205
   BAR CG3C31     1  0.337650614175  0.162045623205
   BAR CG3C41     1  0.337650614175  0.162045623205
   BAR CG3C50     1  0.337650614175  0.162045623205
   BAR CG3C51     1  0.337650614175  0.162045623205
   BAR CG3C52     1  0.337650614175  0.162045623205
   BAR CG3C53     1  0.337650614175  0.162045623205
   BAR CG3C54     1  0.337650614175  0.162045623205
   BAR CG3RC1     1  0.337650614175  0.162045623205
   BAR  CLG11     1  0.337650614175  0.162045623205
   BAR  CLG12     1  0.337650614175  0.162045623205
   BAR  CLG13     1  0.337650614175  0.162045623205
   BAR  CLG14     1  0.337650614175  0.162045623205
   BAR  CLG15     1  0.337650614175  0.162045623205
   BAR  CLG16     1  0.337650614175  0.162045623205
   BAR    CN6     1  0.337650614175  0.162045623205
   BAR    CN7     1  0.337650614175  0.162045623205
   BAR   CN7B     1  0.337650614175  0.162045623205
   BAR   CN7E     1  0.337650614175  0.162045623205
   BAR    CN8     1  0.337650614175  0.162045623205
   BAR   CN8B     1  0.337650614175  0.162045623205
   BAR    CN9     1  0.337650614175  0.162045623205
   BAR    CP1     1  0.337650614175  0.162045623205
   BAR    CP2     1  0.337650614175  0.162045623205
   BAR    CP3     1  0.337650614175  0.162045623205
   BAR   CPD1     1  0.337650614175  0.162045623205
   BAR   CR33     1  0.337650614175  0.162045623205
   BAR   CRL1     1  0.337650614175  0.162045623205
   BAR   CRL2     1  0.337650614175  0.162045623205
   BAR     CT     1  0.337650614175  0.162045623205
   BAR    CT1     1  0.337650614175  0.162045623205
   BAR   CT1X     1  0.337650614175  0.162045623205
   BAR    CT2     1  0.337650614175  0.162045623205
   BAR   CT2A     1  0.337650614175  0.162045623205
   BAR   CT2P     1  0.337650614175  0.162045623205
   BAR   CT2X     1  0.337650614175  0.162045623205
   BAR    CT3     1  0.337650614175  0.162045623205
   BAR   CT3X     1  0.337650614175  0.162045623205
   BAR   CTD1     1  0.337650614175  0.162045623205
   BAR   CTL1     1  0.337650614175  0.162045623205
   BAR   CTL2     1  0.337650614175  0.162045623205
   BAR   CTL3     1  0.337650614175  0.162045623205
   BAR   CTL5     1  0.337650614175  0.162045623205
   BAR   CTO1     1  0.337650614175  0.162045623205
   BAR   CTO2     1  0.337650614175  0.162045623205
   BAR     HP     1  0.289381721626  0.280671252536
   BAR      N     1  0.333196120584  0.016204562321
   BAR  NC2D1     1  0.306469159040  0.724690057887
   BAR  NG2S0     1  0.333196120584  0.016204562321
   BAR  NG2S1     1  0.306469159040  0.724690057887
   BAR    NH1     1  0.306469159040  0.724690057887
   BAR    NHL     1  0.306469159040  0.724690057887
   BAR      O     1  0.293105678268  0.561342505072
   BAR     OB     1  0.293105678268  0.561342505072
   BAR    OBL     1  0.293105678268  0.561342505072
   BAR  OC2D1     1  0.293105678268  0.561342505072
   BAR  OC2D3     1  0.293105678268  0.561342505072
   BAR  OC2D4     1  0.293105678268  0.561342505072
   BAR    OCA     1  0.293105678268  0.561342505072
   BAR  OG2D1     1  0.293105678268  0.561342505072
   BAR  OG2D3     1  0.293105678268  0.561342505072
   BAR   OLG1     1  0.293105678268  0.561342505072
  BE2P  CC301     1  0.172834351319  0.133363974506
  BE2P CC3051     1  0.172834351319  0.133363974506
  BE2P CC3062     1  0.172834351319  0.133363974506
  BE2P  CC30A     1  0.172834351319  0.133363974506
  BE2P  CC311     1  0.172834351319  0.133363974506
  BE2P CC311C     1  0.172834351319  0.133363974506
  BE2P CC311D     1  0.172834351319  0.133363974506
  BE2P  CC312     1  0.172834351319  0.133363974506
  BE2P CC312C     1  0.172834351319  0.133363974506
  BE2P CC312D     1  0.172834351319  0.133363974506
  BE2P CC3151     1  0.172834351319  0.133363974506
  BE2P CC3152     1  0.172834351319  0.133363974506
  BE2P CC3153     1  0.172834351319  0.133363974506
  BE2P CC3161     1  0.172834351319  0.133363974506
  BE2P CC3162     1  0.172834351319  0.133363974506
  BE2P CC3163     1  0.172834351319  0.133363974506
  BE2P  CC31A     1  0.172834351319  0.133363974506
  BE2P  CC321     1  0.172834351319  0.133363974506
  BE2P CC321C     1  0.172834351319  0.133363974506
  BE2P CC321D     1  0.172834351319  0.133363974506
  BE2P  CC322     1  0.172834351319  0.133363974506
  BE2P CC322C     1  0.172834351319  0.133363974506
  BE2P CC3251     1  0.172834351319  0.133363974506
  BE2P CC325A     1  0.172834351319  0.133363974506
  BE2P CC325B     1  0.172834351319  0.133363974506
  BE2P CC3261     1  0.172834351319  0.133363974506
  BE2P CC3263     1  0.172834351319  0.133363974506
  BE2P CC326A     1  0.172834351319  0.133363974506
  BE2P  CC32A     1  0.172834351319  0.133363974506
  BE2P  CC331     1  0.172834351319  0.133363974506
  BE2P  CC33A     1  0.172834351319  0.133363974506
  BE2P  CG301     1  0.172834351319  0.133363974506
  BE2P  CG311     1  0.172834351319  0.133363974506
  BE2P  CG314     1  0.172834351319  0.133363974506
  BE2P  CG321     1  0.172834351319  0.133363974506
  BE2P  CG324     1  0.172834351319  0.133363974506
  BE2P  CG331     1  0.172834351319  0.133363974506
  BE2P  CG334     1  0.172834351319  0.133363974506
  BE2P CG3C31     1  0.172834351319  0.133363974506
  BE2P CG3C41     1  0.172834351319  0.133363974506
  BE2P CG3C50     1  0.172834351319  0.133363974506
  BE2P CG3C51     1  0.172834351319  0.133363974506
  BE2P CG3C52     1  0.172834351319  0.133363974506
  BE2P CG3C53     1  0.172834351319  0.133363974506
  BE2P CG3C54     1  0.172834351319  0.133363974506
  BE2P CG3RC1     1  0.172834351319  0.133363974506
  BE2P  CLG11     1  0.172834351319  0.133363974506
  BE2P  CLG12     1  0.172834351319  0.133363974506
  BE2P  CLG13     1  0.172834351319  0.133363974506
  BE2P  CLG14     1  0.172834351319  0.133363974506
  BE2P  CLG15     1  0.172834351319  0.133363974506
  BE2P  CLG16     1  0.172834351319  0.133363974506
  BE2P    CN6     1  0.172834351319  0.133363974506
  BE2P    CN7     1  0.172834351319  0.133363974506
  BE2P   CN7B     1  0.172834351319  0.133363974506
  BE2P   CN7E     1  0.172834351319  0.133363974506
  BE2P    CN8     1  0.172834351319  0.133363974506
  BE2P   CN8B     1  0.172834351319  0.133363974506
  BE2P    CN9     1  0.172834351319  0.133363974506
  BE2P    CP1     1  0.172834351319  0.133363974506
  BE2P    CP2     1  0.172834351319  0.133363974506
  BE2P    CP3     1  0.172834351319  0.133363974506
  BE2P   CPD1     1  0.172834351319  0.133363974506
  BE2P   CR33     1  0.172834351319  0.133363974506
  BE2P   CRL1     1  0.172834351319  0.133363974506
  BE2P   CRL2     1  0.172834351319  0.133363974506
  BE2P     CT     1  0.172834351319  0.133363974506
  BE2P    CT1     1  0.172834351319  0.133363974506
  BE2P   CT1X     1  0.172834351319  0.133363974506
  BE2P    CT2     1  0.172834351319  0.133363974506
  BE2P   CT2A     1  0.172834351319  0.133363974506
  BE2P   CT2P     1  0.172834351319  0.133363974506
  BE2P   CT2X     1  0.172834351319  0.133363974506
  BE2P    CT3     1  0.172834351319  0.133363974506
  BE2P   CT3X     1  0.172834351319  0.133363974506
  BE2P   CTD1     1  0.172834351319  0.133363974506
  BE2P   CTL1     1  0.172834351319  0.133363974506
  BE2P   CTL2     1  0.172834351319  0.133363974506
  BE2P   CTL3     1  0.172834351319  0.133363974506
  BE2P   CTL5     1  0.172834351319  0.133363974506
  BE2P   CTO1     1  0.172834351319  0.133363974506
  BE2P   CTO2     1  0.172834351319  0.133363974506
  BE2P     HP     1  0.124565458770  0.230993179743
  BE2P      N     1  0.168379857729  0.013336397451
  BE2P  NC2D1     1  0.141652896184  0.596421825489
  BE2P  NG2S0     1  0.168379857729  0.013336397451
  BE2P  NG2S1     1  0.141652896184  0.596421825489
  BE2P    NH1     1  0.141652896184  0.596421825489
  BE2P    NHL     1  0.141652896184  0.596421825489
  BE2P      O     1  0.128289415412  0.461986359487
  BE2P     OB     1  0.128289415412  0.461986359487
  BE2P    OBL     1  0.128289415412  0.461986359487
  BE2P  OC2D1     1  0.128289415412  0.461986359487
  BE2P  OC2D3     1  0.128289415412  0.461986359487
  BE2P  OC2D4     1  0.128289415412  0.461986359487
  BE2P    OCA     1  0.128289415412  0.461986359487
  BE2P  OG2D1     1  0.128289415412  0.461986359487
  BE2P  OG2D3     1  0.128289415412  0.461986359487
  BE2P   OLG1     1  0.128289415412  0.461986359487
 BG201  CC301     1  0.396449929572  0.081561175077
 BG201 CC3051     1  0.396449929572  0.081561175077
 BG201 CC3062     1  0.396449929572  0.081561175077
 BG201  CC30A     1  0.396449929572  0.081561175077
 BG201  CC311     1  0.396449929572  0.081561175077
 BG201 CC311C     1  0.396449929572  0.081561175077
 BG201 CC311D     1  0.396449929572  0.081561175077
 BG201  CC312     1  0.396449929572  0.081561175077
 BG201 CC312C     1  0.396449929572  0.081561175077
 BG201 CC312D     1  0.396449929572  0.081561175077
 BG201 CC3151     1  0.396449929572  0.081561175077
 BG201 CC3152     1  0.396449929572  0.081561175077
 BG201 CC3153     1  0.396449929572  0.081561175077
 BG201 CC3161     1  0.396449929572  0.081561175077
 BG201 CC3162     1  0.396449929572  0.081561175077
 BG201 CC3163     1  0.396449929572  0.081561175077
 BG201  CC31A     1  0.396449929572  0.081561175077
 BG201  CC321     1  0.396449929572  0.081561175077
 BG201 CC321C     1  0.396449929572  0.081561175077
 BG201 CC321D     1  0.396449929572  0.081561175077
 BG201  CC322     1  0.396449929572  0.081561175077
 BG201 CC322C     1  0.396449929572  0.081561175077
 BG201 CC3251     1  0.396449929572  0.081561175077
 BG201 CC325A     1  0.396449929572  0.081561175077
 BG201 CC325B     1  0.396449929572  0.081561175077
 BG201 CC3261     1  0.396449929572  0.081561175077
 BG201 CC3263     1  0.396449929572  0.081561175077
 BG201 CC326A     1  0.396449929572  0.081561175077
 BG201  CC32A     1  0.396449929572  0.081561175077
 BG201  CC331     1  0.396449929572  0.081561175077
 BG201  CC33A     1  0.396449929572  0.081561175077
 BG201  CG301     1  0.396449929572  0.081561175077
 BG201  CG311     1  0.396449929572  0.081561175077
 BG201  CG314     1  0.396449929572  0.081561175077
 BG201  CG321     1  0.396449929572  0.081561175077
 BG201  CG324     1  0.396449929572  0.081561175077
 BG201  CG331     1  0.396449929572  0.081561175077
 BG201  CG334     1  0.396449929572  0.081561175077
 BG201 CG3C31     1  0.396449929572  0.081561175077
 BG201 CG3C41     1  0.396449929572  0.081561175077
 BG201 CG3C50     1  0.396449929572  0.081561175077
 BG201 CG3C51     1  0.396449929572  0.081561175077
 BG201 CG3C52     1  0.396449929572  0.081561175077
 BG201 CG3C53     1  0.396449929572  0.081561175077
 BG201 CG3C54     1  0.396449929572  0.081561175077
 BG201 CG3RC1     1  0.396449929572  0.081561175077
 BG201  CLG11     1  0.396449929572  0.081561175077
 BG201  CLG12     1  0.396449929572  0.081561175077
 BG201  CLG13     1  0.396449929572  0.081561175077
 BG201  CLG14     1  0.396449929572  0.081561175077
 BG201  CLG15     1  0.396449929572  0.081561175077
 BG201  CLG16     1  0.396449929572  0.081561175077
 BG201    CN6     1  0.396449929572  0.081561175077
 BG201    CN7     1  0.396449929572  0.081561175077
 BG201   CN7B     1  0.396449929572  0.081561175077
 BG201   CN7E     1  0.396449929572  0.081561175077
 BG201    CN8     1  0.396449929572  0.081561175077
 BG201   CN8B     1  0.396449929572  0.081561175077
 BG201    CN9     1  0.396449929572  0.081561175077
 BG201    CP1     1  0.396449929572  0.081561175077
 BG201    CP2     1  0.396449929572  0.081561175077
 BG201    CP3     1  0.396449929572  0.081561175077
 BG201   CPD1     1  0.396449929572  0.081561175077
 BG201   CR33     1  0.396449929572  0.081561175077
 BG201   CRL1     1  0.396449929572  0.081561175077
 BG201   CRL2     1  0.396449929572  0.081561175077
 BG201     CT     1  0.396449929572  0.081561175077
 BG201    CT1     1  0.396449929572  0.081561175077
 BG201   CT1X     1  0.396449929572  0.081561175077
 BG201    CT2     1  0.396449929572  0.081561175077
 BG201   CT2A     1  0.396449929572  0.081561175077
 BG201   CT2P     1  0.396449929572  0.081561175077
 BG201   CT2X     1  0.396449929572  0.081561175077
 BG201    CT3     1  0.396449929572  0.081561175077
 BG201   CT3X     1  0.396449929572  0.081561175077
 BG201   CTD1     1  0.396449929572  0.081561175077
 BG201   CTL1     1  0.396449929572  0.081561175077
 BG201   CTL2     1  0.396449929572  0.081561175077
 BG201   CTL3     1  0.396449929572  0.081561175077
 BG201   CTL5     1  0.396449929572  0.081561175077
 BG201   CTO1     1  0.396449929572  0.081561175077
 BG201   CTO2     1  0.396449929572  0.081561175077
 BG201     HP     1  0.348181037024  0.141268099159
 BG201      N     1  0.391995435982  0.008156117508
 BG201  NC2D1     1  0.365268474438  0.364752663595
 BG201  NG2S0     1  0.391995435982  0.008156117508
 BG201  NG2S1     1  0.365268474438  0.364752663595
 BG201    NH1     1  0.365268474438  0.364752663595
 BG201    NHL     1  0.365268474438  0.364752663595
 BG201      O     1  0.351904993665  0.282536198318
 BG201     OB     1  0.351904993665  0.282536198318
 BG201    OBL     1  0.351904993665  0.282536198318
 BG201  OC2D1     1  0.351904993665  0.282536198318
 BG201  OC2D3     1  0.351904993665  0.282536198318
 BG201  OC2D4     1  0.351904993665  0.282536198318
 BG201    OCA     1  0.351904993665  0.282536198318
 BG201  OG2D1     1  0.351904993665  0.282536198318
 BG201  OG2D3     1  0.351904993665  0.282536198318
 BG201   OLG1     1  0.351904993665  0.282536198318
  BI3P  CC301     1  0.291163519063  0.179960644587
  BI3P CC3051     1  0.291163519063  0.179960644587
  BI3P CC3062     1  0.291163519063  0.179960644587
  BI3P  CC30A     1  0.291163519063  0.179960644587
  BI3P  CC311     1  0.291163519063  0.179960644587
  BI3P CC311C     1  0.291163519063  0.179960644587
  BI3P CC311D     1  0.291163519063  0.179960644587
  BI3P  CC312     1  0.291163519063  0.179960644587
  BI3P CC312C     1  0.291163519063  0.179960644587
  BI3P CC312D     1  0.291163519063  0.179960644587
  BI3P CC3151     1  0.291163519063  0.179960644587
  BI3P CC3152     1  0.291163519063  0.179960644587
  BI3P CC3153     1  0.291163519063  0.179960644587
  BI3P CC3161     1  0.291163519063  0.179960644587
  BI3P CC3162     1  0.291163519063  0.179960644587
  BI3P CC3163     1  0.291163519063  0.179960644587
  BI3P  CC31A     1  0.291163519063  0.179960644587
  BI3P  CC321     1  0.291163519063  0.179960644587
  BI3P CC321C     1  0.291163519063  0.179960644587
  BI3P CC321D     1  0.291163519063  0.179960644587
  BI3P  CC322     1  0.291163519063  0.179960644587
  BI3P CC322C     1  0.291163519063  0.179960644587
  BI3P CC3251     1  0.291163519063  0.179960644587
  BI3P CC325A     1  0.291163519063  0.179960644587
  BI3P CC325B     1  0.291163519063  0.179960644587
  BI3P CC3261     1  0.291163519063  0.179960644587
  BI3P CC3263     1  0.291163519063  0.179960644587
  BI3P CC326A     1  0.291163519063  0.179960644587
  BI3P  CC32A     1  0.291163519063  0.179960644587
  BI3P  CC331     1  0.291163519063  0.179960644587
  BI3P  CC33A     1  0.291163519063  0.179960644587
  BI3P  CG301     1  0.291163519063  0.179960644587
  BI3P  CG311     1  0.291163519063  0.179960644587
  BI3P  CG314     1  0.291163519063  0.179960644587
  BI3P  CG321     1  0.291163519063  0.179960644587
  BI3P  CG324     1  0.291163519063  0.179960644587
  BI3P  CG331     1  0.291163519063  0.179960644587
  BI3P  CG334     1  0.291163519063  0.179960644587
  BI3P CG3C31     1  0.291163519063  0.179960644587
  BI3P CG3C41     1  0.291163519063  0.179960644587
  BI3P CG3C50     1  0.291163519063  0.179960644587
  BI3P CG3C51     1  0.291163519063  0.179960644587
  BI3P CG3C52     1  0.291163519063  0.179960644587
  BI3P CG3C53     1  0.291163519063  0.179960644587
  BI3P CG3C54     1  0.291163519063  0.179960644587
  BI3P CG3RC1     1  0.291163519063  0.179960644587
  BI3P  CLG11     1  0.291163519063  0.179960644587
  BI3P  CLG12     1  0.291163519063  0.179960644587
  BI3P  CLG13     1  0.291163519063  0.179960644587
  BI3P  CLG14     1  0.291163519063  0.179960644587
  BI3P  CLG15     1  0.291163519063  0.179960644587
  BI3P  CLG16     1  0.291163519063  0.179960644587
  BI3P    CN6     1  0.291163519063  0.179960644587
  BI3P    CN7     1  0.291163519063  0.179960644587
  BI3P   CN7B     1  0.291163519063  0.179960644587
  BI3P   CN7E     1  0.291163519063  0.179960644587
  BI3P    CN8     1  0.291163519063  0.179960644587
  BI3P   CN8B     1  0.291163519063  0.179960644587
  BI3P    CN9     1  0.291163519063  0.179960644587
  BI3P    CP1     1  0.291163519063  0.179960644587
  BI3P    CP2     1  0.291163519063  0.179960644587
  BI3P    CP3     1  0.291163519063  0.179960644587
  BI3P   CPD1     1  0.291163519063  0.179960644587
  BI3P   CR33     1  0.291163519063  0.179960644587
  BI3P   CRL1     1  0.291163519063  0.179960644587
  BI3P   CRL2     1  0.291163519063  0.179960644587
  BI3P     CT     1  0.291163519063  0.179960644587
  BI3P    CT1     1  0.291163519063  0.179960644587
  BI3P   CT1X     1  0.291163519063  0.179960644587
  BI3P    CT2     1  0.291163519063  0.179960644587
  BI3P   CT2A     1  0.291163519063  0.179960644587
  BI3P   CT2P     1  0.291163519063  0.179960644587
  BI3P   CT2X     1  0.291163519063  0.179960644587
  BI3P    CT3     1  0.291163519063  0.179960644587
  BI3P   CT3X     1  0.291163519063  0.179960644587
  BI3P   CTD1     1  0.291163519063  0.179960644587
  BI3P   CTL1     1  0.291163519063  0.179960644587
  BI3P   CTL2     1  0.291163519063  0.179960644587
  BI3P   CTL3     1  0.291163519063  0.179960644587
  BI3P   CTL5     1  0.291163519063  0.179960644587
  BI3P   CTO1     1  0.291163519063  0.179960644587
  BI3P   CTO2     1  0.291163519063  0.179960644587
  BI3P     HP     1  0.242894626514  0.311700979787
  BI3P      N     1  0.286709025472  0.017996064459
  BI3P  NC2D1     1  0.259982063928  0.804808469140
  BI3P  NG2S0     1  0.286709025472  0.017996064459
  BI3P  NG2S1     1  0.259982063928  0.804808469140
  BI3P    NH1     1  0.259982063928  0.804808469140
  BI3P    NHL     1  0.259982063928  0.804808469140
  BI3P      O     1  0.246618583156  0.623401959573
  BI3P     OB     1  0.246618583156  0.623401959573
  BI3P    OBL     1  0.246618583156  0.623401959573
  BI3P  OC2D1     1  0.246618583156  0.623401959573
  BI3P  OC2D3     1  0.246618583156  0.623401959573
  BI3P  OC2D4     1  0.246618583156  0.623401959573
  BI3P    OCA     1  0.246618583156  0.623401959573
  BI3P  OG2D1     1  0.246618583156  0.623401959573
  BI3P  OG2D3     1  0.246618583156  0.623401959573
  BI3P   OLG1     1  0.246618583156  0.623401959573
 BRGA1  CC301     1  0.344777803920  0.289876023155
 BRGA1 CC3051     1  0.344777803920  0.289876023155
 BRGA1 CC3062     1  0.344777803920  0.289876023155
 BRGA1  CC30A     1  0.344777803920  0.289876023155
 BRGA1  CC311     1  0.344777803920  0.289876023155
 BRGA1 CC311C     1  0.344777803920  0.289876023155
 BRGA1 CC311D     1  0.344777803920  0.289876023155
 BRGA1  CC312     1  0.344777803920  0.289876023155
 BRGA1 CC312C     1  0.344777803920  0.289876023155
 BRGA1 CC312D     1  0.344777803920  0.289876023155
 BRGA1 CC3151     1  0.344777803920  0.289876023155
 BRGA1 CC3152     1  0.344777803920  0.289876023155
 BRGA1 CC3153     1  0.344777803920  0.289876023155
 BRGA1 CC3161     1  0.344777803920  0.289876023155
 BRGA1 CC3162     1  0.344777803920  0.289876023155
 BRGA1 CC3163     1  0.344777803920  0.289876023155
 BRGA1  CC31A     1  0.344777803920  0.289876023155
 BRGA1  CC321     1  0.344777803920  0.289876023155
 BRGA1 CC321C     1  0.344777803920  0.289876023155
 BRGA1 CC321D     1  0.344777803920  0.289876023155
 BRGA1  CC322     1  0.344777803920  0.289876023155
 BRGA1 CC322C     1  0.344777803920  0.289876023155
 BRGA1 CC3251     1  0.344777803920  0.289876023155
 BRGA1 CC325A     1  0.344777803920  0.289876023155
 BRGA1 CC325B     1  0.344777803920  0.289876023155
 BRGA1 CC3261     1  0.344777803920  0.289876023155
 BRGA1 CC3263     1  0.344777803920  0.289876023155
 BRGA1 CC326A     1  0.344777803920  0.289876023155
 BRGA1  CC32A     1  0.344777803920  0.289876023155
 BRGA1  CC331     1  0.344777803920  0.289876023155
 BRGA1  CC33A     1  0.344777803920  0.289876023155
 BRGA1  CG301     1  0.344777803920  0.289876023155
 BRGA1  CG311     1  0.344777803920  0.289876023155
 BRGA1  CG314     1  0.344777803920  0.289876023155
 BRGA1  CG321     1  0.344777803920  0.289876023155
 BRGA1  CG324     1  0.344777803920  0.289876023155
 BRGA1  CG331     1  0.344777803920  0.289876023155
 BRGA1  CG334     1  0.344777803920  0.289876023155
 BRGA1 CG3C31     1  0.344777803920  0.289876023155
 BRGA1 CG3C41     1  0.344777803920  0.289876023155
 BRGA1 CG3C50     1  0.344777803920  0.289876023155
 BRGA1 CG3C51     1  0.344777803920  0.289876023155
 BRGA1 CG3C52     1  0.344777803920  0.289876023155
 BRGA1 CG3C53     1  0.344777803920  0.289876023155
 BRGA1 CG3C54     1  0.344777803920  0.289876023155
 BRGA1 CG3RC1     1  0.344777803920  0.289876023155
 BRGA1  CLG11     1  0.344777803920  0.289876023155
 BRGA1  CLG12     1  0.344777803920  0.289876023155
 BRGA1  CLG13     1  0.344777803920  0.289876023155
 BRGA1  CLG14     1  0.344777803920  0.289876023155
 BRGA1  CLG15     1  0.344777803920  0.289876023155
 BRGA1  CLG16     1  0.344777803920  0.289876023155
 BRGA1    CN6     1  0.344777803920  0.289876023155
 BRGA1    CN7     1  0.344777803920  0.289876023155
 BRGA1   CN7B     1  0.344777803920  0.289876023155
 BRGA1   CN7E     1  0.344777803920  0.289876023155
 BRGA1    CN8     1  0.344777803920  0.289876023155
 BRGA1   CN8B     1  0.344777803920  0.289876023155
 BRGA1    CN9     1  0.344777803920  0.289876023155
 BRGA1    CP1     1  0.344777803920  0.289876023155
 BRGA1    CP2     1  0.344777803920  0.289876023155
 BRGA1    CP3     1  0.344777803920  0.289876023155
 BRGA1   CPD1     1  0.344777803920  0.289876023155
 BRGA1   CR33     1  0.344777803920  0.289876023155
 BRGA1   CRL1     1  0.344777803920  0.289876023155
 BRGA1   CRL2     1  0.344777803920  0.289876023155
 BRGA1     CT     1  0.344777803920  0.289876023155
 BRGA1    CT1     1  0.344777803920  0.289876023155
 BRGA1   CT1X     1  0.344777803920  0.289876023155
 BRGA1    CT2     1  0.344777803920  0.289876023155
 BRGA1   CT2A     1  0.344777803920  0.289876023155
 BRGA1   CT2P     1  0.344777803920  0.289876023155
 BRGA1   CT2X     1  0.344777803920  0.289876023155
 BRGA1    CT3     1  0.344777803920  0.289876023155
 BRGA1   CT3X     1  0.344777803920  0.289876023155
 BRGA1   CTD1     1  0.344777803920  0.289876023155
 BRGA1   CTL1     1  0.344777803920  0.289876023155
 BRGA1   CTL2     1  0.344777803920  0.289876023155
 BRGA1   CTL3     1  0.344777803920  0.289876023155
 BRGA1   CTL5     1  0.344777803920  0.289876023155
 BRGA1   CTO1     1  0.344777803920  0.289876023155
 BRGA1   CTO2     1  0.344777803920  0.289876023155
 BRGA1     HP     1  0.296508911371  0.502080000000
 BRGA1      N     1  0.340323310330  0.028987602315
 BRGA1  NC2D1     1  0.313596348785  1.296364985643
 BRGA1  NG2S0     1  0.340323310330  0.028987602315
 BRGA1  NG2S1     1  0.313596348785  1.296364985643
 BRGA1    NH1     1  0.313596348785  1.296364985643
 BRGA1    NHL     1  0.313596348785  1.296364985643
 BRGA1      O     1  0.300232868013  1.004160000000
 BRGA1     OB     1  0.300232868013  1.004160000000
 BRGA1    OBL     1  0.300232868013  1.004160000000
 BRGA1  OC2D1     1  0.300232868013  1.004160000000
 BRGA1  OC2D3     1  0.300232868013  1.004160000000
 BRGA1  OC2D4     1  0.300232868013  1.004160000000
 BRGA1    OCA     1  0.300232868013  1.004160000000
 BRGA1  OG2D1     1  0.300232868013  1.004160000000
 BRGA1  OG2D3     1  0.300232868013  1.004160000000
 BRGA1   OLG1     1  0.300232868013  1.004160000000
 BRGA2  CC301     1  0.351904993665  0.304599797767
 BRGA2 CC3051     1  0.351904993665  0.304599797767
 BRGA2 CC3062     1  0.351904993665  0.304599797767
 BRGA2  CC30A     1  0.351904993665  0.304599797767
 BRGA2  CC311     1  0.351904993665  0.304599797767
 BRGA2 CC311C     1  0.351904993665  0.304599797767
 BRGA2 CC311D     1  0.351904993665  0.304599797767
 BRGA2  CC312     1  0.351904993665  0.304599797767
 BRGA2 CC312C     1  0.351904993665  0.304599797767
 BRGA2 CC312D     1  0.351904993665  0.304599797767
 BRGA2 CC3151     1  0.351904993665  0.304599797767
 BRGA2 CC3152     1  0.351904993665  0.304599797767
 BRGA2 CC3153     1  0.351904993665  0.304599797767
 BRGA2 CC3161     1  0.351904993665  0.304599797767
 BRGA2 CC3162     1  0.351904993665  0.304599797767
 BRGA2 CC3163     1  0.351904993665  0.304599797767
 BRGA2  CC31A     1  0.351904993665  0.304599797767
 BRGA2  CC321     1  0.351904993665  0.304599797767
 BRGA2 CC321C     1  0.351904993665  0.304599797767
 BRGA2 CC321D     1  0.351904993665  0.304599797767
 BRGA2  CC322     1  0.351904993665  0.304599797767
 BRGA2 CC322C     1  0.351904993665  0.304599797767
 BRGA2 CC3251     1  0.351904993665  0.304599797767
 BRGA2 CC325A     1  0.351904993665  0.304599797767
 BRGA2 CC325B     1  0.351904993665  0.304599797767
 BRGA2 CC3261     1  0.351904993665  0.304599797767
 BRGA2 CC3263     1  0.351904993665  0.304599797767
 BRGA2 CC326A     1  0.351904993665  0.304599797767
 BRGA2  CC32A     1  0.351904993665  0.304599797767
 BRGA2  CC331     1  0.351904993665  0.304599797767
 BRGA2  CC33A     1  0.351904993665  0.304599797767
 BRGA2  CG301     1  0.351904993665  0.304599797767
 BRGA2  CG311     1  0.351904993665  0.304599797767
 BRGA2  CG314     1  0.351904993665  0.304599797767
 BRGA2  CG321     1  0.351904993665  0.304599797767
 BRGA2  CG324     1  0.351904993665  0.304599797767
 BRGA2  CG331     1  0.351904993665  0.304599797767
 BRGA2  CG334     1  0.351904993665  0.304599797767
 BRGA2 CG3C31     1  0.351904993665  0.304599797767
 BRGA2 CG3C41     1  0.351904993665  0.304599797767
 BRGA2 CG3C50     1  0.351904993665  0.304599797767
 BRGA2 CG3C51     1  0.351904993665  0.304599797767
 BRGA2 CG3C52     1  0.351904993665  0.304599797767
 BRGA2 CG3C53     1  0.351904993665  0.304599797767
 BRGA2 CG3C54     1  0.351904993665  0.304599797767
 BRGA2 CG3RC1     1  0.351904993665  0.304599797767
 BRGA2  CLG11     1  0.351904993665  0.304599797767
 BRGA2  CLG12     1  0.351904993665  0.304599797767
 BRGA2  CLG13     1  0.351904993665  0.304599797767
 BRGA2  CLG14     1  0.351904993665  0.304599797767
 BRGA2  CLG15     1  0.351904993665  0.304599797767
 BRGA2  CLG16     1  0.351904993665  0.304599797767
 BRGA2    CN6     1  0.351904993665  0.304599797767
 BRGA2    CN7     1  0.351904993665  0.304599797767
 BRGA2   CN7B     1  0.351904993665  0.304599797767
 BRGA2   CN7E     1  0.351904993665  0.304599797767
 BRGA2    CN8     1  0.351904993665  0.304599797767
 BRGA2   CN8B     1  0.351904993665  0.304599797767
 BRGA2    CN9     1  0.351904993665  0.304599797767
 BRGA2    CP1     1  0.351904993665  0.304599797767
 BRGA2    CP2     1  0.351904993665  0.304599797767
 BRGA2    CP3     1  0.351904993665  0.304599797767
 BRGA2   CPD1     1  0.351904993665  0.304599797767
 BRGA2   CR33     1  0.351904993665  0.304599797767
 BRGA2   CRL1     1  0.351904993665  0.304599797767
 BRGA2   CRL2     1  0.351904993665  0.304599797767
 BRGA2     CT     1  0.351904993665  0.304599797767
 BRGA2    CT1     1  0.351904993665  0.304599797767
 BRGA2   CT1X     1  0.351904993665  0.304599797767
 BRGA2    CT2     1  0.351904993665  0.304599797767
 BRGA2   CT2A     1  0.351904993665  0.304599797767
 BRGA2   CT2P     1  0.351904993665  0.304599797767
 BRGA2   CT2X     1  0.351904993665  0.304599797767
 BRGA2    CT3     1  0.351904993665  0.304599797767
 BRGA2   CT3X     1  0.351904993665  0.304599797767
 BRGA2   CTD1     1  0.351904993665  0.304599797767
 BRGA2   CTL1     1  0.351904993665  0.304599797767
 BRGA2   CTL2     1  0.351904993665  0.304599797767
 BRGA2   CTL3     1  0.351904993665  0.304599797767
 BRGA2   CTL5     1  0.351904993665  0.304599797767
 BRGA2   CTO1     1  0.351904993665  0.304599797767
 BRGA2   CTO2     1  0.351904993665  0.304599797767
 BRGA2     HP     1  0.303636101117  0.527582325709
 BRGA2      N     1  0.347450500075  0.030459979777
 BRGA2  NC2D1     1  0.320723538531  1.362211707482
 BRGA2  NG2S0     1  0.347450500075  0.030459979777
 BRGA2  NG2S1     1  0.320723538531  1.362211707482
 BRGA2    NH1     1  0.320723538531  1.362211707482
 BRGA2    NHL     1  0.320723538531  1.362211707482
 BRGA2      O     1  0.307360057758  1.055164651417
 BRGA2     OB     1  0.307360057758  1.055164651417
 BRGA2    OBL     1  0.307360057758  1.055164651417
 BRGA2  OC2D1     1  0.307360057758  1.055164651417
 BRGA2  OC2D3     1  0.307360057758  1.055164651417
 BRGA2  OC2D4     1  0.307360057758  1.055164651417
 BRGA2    OCA     1  0.307360057758  1.055164651417
 BRGA2  OG2D1     1  0.307360057758  1.055164651417
 BRGA2  OG2D3     1  0.307360057758  1.055164651417
 BRGA2   OLG1     1  0.307360057758  1.055164651417
 BRGA3  CC301     1  0.347450500075  0.307459952514
 BRGA3 CC3051     1  0.347450500075  0.307459952514
 BRGA3 CC3062     1  0.347450500075  0.307459952514
 BRGA3  CC30A     1  0.347450500075  0.307459952514
 BRGA3  CC311     1  0.347450500075  0.307459952514
 BRGA3 CC311C     1  0.347450500075  0.307459952514
 BRGA3 CC311D     1  0.347450500075  0.307459952514
 BRGA3  CC312     1  0.347450500075  0.307459952514
 BRGA3 CC312C     1  0.347450500075  0.307459952514
 BRGA3 CC312D     1  0.347450500075  0.307459952514
 BRGA3 CC3151     1  0.347450500075  0.307459952514
 BRGA3 CC3152     1  0.347450500075  0.307459952514
 BRGA3 CC3153     1  0.347450500075  0.307459952514
 BRGA3 CC3161     1  0.347450500075  0.307459952514
 BRGA3 CC3162     1  0.347450500075  0.307459952514
 BRGA3 CC3163     1  0.347450500075  0.307459952514
 BRGA3  CC31A     1  0.347450500075  0.307459952514
 BRGA3  CC321     1  0.347450500075  0.307459952514
 BRGA3 CC321C     1  0.347450500075  0.307459952514
 BRGA3 CC321D     1  0.347450500075  0.307459952514
 BRGA3  CC322     1  0.347450500075  0.307459952514
 BRGA3 CC322C     1  0.347450500075  0.307459952514
 BRGA3 CC3251     1  0.347450500075  0.307459952514
 BRGA3 CC325A     1  0.347450500075  0.307459952514
 BRGA3 CC325B     1  0.347450500075  0.307459952514
 BRGA3 CC3261     1  0.347450500075  0.307459952514
 BRGA3 CC3263     1  0.347450500075  0.307459952514
 BRGA3 CC326A     1  0.347450500075  0.307459952514
 BRGA3  CC32A     1  0.347450500075  0.307459952514
 BRGA3  CC331     1  0.347450500075  0.307459952514
 BRGA3  CC33A     1  0.347450500075  0.307459952514
 BRGA3  CG301     1  0.347450500075  0.307459952514
 BRGA3  CG311     1  0.347450500075  0.307459952514
 BRGA3  CG314     1  0.347450500075  0.307459952514
 BRGA3  CG321     1  0.347450500075  0.307459952514
 BRGA3  CG324     1  0.347450500075  0.307459952514
 BRGA3  CG331     1  0.347450500075  0.307459952514
 BRGA3  CG334     1  0.347450500075  0.307459952514
 BRGA3 CG3C31     1  0.347450500075  0.307459952514
 BRGA3 CG3C41     1  0.347450500075  0.307459952514
 BRGA3 CG3C50     1  0.347450500075  0.307459952514
 BRGA3 CG3C51     1  0.347450500075  0.307459952514
 BRGA3 CG3C52     1  0.347450500075  0.307459952514
 BRGA3 CG3C53     1  0.347450500075  0.307459952514
 BRGA3 CG3C54     1  0.347450500075  0.307459952514
 BRGA3 CG3RC1     1  0.347450500075  0.307459952514
 BRGA3  CLG11     1  0.347450500075  0.307459952514
 BRGA3  CLG12     1  0.347450500075  0.307459952514
 BRGA3  CLG13     1  0.347450500075  0.307459952514
 BRGA3  CLG14     1  0.347450500075  0.307459952514
 BRGA3  CLG15     1  0.347450500075  0.307459952514
 BRGA3  CLG16     1  0.347450500075  0.307459952514
 BRGA3    CN6     1  0.347450500075  0.307459952514
 BRGA3    CN7     1  0.347450500075  0.307459952514
 BRGA3   CN7B     1  0.347450500075  0.307459952514
 BRGA3   CN7E     1  0.347450500075  0.307459952514
 BRGA3    CN8     1  0.347450500075  0.307459952514
 BRGA3   CN8B     1  0.347450500075  0.307459952514
 BRGA3    CN9     1  0.347450500075  0.307459952514
 BRGA3    CP1     1  0.347450500075  0.307459952514
 BRGA3    CP2     1  0.347450500075  0.307459952514
 BRGA3    CP3     1  0.347450500075  0.307459952514
 BRGA3   CPD1     1  0.347450500075  0.307459952514
 BRGA3   CR33     1  0.347450500075  0.307459952514
 BRGA3   CRL1     1  0.347450500075  0.307459952514
 BRGA3   CRL2     1  0.347450500075  0.307459952514
 BRGA3     CT     1  0.347450500075  0.307459952514
 BRGA3    CT1     1  0.347450500075  0.307459952514
 BRGA3   CT1X     1  0.347450500075  0.307459952514
 BRGA3    CT2     1  0.347450500075  0.307459952514
 BRGA3   CT2A     1  0.347450500075  0.307459952514
 BRGA3   CT2P     1  0.347450500075  0.307459952514
 BRGA3   CT2X     1  0.347450500075  0.307459952514
 BRGA3    CT3     1  0.347450500075  0.307459952514
 BRGA3   CT3X     1  0.347450500075  0.307459952514
 BRGA3   CTD1     1  0.347450500075  0.307459952514
 BRGA3   CTL1     1  0.347450500075  0.307459952514
 BRGA3   CTL2     1  0.347450500075  0.307459952514
 BRGA3   CTL3     1  0.347450500075  0.307459952514
 BRGA3   CTL5     1  0.347450500075  0.307459952514
 BRGA3   CTO1     1  0.347450500075  0.307459952514
 BRGA3   CTO2     1  0.347450500075  0.307459952514
 BRGA3     HP     1  0.299181607526  0.532536259047
 BRGA3      N     1  0.342996006484  0.030745995251
 BRGA3  NC2D1     1  0.316269044940  1.375002708361
 BRGA3  NG2S0     1  0.342996006484  0.030745995251
 BRGA3  NG2S1     1  0.316269044940  1.375002708361
 BRGA3    NH1     1  0.316269044940  1.375002708361
 BRGA3    NHL     1  0.316269044940  1.375002708361
 BRGA3      O     1  0.302905564168  1.065072518094
 BRGA3     OB     1  0.302905564168  1.065072518094
 BRGA3    OBL     1  0.302905564168  1.065072518094
 BRGA3  OC2D1     1  0.302905564168  1.065072518094
 BRGA3  OC2D3     1  0.302905564168  1.065072518094
 BRGA3  OC2D4     1  0.302905564168  1.065072518094
 BRGA3    OCA     1  0.302905564168  1.065072518094
 BRGA3  OG2D1     1  0.302905564168  1.065072518094
 BRGA3  OG2D3     1  0.302905564168  1.065072518094
 BRGA3   OLG1     1  0.302905564168  1.065072518094
 BRGR1  CC301     1  0.345668702638  0.236682781799
 BRGR1 CC3051     1  0.345668702638  0.236682781799
 BRGR1 CC3062     1  0.345668702638  0.236682781799
 BRGR1  CC30A     1  0.345668702638  0.236682781799
 BRGR1  CC311     1  0.345668702638  0.236682781799
 BRGR1 CC311C     1  0.345668702638  0.236682781799
 BRGR1 CC311D     1  0.345668702638  0.236682781799
 BRGR1  CC312     1  0.345668702638  0.236682781799
 BRGR1 CC312C     1  0.345668702638  0.236682781799
 BRGR1 CC312D     1  0.345668702638  0.236682781799
 BRGR1 CC3151     1  0.345668702638  0.236682781799
 BRGR1 CC3152     1  0.345668702638  0.236682781799
 BRGR1 CC3153     1  0.345668702638  0.236682781799
 BRGR1 CC3161     1  0.345668702638  0.236682781799
 BRGR1 CC3162     1  0.345668702638  0.236682781799
 BRGR1 CC3163     1  0.345668702638  0.236682781799
 BRGR1  CC31A     1  0.345668702638  0.236682781799
 BRGR1  CC321     1  0.345668702638  0.236682781799
 BRGR1 CC321C     1  0.345668702638  0.236682781799
 BRGR1 CC321D     1  0.345668702638  0.236682781799
 BRGR1  CC322     1  0.345668702638  0.236682781799
 BRGR1 CC322C     1  0.345668702638  0.236682781799
 BRGR1 CC3251     1  0.345668702638  0.236682781799
 BRGR1 CC325A     1  0.345668702638  0.236682781799
 BRGR1 CC325B     1  0.345668702638  0.236682781799
 BRGR1 CC3261     1  0.345668702638  0.236682781799
 BRGR1 CC3263     1  0.345668702638  0.236682781799
 BRGR1 CC326A     1  0.345668702638  0.236682781799
 BRGR1  CC32A     1  0.345668702638  0.236682781799
 BRGR1  CC331     1  0.345668702638  0.236682781799
 BRGR1  CC33A     1  0.345668702638  0.236682781799
 BRGR1  CG301     1  0.345668702638  0.236682781799
 BRGR1  CG311     1  0.345668702638  0.236682781799
 BRGR1  CG314     1  0.345668702638  0.236682781799
 BRGR1  CG321     1  0.345668702638  0.236682781799
 BRGR1  CG324     1  0.345668702638  0.236682781799
 BRGR1  CG331     1  0.345668702638  0.236682781799
 BRGR1  CG334     1  0.345668702638  0.236682781799
 BRGR1 CG3C31     1  0.345668702638  0.236682781799
 BRGR1 CG3C41     1  0.345668702638  0.236682781799
 BRGR1 CG3C50     1  0.345668702638  0.236682781799
 BRGR1 CG3C51     1  0.345668702638  0.236682781799
 BRGR1 CG3C52     1  0.345668702638  0.236682781799
 BRGR1 CG3C53     1  0.345668702638  0.236682781799
 BRGR1 CG3C54     1  0.345668702638  0.236682781799
 BRGR1 CG3RC1     1  0.345668702638  0.236682781799
 BRGR1  CLG11     1  0.345668702638  0.236682781799
 BRGR1  CLG12     1  0.345668702638  0.236682781799
 BRGR1  CLG13     1  0.345668702638  0.236682781799
 BRGR1  CLG14     1  0.345668702638  0.236682781799
 BRGR1  CLG15     1  0.345668702638  0.236682781799
 BRGR1  CLG16     1  0.345668702638  0.236682781799
 BRGR1    CN6     1  0.345668702638  0.236682781799
 BRGR1    CN7     1  0.345668702638  0.236682781799
 BRGR1   CN7B     1  0.345668702638  0.236682781799
 BRGR1   CN7E     1  0.345668702638  0.236682781799
 BRGR1    CN8     1  0.345668702638  0.236682781799
 BRGR1   CN8B     1  0.345668702638  0.236682781799
 BRGR1    CN9     1  0.345668702638  0.236682781799
 BRGR1    CP1     1  0.345668702638  0.236682781799
 BRGR1    CP2     1  0.345668702638  0.236682781799
 BRGR1    CP3     1  0.345668702638  0.236682781799
 BRGR1   CPD1     1  0.345668702638  0.236682781799
 BRGR1   CR33     1  0.345668702638  0.236682781799
 BRGR1   CRL1     1  0.345668702638  0.236682781799
 BRGR1   CRL2     1  0.345668702638  0.236682781799
 BRGR1     CT     1  0.345668702638  0.236682781799
 BRGR1    CT1     1  0.345668702638  0.236682781799
 BRGR1   CT1X     1  0.345668702638  0.236682781799
 BRGR1    CT2     1  0.345668702638  0.236682781799
 BRGR1   CT2A     1  0.345668702638  0.236682781799
 BRGR1   CT2P     1  0.345668702638  0.236682781799
 BRGR1   CT2X     1  0.345668702638  0.236682781799
 BRGR1    CT3     1  0.345668702638  0.236682781799
 BRGR1   CT3X     1  0.345668702638  0.236682781799
 BRGR1   CTD1     1  0.345668702638  0.236682781799
 BRGR1   CTL1     1  0.345668702638  0.236682781799
 BRGR1   CTL2     1  0.345668702638  0.236682781799
 BRGR1   CTL3     1  0.345668702638  0.236682781799
 BRGR1   CTL5     1  0.345668702638  0.236682781799
 BRGR1   CTO1     1  0.345668702638  0.236682781799
 BRGR1   CTO2     1  0.345668702638  0.236682781799
 BRGR1   HGP3     1  0.264596919288  1.004160000000
 BRGR1     HP     1  0.297399810090  0.409946603352
 BRGR1      N     1  0.341214209048  0.023668278180
 BRGR1    NC2     1  0.326068930839  4.602400000000
 BRGR1  NC2D1     1  0.314487247504  1.058477578412
 BRGR1  NG2P1     1  0.326068930839  4.602400000000
 BRGR1 NG2R50     1  0.321614437249  0.920480000000
 BRGR1 NG2R51     1  0.338541512893  3.012480000000
 BRGR1  NG2S0     1  0.341214209048  0.023668278180
 BRGR1  NG2S1     1  0.358141284692  1.255200000000
 BRGR1  NG2S2     1  0.360813980847  1.255200000000
 BRGR1  NG3P3     1  0.296669273141 15.271600000000
 BRGR1    NH1     1  0.358141284692  1.255200000000
 BRGR1    NH2     1  0.360813980847  1.255200000000
 BRGR1    NH3     1  0.296669273141 15.271600000000
 BRGR1   NH3L     1  0.296669273141 15.271600000000
 BRGR1    NHL     1  0.314487247504  1.058477578412
 BRGR1    NN1     1  0.360813980847  1.255200000000
 BRGR1    NN2     1  0.338541512893  3.012480000000
 BRGR1   NN2G     1  0.338541512893  3.012480000000
 BRGR1   NN2U     1  0.338541512893  3.012480000000
 BRGR1    NN3     1  0.321614437249  0.920480000000
 BRGR1   NN3A     1  0.321614437249  0.920480000000
 BRGR1   NN3G     1  0.321614437249  0.920480000000
 BRGR1    NN4     1  0.321614437249  0.920480000000
 BRGR1    NR1     1  0.338541512893  3.012480000000
 BRGR1    NR2     1  0.321614437249  0.920480000000
 BRGR1     NY     1  0.338541512893  3.012480000000
 BRGR1      O     1  0.313596348785  1.129680000000
 BRGR1     OB     1  0.301123766731  0.819893206704
 BRGR1    OBL     1  0.313596348785  1.129680000000
 BRGR1     OC     1  0.265487818006  5.230000000000
 BRGR1  OC2D1     1  0.301123766731  0.819893206704
 BRGR1  OC2D2     1  0.265487818006  5.230000000000
 BRGR1  OC2D3     1  0.313596348785  1.129680000000
 BRGR1  OC2D4     1  0.313596348785  1.129680000000
 BRGR1    OCA     1  0.301123766731  0.819893206704
 BRGR1    OCL     1  0.265487818006  5.230000000000
 BRGR1  OG2D1     1  0.313596348785  1.129680000000
 BRGR1  OG2D2     1  0.265487818006  5.230000000000
 BRGR1  OG2D3     1  0.301123766731  0.819893206704
 BRGR1   OLG1     1  0.301123766731  0.819893206704
 BRGR1    ON1     1  0.313596348785  1.129680000000
 BRGR1   ON1C     1  0.313596348785  1.129680000000
 BRGR1  SG311     1  0.329632525712  2.050160000000
     C  CC301     1  0.347450500075  0.138767581228
     C CC3051     1  0.347450500075  0.138767581228
     C CC3062     1  0.347450500075  0.138767581228
     C  CC30A     1  0.347450500075  0.138767581228
     C  CC311     1  0.347450500075  0.138767581228
     C CC311C     1  0.347450500075  0.138767581228
     C CC311D     1  0.347450500075  0.138767581228
     C  CC312     1  0.347450500075  0.138767581228
     C CC312C     1  0.347450500075  0.138767581228
     C CC312D     1  0.347450500075  0.138767581228
     C CC3151     1  0.347450500075  0.138767581228
     C CC3152     1  0.347450500075  0.138767581228
     C CC3153     1  0.347450500075  0.138767581228
     C CC3161     1  0.347450500075  0.138767581228
     C CC3162     1  0.347450500075  0.138767581228
     C CC3163     1  0.347450500075  0.138767581228
     C  CC31A     1  0.347450500075  0.138767581228
     C  CC321     1  0.347450500075  0.138767581228
     C CC321C     1  0.347450500075  0.138767581228
     C CC321D     1  0.347450500075  0.138767581228
     C  CC322     1  0.347450500075  0.138767581228
     C CC322C     1  0.347450500075  0.138767581228
     C CC3251     1  0.347450500075  0.138767581228
     C CC325A     1  0.347450500075  0.138767581228
     C CC325B     1  0.347450500075  0.138767581228
     C CC3261     1  0.347450500075  0.138767581228
     C CC3263     1  0.347450500075  0.138767581228
     C CC326A     1  0.347450500075  0.138767581228
     C  CC32A     1  0.347450500075  0.138767581228
     C  CC331     1  0.347450500075  0.138767581228
     C  CC33A     1  0.347450500075  0.138767581228
     C  CG301     1  0.347450500075  0.138767581228
     C  CG311     1  0.347450500075  0.138767581228
     C  CG314     1  0.347450500075  0.138767581228
     C  CG321     1  0.347450500075  0.138767581228
     C  CG324     1  0.347450500075  0.138767581228
     C  CG331     1  0.347450500075  0.138767581228
     C  CG334     1  0.347450500075  0.138767581228
     C CG3C31     1  0.347450500075  0.138767581228
     C CG3C41     1  0.347450500075  0.138767581228
     C CG3C50     1  0.347450500075  0.138767581228
     C CG3C51     1  0.347450500075  0.138767581228
     C CG3C52     1  0.347450500075  0.138767581228
     C CG3C53     1  0.347450500075  0.138767581228
     C CG3C54     1  0.347450500075  0.138767581228
     C CG3RC1     1  0.347450500075  0.138767581228
     C  CLG11     1  0.347450500075  0.138767581228
     C  CLG12     1  0.347450500075  0.138767581228
     C  CLG13     1  0.347450500075  0.138767581228
     C  CLG14     1  0.347450500075  0.138767581228
     C  CLG15     1  0.347450500075  0.138767581228
     C  CLG16     1  0.347450500075  0.138767581228
     C    CN6     1  0.347450500075  0.138767581228
     C    CN7     1  0.347450500075  0.138767581228
     C   CN7B     1  0.347450500075  0.138767581228
     C   CN7E     1  0.347450500075  0.138767581228
     C    CN8     1  0.347450500075  0.138767581228
     C   CN8B     1  0.347450500075  0.138767581228
     C    CN9     1  0.347450500075  0.138767581228
     C    CP1     1  0.347450500075  0.138767581228
     C    CP2     1  0.347450500075  0.138767581228
     C    CP3     1  0.347450500075  0.138767581228
     C   CPD1     1  0.347450500075  0.138767581228
     C   CR33     1  0.347450500075  0.138767581228
     C   CRL1     1  0.347450500075  0.138767581228
     C   CRL2     1  0.347450500075  0.138767581228
     C     CT     1  0.347450500075  0.138767581228
     C    CT1     1  0.347450500075  0.138767581228
     C   CT1X     1  0.347450500075  0.138767581228
     C    CT2     1  0.347450500075  0.138767581228
     C   CT2A     1  0.347450500075  0.138767581228
     C   CT2P     1  0.347450500075  0.138767581228
     C   CT2X     1  0.347450500075  0.138767581228
     C    CT3     1  0.347450500075  0.138767581228
     C   CT3X     1  0.347450500075  0.138767581228
     C   CTD1     1  0.347450500075  0.138767581228
     C   CTL1     1  0.347450500075  0.138767581228
     C   CTL2     1  0.347450500075  0.138767581228
     C   CTL3     1  0.347450500075  0.138767581228
     C   CTL5     1  0.347450500075  0.138767581228
     C   CTO1     1  0.347450500075  0.138767581228
     C   CTO2     1  0.347450500075  0.138767581228
     C     HP     1  0.299181607526  0.240352501131
     C      N     1  0.342996006484  0.013876758123
     C  NC2D1     1  0.316269044940  0.620587489400
     C  NG2S0     1  0.342996006484  0.013876758123
     C  NG2S1     1  0.316269044940  0.620587489400
     C    NH1     1  0.316269044940  0.620587489400
     C    NHL     1  0.316269044940  0.620587489400
     C      O     1  0.302905564168  0.480705002262
     C     OB     1  0.302905564168  0.480705002262
     C    OBL     1  0.302905564168  0.480705002262
     C  OC2D1     1  0.302905564168  0.480705002262
     C  OC2D3     1  0.302905564168  0.480705002262
     C  OC2D4     1  0.302905564168  0.480705002262
     C    OCA     1  0.302905564168  0.480705002262
     C  OG2D1     1  0.302905564168  0.480705002262
     C  OG2D3     1  0.302905564168  0.480705002262
     C   OLG1     1  0.302905564168  0.480705002262
    C3  CC301     1  0.371950214824  0.059170695450
    C3 CC3051     1  0.371950214824  0.059170695450
    C3 CC3062     1  0.371950214824  0.059170695450
    C3  CC30A     1  0.371950214824  0.059170695450
    C3  CC311     1  0.371950214824  0.059170695450
    C3 CC311C     1  0.371950214824  0.059170695450
    C3 CC311D     1  0.371950214824  0.059170695450
    C3  CC312     1  0.371950214824  0.059170695450
    C3 CC312C     1  0.371950214824  0.059170695450
    C3 CC312D     1  0.371950214824  0.059170695450
    C3 CC3151     1  0.371950214824  0.059170695450
    C3 CC3152     1  0.371950214824  0.059170695450
    C3 CC3153     1  0.371950214824  0.059170695450
    C3 CC3161     1  0.371950214824  0.059170695450
    C3 CC3162     1  0.371950214824  0.059170695450
    C3 CC3163     1  0.371950214824  0.059170695450
    C3  CC31A     1  0.371950214824  0.059170695450
    C3  CC321     1  0.371950214824  0.059170695450
    C3 CC321C     1  0.371950214824  0.059170695450
    C3 CC321D     1  0.371950214824  0.059170695450
    C3  CC322     1  0.371950214824  0.059170695450
    C3 CC322C     1  0.371950214824  0.059170695450
    C3 CC3251     1  0.371950214824  0.059170695450
    C3 CC325A     1  0.371950214824  0.059170695450
    C3 CC325B     1  0.371950214824  0.059170695450
    C3 CC3261     1  0.371950214824  0.059170695450
    C3 CC3263     1  0.371950214824  0.059170695450
    C3 CC326A     1  0.371950214824  0.059170695450
    C3  CC32A     1  0.371950214824  0.059170695450
    C3  CC331     1  0.371950214824  0.059170695450
    C3  CC33A     1  0.371950214824  0.059170695450
    C3  CG301     1  0.371950214824  0.059170695450
    C3  CG311     1  0.371950214824  0.059170695450
    C3  CG314     1  0.371950214824  0.059170695450
    C3  CG321     1  0.371950214824  0.059170695450
    C3  CG324     1  0.371950214824  0.059170695450
    C3  CG331     1  0.371950214824  0.059170695450
    C3  CG334     1  0.371950214824  0.059170695450
    C3 CG3C31     1  0.371950214824  0.059170695450
    C3 CG3C41     1  0.371950214824  0.059170695450
    C3 CG3C50     1  0.371950214824  0.059170695450
    C3 CG3C51     1  0.371950214824  0.059170695450
    C3 CG3C52     1  0.371950214824  0.059170695450
    C3 CG3C53     1  0.371950214824  0.059170695450
    C3 CG3C54     1  0.371950214824  0.059170695450
    C3 CG3RC1     1  0.371950214824  0.059170695450
    C3  CLG11     1  0.371950214824  0.059170695450
    C3  CLG12     1  0.371950214824  0.059170695450
    C3  CLG13     1  0.371950214824  0.059170695450
    C3  CLG14     1  0.371950214824  0.059170695450
    C3  CLG15     1  0.371950214824  0.059170695450
    C3  CLG16     1  0.371950214824  0.059170695450
    C3    CN6     1  0.371950214824  0.059170695450
    C3    CN7     1  0.371950214824  0.059170695450
    C3   CN7B     1  0.371950214824  0.059170695450
    C3   CN7E     1  0.371950214824  0.059170695450
    C3    CN8     1  0.371950214824  0.059170695450
    C3   CN8B     1  0.371950214824  0.059170695450
    C3    CN9     1  0.371950214824  0.059170695450
    C3    CP1     1  0.371950214824  0.059170695450
    C3    CP2     1  0.371950214824  0.059170695450
    C3    CP3     1  0.371950214824  0.059170695450
    C3   CPD1     1  0.371950214824  0.059170695450
    C3   CR33     1  0.371950214824  0.059170695450
    C3   CRL1     1  0.371950214824  0.059170695450
    C3   CRL2     1  0.371950214824  0.059170695450
    C3     CT     1  0.371950214824  0.059170695450
    C3    CT1     1  0.371950214824  0.059170695450
    C3   CT1X     1  0.371950214824  0.059170695450
    C3    CT2     1  0.371950214824  0.059170695450
    C3   CT2A     1  0.371950214824  0.059170695450
    C3   CT2P     1  0.371950214824  0.059170695450
    C3   CT2X     1  0.371950214824  0.059170695450
    C3    CT3     1  0.371950214824  0.059170695450
    C3   CT3X     1  0.371950214824  0.059170695450
    C3   CTD1     1  0.371950214824  0.059170695450
    C3   CTL1     1  0.371950214824  0.059170695450
    C3   CTL2     1  0.371950214824  0.059170695450
    C3   CTL3     1  0.371950214824  0.059170695450
    C3   CTL5     1  0.371950214824  0.059170695450
    C3   CTO1     1  0.371950214824  0.059170695450
    C3   CTO2     1  0.371950214824  0.059170695450
    C3     HP     1  0.323681322275  0.102486650838
    C3      N     1  0.367495721233  0.005917069545
    C3  NC2D1     1  0.340768759689  0.264619394603
    C3  NG2S0     1  0.367495721233  0.005917069545
    C3  NG2S1     1  0.340768759689  0.264619394603
    C3    NH1     1  0.340768759689  0.264619394603
    C3    NHL     1  0.340768759689  0.264619394603
    C3      O     1  0.327405278917  0.204973301676
    C3     OB     1  0.327405278917  0.204973301676
    C3    OBL     1  0.327405278917  0.204973301676
    C3  OC2D1     1  0.327405278917  0.204973301676
    C3  OC2D3     1  0.327405278917  0.204973301676
    C3  OC2D4     1  0.327405278917  0.204973301676
    C3    OCA     1  0.327405278917  0.204973301676
    C3  OG2D1     1  0.327405278917  0.204973301676
    C3  OG2D3     1  0.327405278917  0.204973301676
    C3   OLG1     1  0.327405278917  0.204973301676
    CA  CC301     1  0.346773417049  0.110698234855
    CA CC3051     1  0.346773417049  0.110698234855
    CA CC3062     1  0.346773417049  0.110698234855
    CA  CC30A     1  0.346773417049  0.110698234855
    CA  CC311     1  0.346773417049  0.110698234855
    CA CC311C     1  0.346773417049  0.110698234855
    CA CC311D     1  0.346773417049  0.110698234855
    CA  CC312     1  0.346773417049  0.110698234855
    CA CC312C     1  0.346773417049  0.110698234855
    CA CC312D     1  0.346773417049  0.110698234855
    CA CC3151     1  0.346773417049  0.110698234855
    CA CC3152     1  0.346773417049  0.110698234855
    CA CC3153     1  0.346773417049  0.110698234855
    CA CC3161     1  0.346773417049  0.110698234855
    CA CC3162     1  0.346773417049  0.110698234855
    CA CC3163     1  0.346773417049  0.110698234855
    CA  CC31A     1  0.346773417049  0.110698234855
    CA  CC321     1  0.346773417049  0.110698234855
    CA CC321C     1  0.346773417049  0.110698234855
    CA CC321D     1  0.346773417049  0.110698234855
    CA  CC322     1  0.346773417049  0.110698234855
    CA CC322C     1  0.346773417049  0.110698234855
    CA CC3251     1  0.346773417049  0.110698234855
    CA CC325A     1  0.346773417049  0.110698234855
    CA CC325B     1  0.346773417049  0.110698234855
    CA CC3261     1  0.346773417049  0.110698234855
    CA CC3263     1  0.346773417049  0.110698234855
    CA CC326A     1  0.346773417049  0.110698234855
    CA  CC32A     1  0.346773417049  0.110698234855
    CA  CC331     1  0.346773417049  0.110698234855
    CA  CC33A     1  0.346773417049  0.110698234855
    CA  CG301     1  0.346773417049  0.110698234855
    CA  CG311     1  0.346773417049  0.110698234855
    CA  CG314     1  0.346773417049  0.110698234855
    CA  CG321     1  0.346773417049  0.110698234855
    CA  CG324     1  0.346773417049  0.110698234855
    CA  CG331     1  0.346773417049  0.110698234855
    CA  CG334     1  0.346773417049  0.110698234855
    CA CG3C31     1  0.346773417049  0.110698234855
    CA CG3C41     1  0.346773417049  0.110698234855
    CA CG3C50     1  0.346773417049  0.110698234855
    CA CG3C51     1  0.346773417049  0.110698234855
    CA CG3C52     1  0.346773417049  0.110698234855
    CA CG3C53     1  0.346773417049  0.110698234855
    CA CG3C54     1  0.346773417049  0.110698234855
    CA CG3RC1     1  0.346773417049  0.110698234855
    CA  CLG11     1  0.346773417049  0.110698234855
    CA  CLG12     1  0.346773417049  0.110698234855
    CA  CLG13     1  0.346773417049  0.110698234855
    CA  CLG14     1  0.346773417049  0.110698234855
    CA  CLG15     1  0.346773417049  0.110698234855
    CA  CLG16     1  0.346773417049  0.110698234855
    CA    CN6     1  0.346773417049  0.110698234855
    CA    CN7     1  0.346773417049  0.110698234855
    CA   CN7B     1  0.346773417049  0.110698234855
    CA   CN7E     1  0.346773417049  0.110698234855
    CA    CN8     1  0.346773417049  0.110698234855
    CA   CN8B     1  0.346773417049  0.110698234855
    CA    CN9     1  0.346773417049  0.110698234855
    CA    CP1     1  0.346773417049  0.110698234855
    CA    CP2     1  0.346773417049  0.110698234855
    CA    CP3     1  0.346773417049  0.110698234855
    CA   CPD1     1  0.346773417049  0.110698234855
    CA   CR33     1  0.346773417049  0.110698234855
    CA   CRL1     1  0.346773417049  0.110698234855
    CA   CRL2     1  0.346773417049  0.110698234855
    CA     CT     1  0.346773417049  0.110698234855
    CA    CT1     1  0.346773417049  0.110698234855
    CA   CT1X     1  0.346773417049  0.110698234855
    CA    CT2     1  0.346773417049  0.110698234855
    CA   CT2A     1  0.346773417049  0.110698234855
    CA   CT2P     1  0.346773417049  0.110698234855
    CA   CT2X     1  0.346773417049  0.110698234855
    CA    CT3     1  0.346773417049  0.110698234855
    CA   CT3X     1  0.346773417049  0.110698234855
    CA   CTD1     1  0.346773417049  0.110698234855
    CA   CTL1     1  0.346773417049  0.110698234855
    CA   CTL2     1  0.346773417049  0.110698234855
    CA   CTL3     1  0.346773417049  0.110698234855
    CA   CTL5     1  0.346773417049  0.110698234855
    CA   CTO1     1  0.346773417049  0.110698234855
    CA   CTO2     1  0.346773417049  0.110698234855
    CA     HP     1  0.298504524500  0.191734967077
    CA      N     1  0.342318923458  0.011069823485
    CA  NC2D1     1  0.315591961914  0.495057556250
    CA  NG2S0     1  0.342318923458  0.011069823485
    CA  NG2S1     1  0.315591961914  0.495057556250
    CA    NH1     1  0.315591961914  0.495057556250
    CA    NHL     1  0.315591961914  0.495057556250
    CA      O     1  0.302228481142  0.383469934154
    CA     OB     1  0.302228481142  0.383469934154
    CA    OBL     1  0.302228481142  0.383469934154
    CA  OC2D1     1  0.302228481142  0.383469934154
    CA  OC2D3     1  0.302228481142  0.383469934154
    CA  OC2D4     1  0.302228481142  0.383469934154
    CA    OCA     1  0.302228481142  0.383469934154
    CA  OG2D1     1  0.302228481142  0.383469934154
    CA  OG2D3     1  0.302228481142  0.383469934154
    CA   OLG1     1  0.302228481142  0.383469934154
   CAD  CC301     1  0.290165712498  0.144938011577
   CAD CC3051     1  0.290165712498  0.144938011577
   CAD CC3062     1  0.290165712498  0.144938011577
   CAD  CC30A     1  0.290165712498  0.144938011577
   CAD  CC311     1  0.290165712498  0.144938011577
   CAD CC311C     1  0.290165712498  0.144938011577
   CAD CC311D     1  0.290165712498  0.144938011577
   CAD  CC312     1  0.290165712498  0.144938011577
   CAD CC312C     1  0.290165712498  0.144938011577
   CAD CC312D     1  0.290165712498  0.144938011577
   CAD CC3151     1  0.290165712498  0.144938011577
   CAD CC3152     1  0.290165712498  0.144938011577
   CAD CC3153     1  0.290165712498  0.144938011577
   CAD CC3161     1  0.290165712498  0.144938011577
   CAD CC3162     1  0.290165712498  0.144938011577
   CAD CC3163     1  0.290165712498  0.144938011577
   CAD  CC31A     1  0.290165712498  0.144938011577
   CAD  CC321     1  0.290165712498  0.144938011577
   CAD CC321C     1  0.290165712498  0.144938011577
   CAD CC321D     1  0.290165712498  0.144938011577
   CAD  CC322     1  0.290165712498  0.144938011577
   CAD CC322C     1  0.290165712498  0.144938011577
   CAD CC3251     1  0.290165712498  0.144938011577
   CAD CC325A     1  0.290165712498  0.144938011577
   CAD CC325B     1  0.290165712498  0.144938011577
   CAD CC3261     1  0.290165712498  0.144938011577
   CAD CC3263     1  0.290165712498  0.144938011577
   CAD CC326A     1  0.290165712498  0.144938011577
   CAD  CC32A     1  0.290165712498  0.144938011577
   CAD  CC331     1  0.290165712498  0.144938011577
   CAD  CC33A     1  0.290165712498  0.144938011577
   CAD  CG301     1  0.290165712498  0.144938011577
   CAD  CG311     1  0.290165712498  0.144938011577
   CAD  CG314     1  0.290165712498  0.144938011577
   CAD  CG321     1  0.290165712498  0.144938011577
   CAD  CG324     1  0.290165712498  0.144938011577
   CAD  CG331     1  0.290165712498  0.144938011577
   CAD  CG334     1  0.290165712498  0.144938011577
   CAD CG3C31     1  0.290165712498  0.144938011577
   CAD CG3C41     1  0.290165712498  0.144938011577
   CAD CG3C50     1  0.290165712498  0.144938011577
   CAD CG3C51     1  0.290165712498  0.144938011577
   CAD CG3C52     1  0.290165712498  0.144938011577
   CAD CG3C53     1  0.290165712498  0.144938011577
   CAD CG3C54     1  0.290165712498  0.144938011577
   CAD CG3RC1     1  0.290165712498  0.144938011577
   CAD  CLG11     1  0.290165712498  0.144938011577
   CAD  CLG12     1  0.290165712498  0.144938011577
   CAD  CLG13     1  0.290165712498  0.144938011577
   CAD  CLG14     1  0.290165712498  0.144938011577
   CAD  CLG15     1  0.290165712498  0.144938011577
   CAD  CLG16     1  0.290165712498  0.144938011577
   CAD    CN6     1  0.290165712498  0.144938011577
   CAD    CN7     1  0.290165712498  0.144938011577
   CAD   CN7B     1  0.290165712498  0.144938011577
   CAD   CN7E     1  0.290165712498  0.144938011577
   CAD    CN8     1  0.290165712498  0.144938011577
   CAD   CN8B     1  0.290165712498  0.144938011577
   CAD    CN9     1  0.290165712498  0.144938011577
   CAD    CP1     1  0.290165712498  0.144938011577
   CAD    CP2     1  0.290165712498  0.144938011577
   CAD    CP3     1  0.290165712498  0.144938011577
   CAD   CPD1     1  0.290165712498  0.144938011577
   CAD   CR33     1  0.290165712498  0.144938011577
   CAD   CRL1     1  0.290165712498  0.144938011577
   CAD   CRL2     1  0.290165712498  0.144938011577
   CAD     CT     1  0.290165712498  0.144938011577
   CAD    CT1     1  0.290165712498  0.144938011577
   CAD   CT1X     1  0.290165712498  0.144938011577
   CAD    CT2     1  0.290165712498  0.144938011577
   CAD   CT2A     1  0.290165712498  0.144938011577
   CAD   CT2P     1  0.290165712498  0.144938011577
   CAD   CT2X     1  0.290165712498  0.144938011577
   CAD    CT3     1  0.290165712498  0.144938011577
   CAD   CT3X     1  0.290165712498  0.144938011577
   CAD   CTD1     1  0.290165712498  0.144938011577
   CAD   CTL1     1  0.290165712498  0.144938011577
   CAD   CTL2     1  0.290165712498  0.144938011577
   CAD   CTL3     1  0.290165712498  0.144938011577
   CAD   CTL5     1  0.290165712498  0.144938011577
   CAD   CTO1     1  0.290165712498  0.144938011577
   CAD   CTO2     1  0.290165712498  0.144938011577
   CAD     HP     1  0.241896819949  0.251040000000
   CAD      N     1  0.285711218908  0.014493801158
   CAD  NC2D1     1  0.258984257363  0.648182492821
   CAD  NG2S0     1  0.285711218908  0.014493801158
   CAD  NG2S1     1  0.258984257363  0.648182492821
   CAD    NH1     1  0.258984257363  0.648182492821
   CAD    NHL     1  0.258984257363  0.648182492821
   CAD      O     1  0.245620776591  0.502080000000
   CAD     OB     1  0.245620776591  0.502080000000
   CAD    OBL     1  0.245620776591  0.502080000000
   CAD  OC2D1     1  0.245620776591  0.502080000000
   CAD  OC2D3     1  0.245620776591  0.502080000000
   CAD  OC2D4     1  0.245620776591  0.502080000000
   CAD    OCA     1  0.245620776591  0.502080000000
   CAD  OG2D1     1  0.245620776591  0.502080000000
   CAD  OG2D3     1  0.245620776591  0.502080000000
   CAD   OLG1     1  0.245620776591  0.502080000000
   CAI  CC301     1  0.346559601357  0.113045454929
   CAI CC3051     1  0.346559601357  0.113045454929
   CAI CC3062     1  0.346559601357  0.113045454929
   CAI  CC30A     1  0.346559601357  0.113045454929
   CAI  CC311     1  0.346559601357  0.113045454929
   CAI CC311C     1  0.346559601357  0.113045454929
   CAI CC311D     1  0.346559601357  0.113045454929
   CAI  CC312     1  0.346559601357  0.113045454929
   CAI CC312C     1  0.346559601357  0.113045454929
   CAI CC312D     1  0.346559601357  0.113045454929
   CAI CC3151     1  0.346559601357  0.113045454929
   CAI CC3152     1  0.346559601357  0.113045454929
   CAI CC3153     1  0.346559601357  0.113045454929
   CAI CC3161     1  0.346559601357  0.113045454929
   CAI CC3162     1  0.346559601357  0.113045454929
   CAI CC3163     1  0.346559601357  0.113045454929
   CAI  CC31A     1  0.346559601357  0.113045454929
   CAI  CC321     1  0.346559601357  0.113045454929
   CAI CC321C     1  0.346559601357  0.113045454929
   CAI CC321D     1  0.346559601357  0.113045454929
   CAI  CC322     1  0.346559601357  0.113045454929
   CAI CC322C     1  0.346559601357  0.113045454929
   CAI CC3251     1  0.346559601357  0.113045454929
   CAI CC325A     1  0.346559601357  0.113045454929
   CAI CC325B     1  0.346559601357  0.113045454929
   CAI CC3261     1  0.346559601357  0.113045454929
   CAI CC3263     1  0.346559601357  0.113045454929
   CAI CC326A     1  0.346559601357  0.113045454929
   CAI  CC32A     1  0.346559601357  0.113045454929
   CAI  CC331     1  0.346559601357  0.113045454929
   CAI  CC33A     1  0.346559601357  0.113045454929
   CAI  CG301     1  0.346559601357  0.113045454929
   CAI  CG311     1  0.346559601357  0.113045454929
   CAI  CG314     1  0.346559601357  0.113045454929
   CAI  CG321     1  0.346559601357  0.113045454929
   CAI  CG324     1  0.346559601357  0.113045454929
   CAI  CG331     1  0.346559601357  0.113045454929
   CAI  CG334     1  0.346559601357  0.113045454929
   CAI CG3C31     1  0.346559601357  0.113045454929
   CAI CG3C41     1  0.346559601357  0.113045454929
   CAI CG3C50     1  0.346559601357  0.113045454929
   CAI CG3C51     1  0.346559601357  0.113045454929
   CAI CG3C52     1  0.346559601357  0.113045454929
   CAI CG3C53     1  0.346559601357  0.113045454929
   CAI CG3C54     1  0.346559601357  0.113045454929
   CAI CG3RC1     1  0.346559601357  0.113045454929
   CAI  CLG11     1  0.346559601357  0.113045454929
   CAI  CLG12     1  0.346559601357  0.113045454929
   CAI  CLG13     1  0.346559601357  0.113045454929
   CAI  CLG14     1  0.346559601357  0.113045454929
   CAI  CLG15     1  0.346559601357  0.113045454929
   CAI  CLG16     1  0.346559601357  0.113045454929
   CAI    CN6     1  0.346559601357  0.113045454929
   CAI    CN7     1  0.346559601357  0.113045454929
   CAI   CN7B     1  0.346559601357  0.113045454929
   CAI   CN7E     1  0.346559601357  0.113045454929
   CAI    CN8     1  0.346559601357  0.113045454929
   CAI   CN8B     1  0.346559601357  0.113045454929
   CAI    CN9     1  0.346559601357  0.113045454929
   CAI    CP1     1  0.346559601357  0.113045454929
   CAI    CP2     1  0.346559601357  0.113045454929
   CAI    CP3     1  0.346559601357  0.113045454929
   CAI   CPD1     1  0.346559601357  0.113045454929
   CAI   CR33     1  0.346559601357  0.113045454929
   CAI   CRL1     1  0.346559601357  0.113045454929
   CAI   CRL2     1  0.346559601357  0.113045454929
   CAI     CT     1  0.346559601357  0.113045454929
   CAI    CT1     1  0.346559601357  0.113045454929
   CAI   CT1X     1  0.346559601357  0.113045454929
   CAI    CT2     1  0.346559601357  0.113045454929
   CAI   CT2A     1  0.346559601357  0.113045454929
   CAI   CT2P     1  0.346559601357  0.113045454929
   CAI   CT2X     1  0.346559601357  0.113045454929
   CAI    CT3     1  0.346559601357  0.113045454929
   CAI   CT3X     1  0.346559601357  0.113045454929
   CAI   CTD1     1  0.346559601357  0.113045454929
   CAI   CTL1     1  0.346559601357  0.113045454929
   CAI   CTL2     1  0.346559601357  0.113045454929
   CAI   CTL3     1  0.346559601357  0.113045454929
   CAI   CTL5     1  0.346559601357  0.113045454929
   CAI   CTO1     1  0.346559601357  0.113045454929
   CAI   CTO2     1  0.346559601357  0.113045454929
   CAI     HP     1  0.298290708808  0.195800471501
   CAI      N     1  0.342105107766  0.011304545493
   CAI  NC2D1     1  0.315378146222  0.505554643535
   CAI  NG2S0     1  0.342105107766  0.011304545493
   CAI  NG2S1     1  0.315378146222  0.505554643535
   CAI    NH1     1  0.315378146222  0.505554643535
   CAI    NHL     1  0.315378146222  0.505554643535
   CAI      O     1  0.302014665450  0.391600943002
   CAI     OB     1  0.302014665450  0.391600943002
   CAI    OBL     1  0.302014665450  0.391600943002
   CAI  OC2D1     1  0.302014665450  0.391600943002
   CAI  OC2D3     1  0.302014665450  0.391600943002
   CAI  OC2D4     1  0.302014665450  0.391600943002
   CAI    OCA     1  0.302014665450  0.391600943002
   CAI  OG2D1     1  0.302014665450  0.391600943002
   CAI  OG2D3     1  0.302014665450  0.391600943002
   CAI   OLG1     1  0.302014665450  0.391600943002
   CAL  CC301     1  0.291056611216  0.144938011577
   CAL CC3051     1  0.291056611216  0.144938011577
   CAL CC3062     1  0.291056611216  0.144938011577
   CAL  CC30A     1  0.291056611216  0.144938011577
   CAL  CC311     1  0.291056611216  0.144938011577
   CAL CC311C     1  0.291056611216  0.144938011577
   CAL CC311D     1  0.291056611216  0.144938011577
   CAL  CC312     1  0.291056611216  0.144938011577
   CAL CC312C     1  0.291056611216  0.144938011577
   CAL CC312D     1  0.291056611216  0.144938011577
   CAL CC3151     1  0.291056611216  0.144938011577
   CAL CC3152     1  0.291056611216  0.144938011577
   CAL CC3153     1  0.291056611216  0.144938011577
   CAL CC3161     1  0.291056611216  0.144938011577
   CAL CC3162     1  0.291056611216  0.144938011577
   CAL CC3163     1  0.291056611216  0.144938011577
   CAL  CC31A     1  0.291056611216  0.144938011577
   CAL  CC321     1  0.291056611216  0.144938011577
   CAL CC321C     1  0.291056611216  0.144938011577
   CAL CC321D     1  0.291056611216  0.144938011577
   CAL  CC322     1  0.291056611216  0.144938011577
   CAL CC322C     1  0.291056611216  0.144938011577
   CAL CC3251     1  0.291056611216  0.144938011577
   CAL CC325A     1  0.291056611216  0.144938011577
   CAL CC325B     1  0.291056611216  0.144938011577
   CAL CC3261     1  0.291056611216  0.144938011577
   CAL CC3263     1  0.291056611216  0.144938011577
   CAL CC326A     1  0.291056611216  0.144938011577
   CAL  CC32A     1  0.291056611216  0.144938011577
   CAL  CC331     1  0.291056611216  0.144938011577
   CAL  CC33A     1  0.291056611216  0.144938011577
   CAL  CG301     1  0.291056611216  0.144938011577
   CAL  CG311     1  0.291056611216  0.144938011577
   CAL  CG314     1  0.291056611216  0.144938011577
   CAL  CG321     1  0.291056611216  0.144938011577
   CAL  CG324     1  0.291056611216  0.144938011577
   CAL  CG331     1  0.291056611216  0.144938011577
   CAL  CG334     1  0.291056611216  0.144938011577
   CAL CG3C31     1  0.291056611216  0.144938011577
   CAL CG3C41     1  0.291056611216  0.144938011577
   CAL CG3C50     1  0.291056611216  0.144938011577
   CAL CG3C51     1  0.291056611216  0.144938011577
   CAL CG3C52     1  0.291056611216  0.144938011577
   CAL CG3C53     1  0.291056611216  0.144938011577
   CAL CG3C54     1  0.291056611216  0.144938011577
   CAL CG3RC1     1  0.291056611216  0.144938011577
   CAL    CLA     1  0.332037952251  0.561342176000
   CAL  CLG11     1  0.291056611216  0.144938011577
   CAL  CLG12     1  0.291056611216  0.144938011577
   CAL  CLG13     1  0.291056611216  0.144938011577
   CAL  CLG14     1  0.291056611216  0.144938011577
   CAL  CLG15     1  0.291056611216  0.144938011577
   CAL  CLG16     1  0.291056611216  0.144938011577
   CAL    CN6     1  0.291056611216  0.144938011577
   CAL    CN7     1  0.291056611216  0.144938011577
   CAL   CN7B     1  0.291056611216  0.144938011577
   CAL   CN7E     1  0.291056611216  0.144938011577
   CAL    CN8     1  0.291056611216  0.144938011577
   CAL   CN8B     1  0.291056611216  0.144938011577
   CAL    CN9     1  0.291056611216  0.144938011577
   CAL    CP1     1  0.291056611216  0.144938011577
   CAL    CP2     1  0.291056611216  0.144938011577
   CAL    CP3     1  0.291056611216  0.144938011577
   CAL   CPD1     1  0.291056611216  0.144938011577
   CAL   CR33     1  0.291056611216  0.144938011577
   CAL   CRL1     1  0.291056611216  0.144938011577
   CAL   CRL2     1  0.291056611216  0.144938011577
   CAL     CT     1  0.291056611216  0.144938011577
   CAL    CT1     1  0.291056611216  0.144938011577
   CAL   CT1X     1  0.291056611216  0.144938011577
   CAL    CT2     1  0.291056611216  0.144938011577
   CAL   CT2A     1  0.291056611216  0.144938011577
   CAL   CT2P     1  0.291056611216  0.144938011577
   CAL   CT2X     1  0.291056611216  0.144938011577
   CAL    CT3     1  0.291056611216  0.144938011577
   CAL   CT3X     1  0.291056611216  0.144938011577
   CAL   CTD1     1  0.291056611216  0.144938011577
   CAL   CTL1     1  0.291056611216  0.144938011577
   CAL   CTL2     1  0.291056611216  0.144938011577
   CAL   CTL3     1  0.291056611216  0.144938011577
   CAL   CTL5     1  0.291056611216  0.144938011577
   CAL   CTO1     1  0.291056611216  0.144938011577
   CAL   CTO2     1  0.291056611216  0.144938011577
   CAL     HP     1  0.242787718668  0.251040000000
   CAL      N     1  0.286602117626  0.014493801158
   CAL  NC2D1     1  0.259875156082  0.648182492821
   CAL  NG2S0     1  0.286602117626  0.014493801158
   CAL  NG2S1     1  0.259875156082  0.648182492821
   CAL    NH1     1  0.259875156082  0.648182492821
   CAL    NHL     1  0.259875156082  0.648182492821
   CAL      O     1  0.246511675309  0.502080000000
   CAL    O2L     1  0.290076622626  0.502080000000
   CAL     OB     1  0.246511675309  0.502080000000
   CAL    OBL     1  0.246511675309  0.502080000000
   CAL     OC     1  0.287938465703  0.502080000000
   CAL  OC2D1     1  0.246511675309  0.502080000000
   CAL  OC2D2     1  0.287938465703  0.502080000000
   CAL  OC2D3     1  0.246511675309  0.502080000000
   CAL  OC2D4     1  0.246511675309  0.502080000000
   CAL  OC2DP     1  0.290076622626  0.502080000000
   CAL    OCA     1  0.246511675309  0.502080000000
   CAL    OCL     1  0.287938465703  0.502080000000
   CAL  OG2D1     1  0.246511675309  0.502080000000
   CAL  OG2D2     1  0.287938465703  0.502080000000
   CAL  OG2D3     1  0.246511675309  0.502080000000
   CAL  OG2P1     1  0.290076622626  0.502080000000
   CAL   OLG1     1  0.246511675309  0.502080000000
   CAP  CC301     1  0.346773417049  0.110698234855
   CAP CC3051     1  0.346773417049  0.110698234855
   CAP CC3062     1  0.346773417049  0.110698234855
   CAP  CC30A     1  0.346773417049  0.110698234855
   CAP  CC311     1  0.346773417049  0.110698234855
   CAP CC311C     1  0.346773417049  0.110698234855
   CAP CC311D     1  0.346773417049  0.110698234855
   CAP  CC312     1  0.346773417049  0.110698234855
   CAP CC312C     1  0.346773417049  0.110698234855
   CAP CC312D     1  0.346773417049  0.110698234855
   CAP CC3151     1  0.346773417049  0.110698234855
   CAP CC3152     1  0.346773417049  0.110698234855
   CAP CC3153     1  0.346773417049  0.110698234855
   CAP CC3161     1  0.346773417049  0.110698234855
   CAP CC3162     1  0.346773417049  0.110698234855
   CAP CC3163     1  0.346773417049  0.110698234855
   CAP  CC31A     1  0.346773417049  0.110698234855
   CAP  CC321     1  0.346773417049  0.110698234855
   CAP CC321C     1  0.346773417049  0.110698234855
   CAP CC321D     1  0.346773417049  0.110698234855
   CAP  CC322     1  0.346773417049  0.110698234855
   CAP CC322C     1  0.346773417049  0.110698234855
   CAP CC3251     1  0.346773417049  0.110698234855
   CAP CC325A     1  0.346773417049  0.110698234855
   CAP CC325B     1  0.346773417049  0.110698234855
   CAP CC3261     1  0.346773417049  0.110698234855
   CAP CC3263     1  0.346773417049  0.110698234855
   CAP CC326A     1  0.346773417049  0.110698234855
   CAP  CC32A     1  0.346773417049  0.110698234855
   CAP  CC331     1  0.346773417049  0.110698234855
   CAP  CC33A     1  0.346773417049  0.110698234855
   CAP  CG301     1  0.346773417049  0.110698234855
   CAP  CG311     1  0.346773417049  0.110698234855
   CAP  CG314     1  0.346773417049  0.110698234855
   CAP  CG321     1  0.346773417049  0.110698234855
   CAP  CG324     1  0.346773417049  0.110698234855
   CAP  CG331     1  0.346773417049  0.110698234855
   CAP  CG334     1  0.346773417049  0.110698234855
   CAP CG3C31     1  0.346773417049  0.110698234855
   CAP CG3C41     1  0.346773417049  0.110698234855
   CAP CG3C50     1  0.346773417049  0.110698234855
   CAP CG3C51     1  0.346773417049  0.110698234855
   CAP CG3C52     1  0.346773417049  0.110698234855
   CAP CG3C53     1  0.346773417049  0.110698234855
   CAP CG3C54     1  0.346773417049  0.110698234855
   CAP CG3RC1     1  0.346773417049  0.110698234855
   CAP  CLG11     1  0.346773417049  0.110698234855
   CAP  CLG12     1  0.346773417049  0.110698234855
   CAP  CLG13     1  0.346773417049  0.110698234855
   CAP  CLG14     1  0.346773417049  0.110698234855
   CAP  CLG15     1  0.346773417049  0.110698234855
   CAP  CLG16     1  0.346773417049  0.110698234855
   CAP    CN6     1  0.346773417049  0.110698234855
   CAP    CN7     1  0.346773417049  0.110698234855
   CAP   CN7B     1  0.346773417049  0.110698234855
   CAP   CN7E     1  0.346773417049  0.110698234855
   CAP    CN8     1  0.346773417049  0.110698234855
   CAP   CN8B     1  0.346773417049  0.110698234855
   CAP    CN9     1  0.346773417049  0.110698234855
   CAP    CP1     1  0.346773417049  0.110698234855
   CAP    CP2     1  0.346773417049  0.110698234855
   CAP    CP3     1  0.346773417049  0.110698234855
   CAP   CPD1     1  0.346773417049  0.110698234855
   CAP   CR33     1  0.346773417049  0.110698234855
   CAP   CRL1     1  0.346773417049  0.110698234855
   CAP   CRL2     1  0.346773417049  0.110698234855
   CAP     CT     1  0.346773417049  0.110698234855
   CAP    CT1     1  0.346773417049  0.110698234855
   CAP   CT1X     1  0.346773417049  0.110698234855
   CAP    CT2     1  0.346773417049  0.110698234855
   CAP   CT2A     1  0.346773417049  0.110698234855
   CAP   CT2P     1  0.346773417049  0.110698234855
   CAP   CT2X     1  0.346773417049  0.110698234855
   CAP    CT3     1  0.346773417049  0.110698234855
   CAP   CT3X     1  0.346773417049  0.110698234855
   CAP   CTD1     1  0.346773417049  0.110698234855
   CAP   CTL1     1  0.346773417049  0.110698234855
   CAP   CTL2     1  0.346773417049  0.110698234855
   CAP   CTL3     1  0.346773417049  0.110698234855
   CAP   CTL5     1  0.346773417049  0.110698234855
   CAP   CTO1     1  0.346773417049  0.110698234855
   CAP   CTO2     1  0.346773417049  0.110698234855
   CAP     HP     1  0.298504524500  0.191734967077
   CAP      N     1  0.342318923458  0.011069823485
   CAP  NC2D1     1  0.315591961914  0.495057556250
   CAP  NG2S0     1  0.342318923458  0.011069823485
   CAP  NG2S1     1  0.315591961914  0.495057556250
   CAP    NH1     1  0.315591961914  0.495057556250
   CAP    NHL     1  0.315591961914  0.495057556250
   CAP      O     1  0.302228481142  0.383469934154
   CAP     OB     1  0.302228481142  0.383469934154
   CAP    OBL     1  0.302228481142  0.383469934154
   CAP  OC2D1     1  0.302228481142  0.383469934154
   CAP  OC2D3     1  0.302228481142  0.383469934154
   CAP  OC2D4     1  0.302228481142  0.383469934154
   CAP    OCA     1  0.302228481142  0.383469934154
   CAP  OG2D1     1  0.302228481142  0.383469934154
   CAP  OG2D3     1  0.302228481142  0.383469934154
   CAP   OLG1     1  0.302228481142  0.383469934154
    CC  CC301     1  0.347450500075  0.110698234855
    CC CC3051     1  0.347450500075  0.110698234855
    CC CC3062     1  0.347450500075  0.110698234855
    CC  CC30A     1  0.347450500075  0.110698234855
    CC  CC311     1  0.347450500075  0.110698234855
    CC CC311C     1  0.347450500075  0.110698234855
    CC CC311D     1  0.347450500075  0.110698234855
    CC  CC312     1  0.347450500075  0.110698234855
    CC CC312C     1  0.347450500075  0.110698234855
    CC CC312D     1  0.347450500075  0.110698234855
    CC CC3151     1  0.347450500075  0.110698234855
    CC CC3152     1  0.347450500075  0.110698234855
    CC CC3153     1  0.347450500075  0.110698234855
    CC CC3161     1  0.347450500075  0.110698234855
    CC CC3162     1  0.347450500075  0.110698234855
    CC CC3163     1  0.347450500075  0.110698234855
    CC  CC31A     1  0.347450500075  0.110698234855
    CC  CC321     1  0.347450500075  0.110698234855
    CC CC321C     1  0.347450500075  0.110698234855
    CC CC321D     1  0.347450500075  0.110698234855
    CC  CC322     1  0.347450500075  0.110698234855
    CC CC322C     1  0.347450500075  0.110698234855
    CC CC3251     1  0.347450500075  0.110698234855
    CC CC325A     1  0.347450500075  0.110698234855
    CC CC325B     1  0.347450500075  0.110698234855
    CC CC3261     1  0.347450500075  0.110698234855
    CC CC3263     1  0.347450500075  0.110698234855
    CC CC326A     1  0.347450500075  0.110698234855
    CC  CC32A     1  0.347450500075  0.110698234855
    CC  CC331     1  0.347450500075  0.110698234855
    CC  CC33A     1  0.347450500075  0.110698234855
    CC  CG301     1  0.347450500075  0.110698234855
    CC  CG311     1  0.347450500075  0.110698234855
    CC  CG314     1  0.347450500075  0.110698234855
    CC  CG321     1  0.347450500075  0.110698234855
    CC  CG324     1  0.347450500075  0.110698234855
    CC  CG331     1  0.347450500075  0.110698234855
    CC  CG334     1  0.347450500075  0.110698234855
    CC CG3C31     1  0.347450500075  0.110698234855
    CC CG3C41     1  0.347450500075  0.110698234855
    CC CG3C50     1  0.347450500075  0.110698234855
    CC CG3C51     1  0.347450500075  0.110698234855
    CC CG3C52     1  0.347450500075  0.110698234855
    CC CG3C53     1  0.347450500075  0.110698234855
    CC CG3C54     1  0.347450500075  0.110698234855
    CC CG3RC1     1  0.347450500075  0.110698234855
    CC  CLG11     1  0.347450500075  0.110698234855
    CC  CLG12     1  0.347450500075  0.110698234855
    CC  CLG13     1  0.347450500075  0.110698234855
    CC  CLG14     1  0.347450500075  0.110698234855
    CC  CLG15     1  0.347450500075  0.110698234855
    CC  CLG16     1  0.347450500075  0.110698234855
    CC    CN6     1  0.347450500075  0.110698234855
    CC    CN7     1  0.347450500075  0.110698234855
    CC   CN7B     1  0.347450500075  0.110698234855
    CC   CN7E     1  0.347450500075  0.110698234855
    CC    CN8     1  0.347450500075  0.110698234855
    CC   CN8B     1  0.347450500075  0.110698234855
    CC    CN9     1  0.347450500075  0.110698234855
    CC    CP1     1  0.347450500075  0.110698234855
    CC    CP2     1  0.347450500075  0.110698234855
    CC    CP3     1  0.347450500075  0.110698234855
    CC   CPD1     1  0.347450500075  0.110698234855
    CC   CR33     1  0.347450500075  0.110698234855
    CC   CRL1     1  0.347450500075  0.110698234855
    CC   CRL2     1  0.347450500075  0.110698234855
    CC     CT     1  0.347450500075  0.110698234855
    CC    CT1     1  0.347450500075  0.110698234855
    CC   CT1X     1  0.347450500075  0.110698234855
    CC    CT2     1  0.347450500075  0.110698234855
    CC   CT2A     1  0.347450500075  0.110698234855
    CC   CT2P     1  0.347450500075  0.110698234855
    CC   CT2X     1  0.347450500075  0.110698234855
    CC    CT3     1  0.347450500075  0.110698234855
    CC   CT3X     1  0.347450500075  0.110698234855
    CC   CTD1     1  0.347450500075  0.110698234855
    CC   CTL1     1  0.347450500075  0.110698234855
    CC   CTL2     1  0.347450500075  0.110698234855
    CC   CTL3     1  0.347450500075  0.110698234855
    CC   CTL5     1  0.347450500075  0.110698234855
    CC   CTO1     1  0.347450500075  0.110698234855
    CC   CTO2     1  0.347450500075  0.110698234855
    CC     HP     1  0.299181607526  0.191734967077
    CC      N     1  0.342996006484  0.011069823485
    CC  NC2D1     1  0.316269044940  0.495057556250
    CC  NG2S0     1  0.342996006484  0.011069823485
    CC  NG2S1     1  0.316269044940  0.495057556250
    CC    NH1     1  0.316269044940  0.495057556250
    CC    NHL     1  0.316269044940  0.495057556250
    CC      O     1  0.302905564168  0.383469934154
    CC     OB     1  0.302905564168  0.383469934154
    CC    OBL     1  0.302905564168  0.383469934154
    CC  OC2D1     1  0.302905564168  0.383469934154
    CC  OC2D3     1  0.302905564168  0.383469934154
    CC  OC2D4     1  0.302905564168  0.383469934154
    CC    OCA     1  0.302905564168  0.383469934154
    CC  OG2D1     1  0.302905564168  0.383469934154
    CC  OG2D3     1  0.302905564168  0.383469934154
    CC   OLG1     1  0.302905564168  0.383469934154
  CC1A  CC301     1  0.355468588538  0.109105371453
  CC1A CC3051     1  0.355468588538  0.109105371453
  CC1A CC3062     1  0.355468588538  0.109105371453
  CC1A  CC30A     1  0.355468588538  0.109105371453
  CC1A  CC311     1  0.355468588538  0.109105371453
  CC1A CC311C     1  0.355468588538  0.109105371453
  CC1A CC311D     1  0.355468588538  0.109105371453
  CC1A  CC312     1  0.355468588538  0.109105371453
  CC1A CC312C     1  0.355468588538  0.109105371453
  CC1A CC312D     1  0.355468588538  0.109105371453
  CC1A CC3151     1  0.355468588538  0.109105371453
  CC1A CC3152     1  0.355468588538  0.109105371453
  CC1A CC3153     1  0.355468588538  0.109105371453
  CC1A CC3161     1  0.355468588538  0.109105371453
  CC1A CC3162     1  0.355468588538  0.109105371453
  CC1A CC3163     1  0.355468588538  0.109105371453
  CC1A  CC31A     1  0.355468588538  0.109105371453
  CC1A  CC321     1  0.355468588538  0.109105371453
  CC1A CC321C     1  0.355468588538  0.109105371453
  CC1A CC321D     1  0.355468588538  0.109105371453
  CC1A  CC322     1  0.355468588538  0.109105371453
  CC1A CC322C     1  0.355468588538  0.109105371453
  CC1A CC3251     1  0.355468588538  0.109105371453
  CC1A CC325A     1  0.355468588538  0.109105371453
  CC1A CC325B     1  0.355468588538  0.109105371453
  CC1A CC3261     1  0.355468588538  0.109105371453
  CC1A CC3263     1  0.355468588538  0.109105371453
  CC1A CC326A     1  0.355468588538  0.109105371453
  CC1A  CC32A     1  0.355468588538  0.109105371453
  CC1A  CC331     1  0.355468588538  0.109105371453
  CC1A  CC33A     1  0.355468588538  0.109105371453
  CC1A  CG301     1  0.355468588538  0.109105371453
  CC1A  CG311     1  0.355468588538  0.109105371453
  CC1A  CG314     1  0.355468588538  0.109105371453
  CC1A  CG321     1  0.355468588538  0.109105371453
  CC1A  CG324     1  0.355468588538  0.109105371453
  CC1A  CG331     1  0.355468588538  0.109105371453
  CC1A  CG334     1  0.355468588538  0.109105371453
  CC1A CG3C31     1  0.355468588538  0.109105371453
  CC1A CG3C41     1  0.355468588538  0.109105371453
  CC1A CG3C50     1  0.355468588538  0.109105371453
  CC1A CG3C51     1  0.355468588538  0.109105371453
  CC1A CG3C52     1  0.355468588538  0.109105371453
  CC1A CG3C53     1  0.355468588538  0.109105371453
  CC1A CG3C54     1  0.355468588538  0.109105371453
  CC1A CG3RC1     1  0.355468588538  0.109105371453
  CC1A  CLG11     1  0.355468588538  0.109105371453
  CC1A  CLG12     1  0.355468588538  0.109105371453
  CC1A  CLG13     1  0.355468588538  0.109105371453
  CC1A  CLG14     1  0.355468588538  0.109105371453
  CC1A  CLG15     1  0.355468588538  0.109105371453
  CC1A  CLG16     1  0.355468588538  0.109105371453
  CC1A    CN6     1  0.355468588538  0.109105371453
  CC1A    CN7     1  0.355468588538  0.109105371453
  CC1A   CN7B     1  0.355468588538  0.109105371453
  CC1A   CN7E     1  0.355468588538  0.109105371453
  CC1A    CN8     1  0.355468588538  0.109105371453
  CC1A   CN8B     1  0.355468588538  0.109105371453
  CC1A    CN9     1  0.355468588538  0.109105371453
  CC1A    CP1     1  0.355468588538  0.109105371453
  CC1A    CP2     1  0.355468588538  0.109105371453
  CC1A    CP3     1  0.355468588538  0.109105371453
  CC1A   CPD1     1  0.355468588538  0.109105371453
  CC1A   CR33     1  0.355468588538  0.109105371453
  CC1A   CRL1     1  0.355468588538  0.109105371453
  CC1A   CRL2     1  0.355468588538  0.109105371453
  CC1A     CT     1  0.355468588538  0.109105371453
  CC1A    CT1     1  0.355468588538  0.109105371453
  CC1A   CT1X     1  0.355468588538  0.109105371453
  CC1A    CT2     1  0.355468588538  0.109105371453
  CC1A   CT2A     1  0.355468588538  0.109105371453
  CC1A   CT2P     1  0.355468588538  0.109105371453
  CC1A   CT2X     1  0.355468588538  0.109105371453
  CC1A    CT3     1  0.355468588538  0.109105371453
  CC1A   CT3X     1  0.355468588538  0.109105371453
  CC1A   CTD1     1  0.355468588538  0.109105371453
  CC1A   CTL1     1  0.355468588538  0.109105371453
  CC1A   CTL2     1  0.355468588538  0.109105371453
  CC1A   CTL3     1  0.355468588538  0.109105371453
  CC1A   CTL5     1  0.355468588538  0.109105371453
  CC1A   CTO1     1  0.355468588538  0.109105371453
  CC1A   CTO2     1  0.355468588538  0.109105371453
  CC1A     HP     1  0.307199695989  0.188976046736
  CC1A      N     1  0.351014094947  0.010910537145
  CC1A  NC2D1     1  0.324287133403  0.487934054561
  CC1A  NG2S0     1  0.351014094947  0.010910537145
  CC1A  NG2S1     1  0.324287133403  0.487934054561
  CC1A    NH1     1  0.324287133403  0.487934054561
  CC1A    NHL     1  0.324287133403  0.487934054561
  CC1A      O     1  0.310923652631  0.377952093472
  CC1A     OB     1  0.310923652631  0.377952093472
  CC1A    OBL     1  0.310923652631  0.377952093472
  CC1A  OC2D1     1  0.310923652631  0.377952093472
  CC1A  OC2D3     1  0.310923652631  0.377952093472
  CC1A  OC2D4     1  0.310923652631  0.377952093472
  CC1A    OCA     1  0.310923652631  0.377952093472
  CC1A  OG2D1     1  0.310923652631  0.377952093472
  CC1A  OG2D3     1  0.310923652631  0.377952093472
  CC1A   OLG1     1  0.310923652631  0.377952093472
  CC1B  CC301     1  0.355468588538  0.109105371453
  CC1B CC3051     1  0.355468588538  0.109105371453
  CC1B CC3062     1  0.355468588538  0.109105371453
  CC1B  CC30A     1  0.355468588538  0.109105371453
  CC1B  CC311     1  0.355468588538  0.109105371453
  CC1B CC311C     1  0.355468588538  0.109105371453
  CC1B CC311D     1  0.355468588538  0.109105371453
  CC1B  CC312     1  0.355468588538  0.109105371453
  CC1B CC312C     1  0.355468588538  0.109105371453
  CC1B CC312D     1  0.355468588538  0.109105371453
  CC1B CC3151     1  0.355468588538  0.109105371453
  CC1B CC3152     1  0.355468588538  0.109105371453
  CC1B CC3153     1  0.355468588538  0.109105371453
  CC1B CC3161     1  0.355468588538  0.109105371453
  CC1B CC3162     1  0.355468588538  0.109105371453
  CC1B CC3163     1  0.355468588538  0.109105371453
  CC1B  CC31A     1  0.355468588538  0.109105371453
  CC1B  CC321     1  0.355468588538  0.109105371453
  CC1B CC321C     1  0.355468588538  0.109105371453
  CC1B CC321D     1  0.355468588538  0.109105371453
  CC1B  CC322     1  0.355468588538  0.109105371453
  CC1B CC322C     1  0.355468588538  0.109105371453
  CC1B CC3251     1  0.355468588538  0.109105371453
  CC1B CC325A     1  0.355468588538  0.109105371453
  CC1B CC325B     1  0.355468588538  0.109105371453
  CC1B CC3261     1  0.355468588538  0.109105371453
  CC1B CC3263     1  0.355468588538  0.109105371453
  CC1B CC326A     1  0.355468588538  0.109105371453
  CC1B  CC32A     1  0.355468588538  0.109105371453
  CC1B  CC331     1  0.355468588538  0.109105371453
  CC1B  CC33A     1  0.355468588538  0.109105371453
  CC1B  CG301     1  0.355468588538  0.109105371453
  CC1B  CG311     1  0.355468588538  0.109105371453
  CC1B  CG314     1  0.355468588538  0.109105371453
  CC1B  CG321     1  0.355468588538  0.109105371453
  CC1B  CG324     1  0.355468588538  0.109105371453
  CC1B  CG331     1  0.355468588538  0.109105371453
  CC1B  CG334     1  0.355468588538  0.109105371453
  CC1B CG3C31     1  0.355468588538  0.109105371453
  CC1B CG3C41     1  0.355468588538  0.109105371453
  CC1B CG3C50     1  0.355468588538  0.109105371453
  CC1B CG3C51     1  0.355468588538  0.109105371453
  CC1B CG3C52     1  0.355468588538  0.109105371453
  CC1B CG3C53     1  0.355468588538  0.109105371453
  CC1B CG3C54     1  0.355468588538  0.109105371453
  CC1B CG3RC1     1  0.355468588538  0.109105371453
  CC1B  CLG11     1  0.355468588538  0.109105371453
  CC1B  CLG12     1  0.355468588538  0.109105371453
  CC1B  CLG13     1  0.355468588538  0.109105371453
  CC1B  CLG14     1  0.355468588538  0.109105371453
  CC1B  CLG15     1  0.355468588538  0.109105371453
  CC1B  CLG16     1  0.355468588538  0.109105371453
  CC1B    CN6     1  0.355468588538  0.109105371453
  CC1B    CN7     1  0.355468588538  0.109105371453
  CC1B   CN7B     1  0.355468588538  0.109105371453
  CC1B   CN7E     1  0.355468588538  0.109105371453
  CC1B    CN8     1  0.355468588538  0.109105371453
  CC1B   CN8B     1  0.355468588538  0.109105371453
  CC1B    CN9     1  0.355468588538  0.109105371453
  CC1B    CP1     1  0.355468588538  0.109105371453
  CC1B    CP2     1  0.355468588538  0.109105371453
  CC1B    CP3     1  0.355468588538  0.109105371453
  CC1B   CPD1     1  0.355468588538  0.109105371453
  CC1B   CR33     1  0.355468588538  0.109105371453
  CC1B   CRL1     1  0.355468588538  0.109105371453
  CC1B   CRL2     1  0.355468588538  0.109105371453
  CC1B     CT     1  0.355468588538  0.109105371453
  CC1B    CT1     1  0.355468588538  0.109105371453
  CC1B   CT1X     1  0.355468588538  0.109105371453
  CC1B    CT2     1  0.355468588538  0.109105371453
  CC1B   CT2A     1  0.355468588538  0.109105371453
  CC1B   CT2P     1  0.355468588538  0.109105371453
  CC1B   CT2X     1  0.355468588538  0.109105371453
  CC1B    CT3     1  0.355468588538  0.109105371453
  CC1B   CT3X     1  0.355468588538  0.109105371453
  CC1B   CTD1     1  0.355468588538  0.109105371453
  CC1B   CTL1     1  0.355468588538  0.109105371453
  CC1B   CTL2     1  0.355468588538  0.109105371453
  CC1B   CTL3     1  0.355468588538  0.109105371453
  CC1B   CTL5     1  0.355468588538  0.109105371453
  CC1B   CTO1     1  0.355468588538  0.109105371453
  CC1B   CTO2     1  0.355468588538  0.109105371453
  CC1B     HP     1  0.307199695989  0.188976046736
  CC1B      N     1  0.351014094947  0.010910537145
  CC1B  NC2D1     1  0.324287133403  0.487934054561
  CC1B  NG2S0     1  0.351014094947  0.010910537145
  CC1B  NG2S1     1  0.324287133403  0.487934054561
  CC1B    NH1     1  0.324287133403  0.487934054561
  CC1B    NHL     1  0.324287133403  0.487934054561
  CC1B      O     1  0.310923652631  0.377952093472
  CC1B     OB     1  0.310923652631  0.377952093472
  CC1B    OBL     1  0.310923652631  0.377952093472
  CC1B  OC2D1     1  0.310923652631  0.377952093472
  CC1B  OC2D3     1  0.310923652631  0.377952093472
  CC1B  OC2D4     1  0.310923652631  0.377952093472
  CC1B    OCA     1  0.310923652631  0.377952093472
  CC1B  OG2D1     1  0.310923652631  0.377952093472
  CC1B  OG2D3     1  0.310923652631  0.377952093472
  CC1B   OLG1     1  0.310923652631  0.377952093472
   CC2  CC301     1  0.354577689820  0.105847757841
   CC2 CC3051     1  0.354577689820  0.105847757841
   CC2 CC3062     1  0.354577689820  0.105847757841
   CC2  CC30A     1  0.354577689820  0.105847757841
   CC2  CC311     1  0.354577689820  0.105847757841
   CC2 CC311C     1  0.354577689820  0.105847757841
   CC2 CC311D     1  0.354577689820  0.105847757841
   CC2  CC312     1  0.354577689820  0.105847757841
   CC2 CC312C     1  0.354577689820  0.105847757841
   CC2 CC312D     1  0.354577689820  0.105847757841
   CC2 CC3151     1  0.354577689820  0.105847757841
   CC2 CC3152     1  0.354577689820  0.105847757841
   CC2 CC3153     1  0.354577689820  0.105847757841
   CC2 CC3161     1  0.354577689820  0.105847757841
   CC2 CC3162     1  0.354577689820  0.105847757841
   CC2 CC3163     1  0.354577689820  0.105847757841
   CC2  CC31A     1  0.354577689820  0.105847757841
   CC2  CC321     1  0.354577689820  0.105847757841
   CC2 CC321C     1  0.354577689820  0.105847757841
   CC2 CC321D     1  0.354577689820  0.105847757841
   CC2  CC322     1  0.354577689820  0.105847757841
   CC2 CC322C     1  0.354577689820  0.105847757841
   CC2 CC3251     1  0.354577689820  0.105847757841
   CC2 CC325A     1  0.354577689820  0.105847757841
   CC2 CC325B     1  0.354577689820  0.105847757841
   CC2 CC3261     1  0.354577689820  0.105847757841
   CC2 CC3263     1  0.354577689820  0.105847757841
   CC2 CC326A     1  0.354577689820  0.105847757841
   CC2  CC32A     1  0.354577689820  0.105847757841
   CC2  CC331     1  0.354577689820  0.105847757841
   CC2  CC33A     1  0.354577689820  0.105847757841
   CC2  CG301     1  0.354577689820  0.105847757841
   CC2  CG311     1  0.354577689820  0.105847757841
   CC2  CG314     1  0.354577689820  0.105847757841
   CC2  CG321     1  0.354577689820  0.105847757841
   CC2  CG324     1  0.354577689820  0.105847757841
   CC2  CG331     1  0.354577689820  0.105847757841
   CC2  CG334     1  0.354577689820  0.105847757841
   CC2 CG3C31     1  0.354577689820  0.105847757841
   CC2 CG3C41     1  0.354577689820  0.105847757841
   CC2 CG3C50     1  0.354577689820  0.105847757841
   CC2 CG3C51     1  0.354577689820  0.105847757841
   CC2 CG3C52     1  0.354577689820  0.105847757841
   CC2 CG3C53     1  0.354577689820  0.105847757841
   CC2 CG3C54     1  0.354577689820  0.105847757841
   CC2 CG3RC1     1  0.354577689820  0.105847757841
   CC2  CLG11     1  0.354577689820  0.105847757841
   CC2  CLG12     1  0.354577689820  0.105847757841
   CC2  CLG13     1  0.354577689820  0.105847757841
   CC2  CLG14     1  0.354577689820  0.105847757841
   CC2  CLG15     1  0.354577689820  0.105847757841
   CC2  CLG16     1  0.354577689820  0.105847757841
   CC2    CN6     1  0.354577689820  0.105847757841
   CC2    CN7     1  0.354577689820  0.105847757841
   CC2   CN7B     1  0.354577689820  0.105847757841
   CC2   CN7E     1  0.354577689820  0.105847757841
   CC2    CN8     1  0.354577689820  0.105847757841
   CC2   CN8B     1  0.354577689820  0.105847757841
   CC2    CN9     1  0.354577689820  0.105847757841
   CC2    CP1     1  0.354577689820  0.105847757841
   CC2    CP2     1  0.354577689820  0.105847757841
   CC2    CP3     1  0.354577689820  0.105847757841
   CC2   CPD1     1  0.354577689820  0.105847757841
   CC2   CR33     1  0.354577689820  0.105847757841
   CC2   CRL1     1  0.354577689820  0.105847757841
   CC2   CRL2     1  0.354577689820  0.105847757841
   CC2     CT     1  0.354577689820  0.105847757841
   CC2    CT1     1  0.354577689820  0.105847757841
   CC2   CT1X     1  0.354577689820  0.105847757841
   CC2    CT2     1  0.354577689820  0.105847757841
   CC2   CT2A     1  0.354577689820  0.105847757841
   CC2   CT2P     1  0.354577689820  0.105847757841
   CC2   CT2X     1  0.354577689820  0.105847757841
   CC2    CT3     1  0.354577689820  0.105847757841
   CC2   CT3X     1  0.354577689820  0.105847757841
   CC2   CTD1     1  0.354577689820  0.105847757841
   CC2   CTL1     1  0.354577689820  0.105847757841
   CC2   CTL2     1  0.354577689820  0.105847757841
   CC2   CTL3     1  0.354577689820  0.105847757841
   CC2   CTL5     1  0.354577689820  0.105847757841
   CC2   CTO1     1  0.354577689820  0.105847757841
   CC2   CTO2     1  0.354577689820  0.105847757841
   CC2     HP     1  0.306308797271  0.183333694448
   CC2      N     1  0.350123196229  0.010584775784
   CC2  NC2D1     1  0.323396234685  0.473365563598
   CC2  NG2S0     1  0.350123196229  0.010584775784
   CC2  NG2S1     1  0.323396234685  0.473365563598
   CC2    NH1     1  0.323396234685  0.473365563598
   CC2    NHL     1  0.323396234685  0.473365563598
   CC2      O     1  0.310032753913  0.366667388896
   CC2     OB     1  0.310032753913  0.366667388896
   CC2    OBL     1  0.310032753913  0.366667388896
   CC2  OC2D1     1  0.310032753913  0.366667388896
   CC2  OC2D3     1  0.310032753913  0.366667388896
   CC2  OC2D4     1  0.310032753913  0.366667388896
   CC2    OCA     1  0.310032753913  0.366667388896
   CC2  OG2D1     1  0.310032753913  0.366667388896
   CC2  OG2D3     1  0.310032753913  0.366667388896
   CC2   OLG1     1  0.310032753913  0.366667388896
 CC2O1  CC301     1  0.347450500075  0.138767581228
 CC2O1 CC3051     1  0.347450500075  0.138767581228
 CC2O1 CC3062     1  0.347450500075  0.138767581228
 CC2O1  CC30A     1  0.347450500075  0.138767581228
 CC2O1  CC311     1  0.347450500075  0.138767581228
 CC2O1 CC311C     1  0.347450500075  0.138767581228
 CC2O1 CC311D     1  0.347450500075  0.138767581228
 CC2O1  CC312     1  0.347450500075  0.138767581228
 CC2O1 CC312C     1  0.347450500075  0.138767581228
 CC2O1 CC312D     1  0.347450500075  0.138767581228
 CC2O1 CC3151     1  0.347450500075  0.138767581228
 CC2O1 CC3152     1  0.347450500075  0.138767581228
 CC2O1 CC3153     1  0.347450500075  0.138767581228
 CC2O1 CC3161     1  0.347450500075  0.138767581228
 CC2O1 CC3162     1  0.347450500075  0.138767581228
 CC2O1 CC3163     1  0.347450500075  0.138767581228
 CC2O1  CC31A     1  0.347450500075  0.138767581228
 CC2O1  CC321     1  0.347450500075  0.138767581228
 CC2O1 CC321C     1  0.347450500075  0.138767581228
 CC2O1 CC321D     1  0.347450500075  0.138767581228
 CC2O1  CC322     1  0.347450500075  0.138767581228
 CC2O1 CC322C     1  0.347450500075  0.138767581228
 CC2O1 CC3251     1  0.347450500075  0.138767581228
 CC2O1 CC325A     1  0.347450500075  0.138767581228
 CC2O1 CC325B     1  0.347450500075  0.138767581228
 CC2O1 CC3261     1  0.347450500075  0.138767581228
 CC2O1 CC3263     1  0.347450500075  0.138767581228
 CC2O1 CC326A     1  0.347450500075  0.138767581228
 CC2O1  CC32A     1  0.347450500075  0.138767581228
 CC2O1  CC331     1  0.347450500075  0.138767581228
 CC2O1  CC33A     1  0.347450500075  0.138767581228
 CC2O1  CG301     1  0.347450500075  0.138767581228
 CC2O1  CG311     1  0.347450500075  0.138767581228
 CC2O1  CG314     1  0.347450500075  0.138767581228
 CC2O1  CG321     1  0.347450500075  0.138767581228
 CC2O1  CG324     1  0.347450500075  0.138767581228
 CC2O1  CG331     1  0.347450500075  0.138767581228
 CC2O1  CG334     1  0.347450500075  0.138767581228
 CC2O1 CG3C31     1  0.347450500075  0.138767581228
 CC2O1 CG3C41     1  0.347450500075  0.138767581228
 CC2O1 CG3C50     1  0.347450500075  0.138767581228
 CC2O1 CG3C51     1  0.347450500075  0.138767581228
 CC2O1 CG3C52     1  0.347450500075  0.138767581228
 CC2O1 CG3C53     1  0.347450500075  0.138767581228
 CC2O1 CG3C54     1  0.347450500075  0.138767581228
 CC2O1 CG3RC1     1  0.347450500075  0.138767581228
 CC2O1  CLG11     1  0.347450500075  0.138767581228
 CC2O1  CLG12     1  0.347450500075  0.138767581228
 CC2O1  CLG13     1  0.347450500075  0.138767581228
 CC2O1  CLG14     1  0.347450500075  0.138767581228
 CC2O1  CLG15     1  0.347450500075  0.138767581228
 CC2O1  CLG16     1  0.347450500075  0.138767581228
 CC2O1    CN6     1  0.347450500075  0.138767581228
 CC2O1    CN7     1  0.347450500075  0.138767581228
 CC2O1   CN7B     1  0.347450500075  0.138767581228
 CC2O1   CN7E     1  0.347450500075  0.138767581228
 CC2O1    CN8     1  0.347450500075  0.138767581228
 CC2O1   CN8B     1  0.347450500075  0.138767581228
 CC2O1    CN9     1  0.347450500075  0.138767581228
 CC2O1    CP1     1  0.347450500075  0.138767581228
 CC2O1    CP2     1  0.347450500075  0.138767581228
 CC2O1    CP3     1  0.347450500075  0.138767581228
 CC2O1   CPD1     1  0.347450500075  0.138767581228
 CC2O1   CR33     1  0.347450500075  0.138767581228
 CC2O1   CRL1     1  0.347450500075  0.138767581228
 CC2O1   CRL2     1  0.347450500075  0.138767581228
 CC2O1     CT     1  0.347450500075  0.138767581228
 CC2O1    CT1     1  0.347450500075  0.138767581228
 CC2O1   CT1X     1  0.347450500075  0.138767581228
 CC2O1    CT2     1  0.347450500075  0.138767581228
 CC2O1   CT2A     1  0.347450500075  0.138767581228
 CC2O1   CT2P     1  0.347450500075  0.138767581228
 CC2O1   CT2X     1  0.347450500075  0.138767581228
 CC2O1    CT3     1  0.347450500075  0.138767581228
 CC2O1   CT3X     1  0.347450500075  0.138767581228
 CC2O1   CTD1     1  0.347450500075  0.138767581228
 CC2O1   CTL1     1  0.347450500075  0.138767581228
 CC2O1   CTL2     1  0.347450500075  0.138767581228
 CC2O1   CTL3     1  0.347450500075  0.138767581228
 CC2O1   CTL5     1  0.347450500075  0.138767581228
 CC2O1   CTO1     1  0.347450500075  0.138767581228
 CC2O1   CTO2     1  0.347450500075  0.138767581228
 CC2O1     HP     1  0.299181607526  0.240352501131
 CC2O1      N     1  0.342996006484  0.013876758123
 CC2O1  NC2D1     1  0.316269044940  0.620587489400
 CC2O1  NG2S0     1  0.342996006484  0.013876758123
 CC2O1  NG2S1     1  0.316269044940  0.620587489400
 CC2O1    NH1     1  0.316269044940  0.620587489400
 CC2O1    NHL     1  0.316269044940  0.620587489400
 CC2O1      O     1  0.302905564168  0.480705002262
 CC2O1     OB     1  0.302905564168  0.480705002262
 CC2O1    OBL     1  0.302905564168  0.480705002262
 CC2O1  OC2D1     1  0.302905564168  0.480705002262
 CC2O1  OC2D3     1  0.302905564168  0.480705002262
 CC2O1  OC2D4     1  0.302905564168  0.480705002262
 CC2O1    OCA     1  0.302905564168  0.480705002262
 CC2O1  OG2D1     1  0.302905564168  0.480705002262
 CC2O1  OG2D3     1  0.302905564168  0.480705002262
 CC2O1   OLG1     1  0.302905564168  0.480705002262
 CC2O2  CC301     1  0.347450500075  0.110698234855
 CC2O2 CC3051     1  0.347450500075  0.110698234855
 CC2O2 CC3062     1  0.347450500075  0.110698234855
 CC2O2  CC30A     1  0.347450500075  0.110698234855
 CC2O2  CC311     1  0.347450500075  0.110698234855
 CC2O2 CC311C     1  0.347450500075  0.110698234855
 CC2O2 CC311D     1  0.347450500075  0.110698234855
 CC2O2  CC312     1  0.347450500075  0.110698234855
 CC2O2 CC312C     1  0.347450500075  0.110698234855
 CC2O2 CC312D     1  0.347450500075  0.110698234855
 CC2O2 CC3151     1  0.347450500075  0.110698234855
 CC2O2 CC3152     1  0.347450500075  0.110698234855
 CC2O2 CC3153     1  0.347450500075  0.110698234855
 CC2O2 CC3161     1  0.347450500075  0.110698234855
 CC2O2 CC3162     1  0.347450500075  0.110698234855
 CC2O2 CC3163     1  0.347450500075  0.110698234855
 CC2O2  CC31A     1  0.347450500075  0.110698234855
 CC2O2  CC321     1  0.347450500075  0.110698234855
 CC2O2 CC321C     1  0.347450500075  0.110698234855
 CC2O2 CC321D     1  0.347450500075  0.110698234855
 CC2O2  CC322     1  0.347450500075  0.110698234855
 CC2O2 CC322C     1  0.347450500075  0.110698234855
 CC2O2 CC3251     1  0.347450500075  0.110698234855
 CC2O2 CC325A     1  0.347450500075  0.110698234855
 CC2O2 CC325B     1  0.347450500075  0.110698234855
 CC2O2 CC3261     1  0.347450500075  0.110698234855
 CC2O2 CC3263     1  0.347450500075  0.110698234855
 CC2O2 CC326A     1  0.347450500075  0.110698234855
 CC2O2  CC32A     1  0.347450500075  0.110698234855
 CC2O2  CC331     1  0.347450500075  0.110698234855
 CC2O2  CC33A     1  0.347450500075  0.110698234855
 CC2O2  CG301     1  0.347450500075  0.110698234855
 CC2O2  CG311     1  0.347450500075  0.110698234855
 CC2O2  CG314     1  0.347450500075  0.110698234855
 CC2O2  CG321     1  0.347450500075  0.110698234855
 CC2O2  CG324     1  0.347450500075  0.110698234855
 CC2O2  CG331     1  0.347450500075  0.110698234855
 CC2O2  CG334     1  0.347450500075  0.110698234855
 CC2O2 CG3C31     1  0.347450500075  0.110698234855
 CC2O2 CG3C41     1  0.347450500075  0.110698234855
 CC2O2 CG3C50     1  0.347450500075  0.110698234855
 CC2O2 CG3C51     1  0.347450500075  0.110698234855
 CC2O2 CG3C52     1  0.347450500075  0.110698234855
 CC2O2 CG3C53     1  0.347450500075  0.110698234855
 CC2O2 CG3C54     1  0.347450500075  0.110698234855
 CC2O2 CG3RC1     1  0.347450500075  0.110698234855
 CC2O2  CLG11     1  0.347450500075  0.110698234855
 CC2O2  CLG12     1  0.347450500075  0.110698234855
 CC2O2  CLG13     1  0.347450500075  0.110698234855
 CC2O2  CLG14     1  0.347450500075  0.110698234855
 CC2O2  CLG15     1  0.347450500075  0.110698234855
 CC2O2  CLG16     1  0.347450500075  0.110698234855
 CC2O2    CN6     1  0.347450500075  0.110698234855
 CC2O2    CN7     1  0.347450500075  0.110698234855
 CC2O2   CN7B     1  0.347450500075  0.110698234855
 CC2O2   CN7E     1  0.347450500075  0.110698234855
 CC2O2    CN8     1  0.347450500075  0.110698234855
 CC2O2   CN8B     1  0.347450500075  0.110698234855
 CC2O2    CN9     1  0.347450500075  0.110698234855
 CC2O2    CP1     1  0.347450500075  0.110698234855
 CC2O2    CP2     1  0.347450500075  0.110698234855
 CC2O2    CP3     1  0.347450500075  0.110698234855
 CC2O2   CPD1     1  0.347450500075  0.110698234855
 CC2O2   CR33     1  0.347450500075  0.110698234855
 CC2O2   CRL1     1  0.347450500075  0.110698234855
 CC2O2   CRL2     1  0.347450500075  0.110698234855
 CC2O2     CT     1  0.347450500075  0.110698234855
 CC2O2    CT1     1  0.347450500075  0.110698234855
 CC2O2   CT1X     1  0.347450500075  0.110698234855
 CC2O2    CT2     1  0.347450500075  0.110698234855
 CC2O2   CT2A     1  0.347450500075  0.110698234855
 CC2O2   CT2P     1  0.347450500075  0.110698234855
 CC2O2   CT2X     1  0.347450500075  0.110698234855
 CC2O2    CT3     1  0.347450500075  0.110698234855
 CC2O2   CT3X     1  0.347450500075  0.110698234855
 CC2O2   CTD1     1  0.347450500075  0.110698234855
 CC2O2   CTL1     1  0.347450500075  0.110698234855
 CC2O2   CTL2     1  0.347450500075  0.110698234855
 CC2O2   CTL3     1  0.347450500075  0.110698234855
 CC2O2   CTL5     1  0.347450500075  0.110698234855
 CC2O2   CTO1     1  0.347450500075  0.110698234855
 CC2O2   CTO2     1  0.347450500075  0.110698234855
 CC2O2     HP     1  0.299181607526  0.191734967077
 CC2O2      N     1  0.342996006484  0.011069823485
 CC2O2  NC2D1     1  0.316269044940  0.495057556250
 CC2O2  NG2S0     1  0.342996006484  0.011069823485
 CC2O2  NG2S1     1  0.316269044940  0.495057556250
 CC2O2    NH1     1  0.316269044940  0.495057556250
 CC2O2    NHL     1  0.316269044940  0.495057556250
 CC2O2      O     1  0.302905564168  0.383469934154
 CC2O2     OB     1  0.302905564168  0.383469934154
 CC2O2    OBL     1  0.302905564168  0.383469934154
 CC2O2  OC2D1     1  0.302905564168  0.383469934154
 CC2O2  OC2D3     1  0.302905564168  0.383469934154
 CC2O2  OC2D4     1  0.302905564168  0.383469934154
 CC2O2    OCA     1  0.302905564168  0.383469934154
 CC2O2  OG2D1     1  0.302905564168  0.383469934154
 CC2O2  OG2D3     1  0.302905564168  0.383469934154
 CC2O2   OLG1     1  0.302905564168  0.383469934154
 CC2O3  CC301     1  0.347450500075  0.125520000000
 CC2O3 CC3051     1  0.347450500075  0.125520000000
 CC2O3 CC3062     1  0.347450500075  0.125520000000
 CC2O3  CC30A     1  0.347450500075  0.125520000000
 CC2O3  CC311     1  0.347450500075  0.125520000000
 CC2O3 CC311C     1  0.347450500075  0.125520000000
 CC2O3 CC311D     1  0.347450500075  0.125520000000
 CC2O3  CC312     1  0.347450500075  0.125520000000
 CC2O3 CC312C     1  0.347450500075  0.125520000000
 CC2O3 CC312D     1  0.347450500075  0.125520000000
 CC2O3 CC3151     1  0.347450500075  0.125520000000
 CC2O3 CC3152     1  0.347450500075  0.125520000000
 CC2O3 CC3153     1  0.347450500075  0.125520000000
 CC2O3 CC3161     1  0.347450500075  0.125520000000
 CC2O3 CC3162     1  0.347450500075  0.125520000000
 CC2O3 CC3163     1  0.347450500075  0.125520000000
 CC2O3  CC31A     1  0.347450500075  0.125520000000
 CC2O3  CC321     1  0.347450500075  0.125520000000
 CC2O3 CC321C     1  0.347450500075  0.125520000000
 CC2O3 CC321D     1  0.347450500075  0.125520000000
 CC2O3  CC322     1  0.347450500075  0.125520000000
 CC2O3 CC322C     1  0.347450500075  0.125520000000
 CC2O3 CC3251     1  0.347450500075  0.125520000000
 CC2O3 CC325A     1  0.347450500075  0.125520000000
 CC2O3 CC325B     1  0.347450500075  0.125520000000
 CC2O3 CC3261     1  0.347450500075  0.125520000000
 CC2O3 CC3263     1  0.347450500075  0.125520000000
 CC2O3 CC326A     1  0.347450500075  0.125520000000
 CC2O3  CC32A     1  0.347450500075  0.125520000000
 CC2O3  CC331     1  0.347450500075  0.125520000000
 CC2O3  CC33A     1  0.347450500075  0.125520000000
 CC2O3  CG301     1  0.347450500075  0.125520000000
 CC2O3  CG311     1  0.347450500075  0.125520000000
 CC2O3  CG314     1  0.347450500075  0.125520000000
 CC2O3  CG321     1  0.347450500075  0.125520000000
 CC2O3  CG324     1  0.347450500075  0.125520000000
 CC2O3  CG331     1  0.347450500075  0.125520000000
 CC2O3  CG334     1  0.347450500075  0.125520000000
 CC2O3 CG3C31     1  0.347450500075  0.125520000000
 CC2O3 CG3C41     1  0.347450500075  0.125520000000
 CC2O3 CG3C50     1  0.347450500075  0.125520000000
 CC2O3 CG3C51     1  0.347450500075  0.125520000000
 CC2O3 CG3C52     1  0.347450500075  0.125520000000
 CC2O3 CG3C53     1  0.347450500075  0.125520000000
 CC2O3 CG3C54     1  0.347450500075  0.125520000000
 CC2O3 CG3RC1     1  0.347450500075  0.125520000000
 CC2O3  CLG11     1  0.347450500075  0.125520000000
 CC2O3  CLG12     1  0.347450500075  0.125520000000
 CC2O3  CLG13     1  0.347450500075  0.125520000000
 CC2O3  CLG14     1  0.347450500075  0.125520000000
 CC2O3  CLG15     1  0.347450500075  0.125520000000
 CC2O3  CLG16     1  0.347450500075  0.125520000000
 CC2O3    CN6     1  0.347450500075  0.125520000000
 CC2O3    CN7     1  0.347450500075  0.125520000000
 CC2O3   CN7B     1  0.347450500075  0.125520000000
 CC2O3   CN7E     1  0.347450500075  0.125520000000
 CC2O3    CN8     1  0.347450500075  0.125520000000
 CC2O3   CN8B     1  0.347450500075  0.125520000000
 CC2O3    CN9     1  0.347450500075  0.125520000000
 CC2O3    CP1     1  0.347450500075  0.125520000000
 CC2O3    CP2     1  0.347450500075  0.125520000000
 CC2O3    CP3     1  0.347450500075  0.125520000000
 CC2O3   CPD1     1  0.347450500075  0.125520000000
 CC2O3   CR33     1  0.347450500075  0.125520000000
 CC2O3   CRL1     1  0.347450500075  0.125520000000
 CC2O3   CRL2     1  0.347450500075  0.125520000000
 CC2O3     CT     1  0.347450500075  0.125520000000
 CC2O3    CT1     1  0.347450500075  0.125520000000
 CC2O3   CT1X     1  0.347450500075  0.125520000000
 CC2O3    CT2     1  0.347450500075  0.125520000000
 CC2O3   CT2A     1  0.347450500075  0.125520000000
 CC2O3   CT2P     1  0.347450500075  0.125520000000
 CC2O3   CT2X     1  0.347450500075  0.125520000000
 CC2O3    CT3     1  0.347450500075  0.125520000000
 CC2O3   CT3X     1  0.347450500075  0.125520000000
 CC2O3   CTD1     1  0.347450500075  0.125520000000
 CC2O3   CTL1     1  0.347450500075  0.125520000000
 CC2O3   CTL2     1  0.347450500075  0.125520000000
 CC2O3   CTL3     1  0.347450500075  0.125520000000
 CC2O3   CTL5     1  0.347450500075  0.125520000000
 CC2O3   CTO1     1  0.347450500075  0.125520000000
 CC2O3   CTO2     1  0.347450500075  0.125520000000
 CC2O3     HP     1  0.299181607526  0.217407017366
 CC2O3      N     1  0.342996006484  0.012552000000
 CC2O3  NC2D1     1  0.316269044940  0.561342505072
 CC2O3  NG2S0     1  0.342996006484  0.012552000000
 CC2O3  NG2S1     1  0.316269044940  0.561342505072
 CC2O3    NH1     1  0.316269044940  0.561342505072
 CC2O3    NHL     1  0.316269044940  0.561342505072
 CC2O3      O     1  0.302905564168  0.434814034732
 CC2O3     OB     1  0.302905564168  0.434814034732
 CC2O3    OBL     1  0.302905564168  0.434814034732
 CC2O3  OC2D1     1  0.302905564168  0.434814034732
 CC2O3  OC2D3     1  0.302905564168  0.434814034732
 CC2O3  OC2D4     1  0.302905564168  0.434814034732
 CC2O3    OCA     1  0.302905564168  0.434814034732
 CC2O3  OG2D1     1  0.302905564168  0.434814034732
 CC2O3  OG2D3     1  0.302905564168  0.434814034732
 CC2O3   OLG1     1  0.302905564168  0.434814034732
 CC2O4  CC301     1  0.329632525712  0.102486650838
 CC2O4 CC3051     1  0.329632525712  0.102486650838
 CC2O4 CC3062     1  0.329632525712  0.102486650838
 CC2O4  CC30A     1  0.329632525712  0.102486650838
 CC2O4  CC311     1  0.329632525712  0.102486650838
 CC2O4 CC311C     1  0.329632525712  0.102486650838
 CC2O4 CC311D     1  0.329632525712  0.102486650838
 CC2O4  CC312     1  0.329632525712  0.102486650838
 CC2O4 CC312C     1  0.329632525712  0.102486650838
 CC2O4 CC312D     1  0.329632525712  0.102486650838
 CC2O4 CC3151     1  0.329632525712  0.102486650838
 CC2O4 CC3152     1  0.329632525712  0.102486650838
 CC2O4 CC3153     1  0.329632525712  0.102486650838
 CC2O4 CC3161     1  0.329632525712  0.102486650838
 CC2O4 CC3162     1  0.329632525712  0.102486650838
 CC2O4 CC3163     1  0.329632525712  0.102486650838
 CC2O4  CC31A     1  0.329632525712  0.102486650838
 CC2O4  CC321     1  0.329632525712  0.102486650838
 CC2O4 CC321C     1  0.329632525712  0.102486650838
 CC2O4 CC321D     1  0.329632525712  0.102486650838
 CC2O4  CC322     1  0.329632525712  0.102486650838
 CC2O4 CC322C     1  0.329632525712  0.102486650838
 CC2O4 CC3251     1  0.329632525712  0.102486650838
 CC2O4 CC325A     1  0.329632525712  0.102486650838
 CC2O4 CC325B     1  0.329632525712  0.102486650838
 CC2O4 CC3261     1  0.329632525712  0.102486650838
 CC2O4 CC3263     1  0.329632525712  0.102486650838
 CC2O4 CC326A     1  0.329632525712  0.102486650838
 CC2O4  CC32A     1  0.329632525712  0.102486650838
 CC2O4  CC331     1  0.329632525712  0.102486650838
 CC2O4  CC33A     1  0.329632525712  0.102486650838
 CC2O4  CG301     1  0.329632525712  0.102486650838
 CC2O4  CG311     1  0.329632525712  0.102486650838
 CC2O4  CG314     1  0.329632525712  0.102486650838
 CC2O4  CG321     1  0.329632525712  0.102486650838
 CC2O4  CG324     1  0.329632525712  0.102486650838
 CC2O4  CG331     1  0.329632525712  0.102486650838
 CC2O4  CG334     1  0.329632525712  0.102486650838
 CC2O4 CG3C31     1  0.329632525712  0.102486650838
 CC2O4 CG3C41     1  0.329632525712  0.102486650838
 CC2O4 CG3C50     1  0.329632525712  0.102486650838
 CC2O4 CG3C51     1  0.329632525712  0.102486650838
 CC2O4 CG3C52     1  0.329632525712  0.102486650838
 CC2O4 CG3C53     1  0.329632525712  0.102486650838
 CC2O4 CG3C54     1  0.329632525712  0.102486650838
 CC2O4 CG3RC1     1  0.329632525712  0.102486650838
 CC2O4  CLG11     1  0.329632525712  0.102486650838
 CC2O4  CLG12     1  0.329632525712  0.102486650838
 CC2O4  CLG13     1  0.329632525712  0.102486650838
 CC2O4  CLG14     1  0.329632525712  0.102486650838
 CC2O4  CLG15     1  0.329632525712  0.102486650838
 CC2O4  CLG16     1  0.329632525712  0.102486650838
 CC2O4    CN6     1  0.329632525712  0.102486650838
 CC2O4    CN7     1  0.329632525712  0.102486650838
 CC2O4   CN7B     1  0.329632525712  0.102486650838
 CC2O4   CN7E     1  0.329632525712  0.102486650838
 CC2O4    CN8     1  0.329632525712  0.102486650838
 CC2O4   CN8B     1  0.329632525712  0.102486650838
 CC2O4    CN9     1  0.329632525712  0.102486650838
 CC2O4    CP1     1  0.329632525712  0.102486650838
 CC2O4    CP2     1  0.329632525712  0.102486650838
 CC2O4    CP3     1  0.329632525712  0.102486650838
 CC2O4   CPD1     1  0.329632525712  0.102486650838
 CC2O4   CR33     1  0.329632525712  0.102486650838
 CC2O4   CRL1     1  0.329632525712  0.102486650838
 CC2O4   CRL2     1  0.329632525712  0.102486650838
 CC2O4     CT     1  0.329632525712  0.102486650838
 CC2O4    CT1     1  0.329632525712  0.102486650838
 CC2O4   CT1X     1  0.329632525712  0.102486650838
 CC2O4    CT2     1  0.329632525712  0.102486650838
 CC2O4   CT2A     1  0.329632525712  0.102486650838
 CC2O4   CT2P     1  0.329632525712  0.102486650838
 CC2O4   CT2X     1  0.329632525712  0.102486650838
 CC2O4    CT3     1  0.329632525712  0.102486650838
 CC2O4   CT3X     1  0.329632525712  0.102486650838
 CC2O4   CTD1     1  0.329632525712  0.102486650838
 CC2O4   CTL1     1  0.329632525712  0.102486650838
 CC2O4   CTL2     1  0.329632525712  0.102486650838
 CC2O4   CTL3     1  0.329632525712  0.102486650838
 CC2O4   CTL5     1  0.329632525712  0.102486650838
 CC2O4   CTO1     1  0.329632525712  0.102486650838
 CC2O4   CTO2     1  0.329632525712  0.102486650838
 CC2O4     HP     1  0.281363633163  0.177512086349
 CC2O4      N     1  0.325178032121  0.010248665084
 CC2O4  NC2D1     1  0.298451070577  0.458334236120
 CC2O4  NG2S0     1  0.325178032121  0.010248665084
 CC2O4  NG2S1     1  0.298451070577  0.458334236120
 CC2O4    NH1     1  0.298451070577  0.458334236120
 CC2O4    NHL     1  0.298451070577  0.458334236120
 CC2O4      O     1  0.285087589805  0.355024172698
 CC2O4     OB     1  0.285087589805  0.355024172698
 CC2O4    OBL     1  0.285087589805  0.355024172698
 CC2O4  OC2D1     1  0.285087589805  0.355024172698
 CC2O4  OC2D3     1  0.285087589805  0.355024172698
 CC2O4  OC2D4     1  0.285087589805  0.355024172698
 CC2O4    OCA     1  0.285087589805  0.355024172698
 CC2O4  OG2D1     1  0.285087589805  0.355024172698
 CC2O4  OG2D3     1  0.285087589805  0.355024172698
 CC2O4   OLG1     1  0.285087589805  0.355024172698
 CC2O5  CC301     1  0.320723538531  0.130979917850
 CC2O5 CC3051     1  0.320723538531  0.130979917850
 CC2O5 CC3062     1  0.320723538531  0.130979917850
 CC2O5  CC30A     1  0.320723538531  0.130979917850
 CC2O5  CC311     1  0.320723538531  0.130979917850
 CC2O5 CC311C     1  0.320723538531  0.130979917850
 CC2O5 CC311D     1  0.320723538531  0.130979917850
 CC2O5  CC312     1  0.320723538531  0.130979917850
 CC2O5 CC312C     1  0.320723538531  0.130979917850
 CC2O5 CC312D     1  0.320723538531  0.130979917850
 CC2O5 CC3151     1  0.320723538531  0.130979917850
 CC2O5 CC3152     1  0.320723538531  0.130979917850
 CC2O5 CC3153     1  0.320723538531  0.130979917850
 CC2O5 CC3161     1  0.320723538531  0.130979917850
 CC2O5 CC3162     1  0.320723538531  0.130979917850
 CC2O5 CC3163     1  0.320723538531  0.130979917850
 CC2O5  CC31A     1  0.320723538531  0.130979917850
 CC2O5  CC321     1  0.320723538531  0.130979917850
 CC2O5 CC321C     1  0.320723538531  0.130979917850
 CC2O5 CC321D     1  0.320723538531  0.130979917850
 CC2O5  CC322     1  0.320723538531  0.130979917850
 CC2O5 CC322C     1  0.320723538531  0.130979917850
 CC2O5 CC3251     1  0.320723538531  0.130979917850
 CC2O5 CC325A     1  0.320723538531  0.130979917850
 CC2O5 CC325B     1  0.320723538531  0.130979917850
 CC2O5 CC3261     1  0.320723538531  0.130979917850
 CC2O5 CC3263     1  0.320723538531  0.130979917850
 CC2O5 CC326A     1  0.320723538531  0.130979917850
 CC2O5  CC32A     1  0.320723538531  0.130979917850
 CC2O5  CC331     1  0.320723538531  0.130979917850
 CC2O5  CC33A     1  0.320723538531  0.130979917850
 CC2O5  CG301     1  0.320723538531  0.130979917850
 CC2O5  CG311     1  0.320723538531  0.130979917850
 CC2O5  CG314     1  0.320723538531  0.130979917850
 CC2O5  CG321     1  0.320723538531  0.130979917850
 CC2O5  CG324     1  0.320723538531  0.130979917850
 CC2O5  CG331     1  0.320723538531  0.130979917850
 CC2O5  CG334     1  0.320723538531  0.130979917850
 CC2O5 CG3C31     1  0.320723538531  0.130979917850
 CC2O5 CG3C41     1  0.320723538531  0.130979917850
 CC2O5 CG3C50     1  0.320723538531  0.130979917850
 CC2O5 CG3C51     1  0.320723538531  0.130979917850
 CC2O5 CG3C52     1  0.320723538531  0.130979917850
 CC2O5 CG3C53     1  0.320723538531  0.130979917850
 CC2O5 CG3C54     1  0.320723538531  0.130979917850
 CC2O5 CG3RC1     1  0.320723538531  0.130979917850
 CC2O5  CLG11     1  0.320723538531  0.130979917850
 CC2O5  CLG12     1  0.320723538531  0.130979917850
 CC2O5  CLG13     1  0.320723538531  0.130979917850
 CC2O5  CLG14     1  0.320723538531  0.130979917850
 CC2O5  CLG15     1  0.320723538531  0.130979917850
 CC2O5  CLG16     1  0.320723538531  0.130979917850
 CC2O5    CN6     1  0.320723538531  0.130979917850
 CC2O5    CN7     1  0.320723538531  0.130979917850
 CC2O5   CN7B     1  0.320723538531  0.130979917850
 CC2O5   CN7E     1  0.320723538531  0.130979917850
 CC2O5    CN8     1  0.320723538531  0.130979917850
 CC2O5   CN8B     1  0.320723538531  0.130979917850
 CC2O5    CN9     1  0.320723538531  0.130979917850
 CC2O5    CP1     1  0.320723538531  0.130979917850
 CC2O5    CP2     1  0.320723538531  0.130979917850
 CC2O5    CP3     1  0.320723538531  0.130979917850
 CC2O5   CPD1     1  0.320723538531  0.130979917850
 CC2O5   CR33     1  0.320723538531  0.130979917850
 CC2O5   CRL1     1  0.320723538531  0.130979917850
 CC2O5   CRL2     1  0.320723538531  0.130979917850
 CC2O5     CT     1  0.320723538531  0.130979917850
 CC2O5    CT1     1  0.320723538531  0.130979917850
 CC2O5   CT1X     1  0.320723538531  0.130979917850
 CC2O5    CT2     1  0.320723538531  0.130979917850
 CC2O5   CT2A     1  0.320723538531  0.130979917850
 CC2O5   CT2P     1  0.320723538531  0.130979917850
 CC2O5   CT2X     1  0.320723538531  0.130979917850
 CC2O5    CT3     1  0.320723538531  0.130979917850
 CC2O5   CT3X     1  0.320723538531  0.130979917850
 CC2O5   CTD1     1  0.320723538531  0.130979917850
 CC2O5   CTL1     1  0.320723538531  0.130979917850
 CC2O5   CTL2     1  0.320723538531  0.130979917850
 CC2O5   CTL3     1  0.320723538531  0.130979917850
 CC2O5   CTL5     1  0.320723538531  0.130979917850
 CC2O5   CTO1     1  0.320723538531  0.130979917850
 CC2O5   CTO2     1  0.320723538531  0.130979917850
 CC2O5     HP     1  0.272454645982  0.226863872487
 CC2O5      N     1  0.316269044940  0.013097991785
 CC2O5  NC2D1     1  0.289542083396  0.585760000000
 CC2O5  NG2S0     1  0.316269044940  0.013097991785
 CC2O5  NG2S1     1  0.289542083396  0.585760000000
 CC2O5    NH1     1  0.289542083396  0.585760000000
 CC2O5    NHL     1  0.289542083396  0.585760000000
 CC2O5      O     1  0.276178602624  0.453727744975
 CC2O5     OB     1  0.276178602624  0.453727744975
 CC2O5    OBL     1  0.276178602624  0.453727744975
 CC2O5  OC2D1     1  0.276178602624  0.453727744975
 CC2O5  OC2D3     1  0.276178602624  0.453727744975
 CC2O5  OC2D4     1  0.276178602624  0.453727744975
 CC2O5    OCA     1  0.276178602624  0.453727744975
 CC2O5  OG2D1     1  0.276178602624  0.453727744975
 CC2O5  OG2D3     1  0.276178602624  0.453727744975
 CC2O5   OLG1     1  0.276178602624  0.453727744975
 CC301  CC301     1  0.338541512893  0.041840000000
 CC301 CC3051     1  0.338541512893  0.041840000000
 CC301 CC3062     1  0.338541512893  0.041840000000
 CC301  CC30A     1  0.338541512893  0.041840000000
 CC301  CC311     1  0.338541512893  0.041840000000
 CC301 CC311C     1  0.338541512893  0.041840000000
 CC301 CC311D     1  0.338541512893  0.041840000000
 CC301  CC312     1  0.338541512893  0.041840000000
 CC301 CC312C     1  0.338541512893  0.041840000000
 CC301 CC312D     1  0.338541512893  0.041840000000
 CC301 CC3151     1  0.338541512893  0.041840000000
 CC301 CC3152     1  0.338541512893  0.041840000000
 CC301 CC3153     1  0.338541512893  0.041840000000
 CC301 CC3161     1  0.338541512893  0.041840000000
 CC301 CC3162     1  0.338541512893  0.041840000000
 CC301 CC3163     1  0.338541512893  0.041840000000
 CC301  CC31A     1  0.338541512893  0.041840000000
 CC301  CC321     1  0.338541512893  0.041840000000
 CC301 CC321C     1  0.338541512893  0.041840000000
 CC301 CC321D     1  0.338541512893  0.041840000000
 CC301  CC322     1  0.338541512893  0.041840000000
 CC301 CC322C     1  0.338541512893  0.041840000000
 CC301 CC3251     1  0.338541512893  0.041840000000
 CC301 CC325A     1  0.338541512893  0.041840000000
 CC301 CC325B     1  0.338541512893  0.041840000000
 CC301 CC3261     1  0.338541512893  0.041840000000
 CC301 CC3263     1  0.338541512893  0.041840000000
 CC301 CC326A     1  0.338541512893  0.041840000000
 CC301  CC32A     1  0.338541512893  0.041840000000
 CC301  CC331     1  0.338541512893  0.041840000000
 CC301  CC33A     1  0.338541512893  0.041840000000
 CC301    CCL     1  0.347450500075  0.110698234855
 CC301     CD     1  0.347450500075  0.110698234855
 CC301    CE1     1  0.355468588538  0.109105371453
 CC301    CE2     1  0.354577689820  0.105847757841
 CC301   CE3P     1  0.321748072056  0.179522368790
 CC301   CEL1     1  0.355468588538  0.109105371453
 CC301   CEL2     1  0.354577689820  0.105847757841
 CC301   CEL3     1  0.355468588538  0.109105371453
 CC301    CES     1  0.356359487256  0.182376331798
 CC301    CF1     1  0.338541512893  0.102486650838
 CC301    CF2     1  0.351904993665  0.085746484010
 CC301    CF3     1  0.374177461619  0.059170695450
 CC301  CG1N1     1  0.335868816739  0.177512086349
 CC301  CG1T1     1  0.333196120584  0.170981810495
 CC301  CG1T2     1  0.346782326036  0.134409982486
 CC301 CG251O     1  0.355468588538  0.109105371453
 CC301 CG252O     1  0.355468588538  0.109105371453
 CC301 CG25C1     1  0.355468588538  0.109105371453
 CC301 CG25C2     1  0.355468588538  0.109105371453
 CC301  CG2D1     1  0.355468588538  0.109105371453
 CC301 CG2D1O     1  0.355468588538  0.109105371453
 CC301  CG2D2     1  0.354577689820  0.105847757841
 CC301 CG2D2O     1  0.355468588538  0.109105371453
 CC301 CG2DC1     1  0.355468588538  0.109105371453
 CC301 CG2DC2     1  0.355468588538  0.109105371453
 CC301 CG2DC3     1  0.354577689820  0.105847757841
 CC301  CG2N1     1  0.347450500075  0.138767581228
 CC301  CG2N2     1  0.347450500075  0.138767581228
 CC301  CG2O1     1  0.347450500075  0.138767581228
 CC301  CG2O2     1  0.320723538531  0.130979917850
 CC301  CG2O3     1  0.347450500075  0.110698234855
 CC301  CG2O4     1  0.329632525712  0.102486650838
 CC301  CG2O5     1  0.347450500075  0.125520000000
 CC301  CG2O6     1  0.347450500075  0.110698234855
 CC301  CG2O7     1  0.308518226092  0.100764063435
 CC301 CG2R51     1  0.356359487256  0.093557084179
 CC301 CG2R52     1  0.365268474438  0.059170695450
 CC301 CG2R53     1  0.365268474438  0.059170695450
 CC301 CG2R57     1  0.356359487256  0.093557084179
 CC301 CG2R61     1  0.346773417049  0.110698234855
 CC301 CG2R62     1  0.338541512893  0.125520000000
 CC301 CG2R63     1  0.338541512893  0.132309697301
 CC301 CG2R64     1  0.356359487256  0.083680000000
 CC301 CG2R66     1  0.338541512893  0.110698234855
 CC301 CG2R67     1  0.346773417049  0.110698234855
 CC301 CG2R71     1  0.346987232741  0.108300154755
 CC301 CG2RC0     1  0.334977918021  0.131646486622
 CC301 CG2RC7     1  0.334977918021  0.131646486622
 CC301  CG301     1  0.338541512893  0.041840000000
 CC301  CG302     1  0.374177461619  0.059170695450
 CC301  CG311     1  0.338541512893  0.041840000000
 CC301  CG312     1  0.351904993665  0.085746484010
 CC301  CG314     1  0.338541512893  0.041840000000
 CC301  CG321     1  0.338541512893  0.041840000000
 CC301  CG322     1  0.338541512893  0.102486650838
 CC301  CG323     1  0.365268474438  0.138767581228
 CC301  CG324     1  0.338541512893  0.041840000000
 CC301  CG331     1  0.338541512893  0.041840000000
 CC301  CG334     1  0.338541512893  0.041840000000
 CC301 CG3AM0     1  0.344777803920  0.110698234855
 CC301 CG3AM1     1  0.345668702638  0.116852760686
 CC301 CG3AM2     1  0.346559601357  0.118341390899
 CC301 CG3C31     1  0.338541512893  0.041840000000
 CC301 CG3C41     1  0.338541512893  0.041840000000
 CC301 CG3C50     1  0.338541512893  0.041840000000
 CC301 CG3C51     1  0.338541512893  0.041840000000
 CC301 CG3C52     1  0.338541512893  0.041840000000
 CC301 CG3C53     1  0.338541512893  0.041840000000
 CC301 CG3C54     1  0.338541512893  0.041840000000
 CC301 CG3RC1     1  0.338541512893  0.041840000000
 CC301     CL     1  0.347450500075  0.110698234855
 CC301    CLA     1  0.371504765465  0.162045623205
 CC301   CLAL     1  0.339272049842  0.072469005789
 CC301  CLG01     1  0.355468588538  0.109105371453
 CC301  CLG02     1  0.355468588538  0.109105371453
 CC301  CLG03     1  0.320723538531  0.130979917850
 CC301  CLG04     1  0.347450500075  0.110698234855
 CC301  CLG05     1  0.329632525712  0.102486650838
 CC301  CLG06     1  0.346773417049  0.110698234855
 CC301 CLG06A     1  0.346773417049  0.110698234855
 CC301 CLG06B     1  0.346773417049  0.110698234855
 CC301  CLG07     1  0.338541512893  0.125520000000
 CC301  CLG08     1  0.338541512893  0.132309697301
 CC301  CLG09     1  0.346773417049  0.110698234855
 CC301  CLG10     1  0.334977918021  0.131646486622
 CC301  CLG11     1  0.338541512893  0.041840000000
 CC301  CLG12     1  0.338541512893  0.041840000000
 CC301  CLG13     1  0.338541512893  0.041840000000
 CC301  CLG14     1  0.338541512893  0.041840000000
 CC301  CLG15     1  0.338541512893  0.041840000000
 CC301  CLG16     1  0.338541512893  0.041840000000
 CC301  CLGA1     1  0.339432411611  0.245040988571
 CC301  CLGA3     1  0.339432411611  0.232955260941
 CC301  CLGR1     1  0.334977918021  0.200657590935
 CC301     CM     1  0.356359487256  0.138767581228
 CC301     CN     1  0.325178032121  0.187114168357
 CC301    CN1     1  0.338541512893  0.132309697301
 CC301   CN1A     1  0.347450500075  0.110698234855
 CC301   CN1T     1  0.338541512893  0.132309697301
 CC301    CN2     1  0.338541512893  0.132309697301
 CC301    CN3     1  0.338541512893  0.125520000000
 CC301   CN3A     1  0.329632525712  0.177512086349
 CC301   CN3B     1  0.329632525712  0.177512086349
 CC301   CN3C     1  0.329632525712  0.177512086349
 CC301   CN3D     1  0.338541512893  0.125520000000
 CC301   CN3T     1  0.338541512893  0.125520000000
 CC301    CN4     1  0.338541512893  0.114583559030
 CC301    CN5     1  0.338541512893  0.114583559030
 CC301   CN5G     1  0.338541512893  0.114583559030
 CC301    CN6     1  0.338541512893  0.041840000000
 CC301    CN7     1  0.338541512893  0.041840000000
 CC301   CN7B     1  0.338541512893  0.041840000000
 CC301   CN7E     1  0.338541512893  0.041840000000
 CC301    CN8     1  0.338541512893  0.041840000000
 CC301   CN8B     1  0.338541512893  0.041840000000
 CC301    CN9     1  0.338541512893  0.041840000000
 CC301    CNA     1  0.346773417049  0.110698234855
 CC301   CNA2     1  0.338541512893  0.110698234855
 CC301   CNE1     1  0.355468588538  0.109105371453
 CC301   CNE2     1  0.354577689820  0.105847757841
 CC301    CNG     1  0.347450500075  0.138767581228
 CC301   CO2P     1  0.251910521541  0.164138698618
 CC301   CO3P     1  0.192264852362  0.144393471099
 CC301    COA     1  0.347450500075  0.138767581228
 CC301    CP1     1  0.338541512893  0.041840000000
 CC301    CP2     1  0.338541512893  0.041840000000
 CC301    CP3     1  0.338541512893  0.041840000000
 CC301    CPA     1  0.329632525712  0.125520000000
 CC301    CPB     1  0.329632525712  0.125520000000
 CC301   CPD1     1  0.338541512893  0.041840000000
 CC301   CPH1     1  0.329632525712  0.093557084179
 CC301   CPH2     1  0.329632525712  0.093557084179
 CC301    CPM     1  0.329632525712  0.125520000000
 CC301    CPT     1  0.334977918021  0.131646486622
 CC301   CR2P     1  0.263634748672  0.170828164985
 CC301   CR33     1  0.338541512893  0.041840000000
 CC301   CR3P     1  0.244382427373  0.145299904804
 CC301   CRL1     1  0.338541512893  0.041840000000
 CC301   CRL2     1  0.338541512893  0.041840000000
 CC301   CRN1     1  0.347450500075  0.138767581228
 CC301     CS     1  0.365268474438  0.138767581228
 CC301    CST     1  0.308518226092  0.100764063435
 CC301     CT     1  0.338541512893  0.041840000000
 CC301    CT1     1  0.338541512893  0.041840000000
 CC301   CT1X     1  0.338541512893  0.041840000000
 CC301    CT2     1  0.338541512893  0.041840000000
 CC301   CT2A     1  0.338541512893  0.041840000000
 CC301   CT2P     1  0.338541512893  0.041840000000
 CC301   CT2X     1  0.338541512893  0.041840000000
 CC301    CT3     1  0.338541512893  0.041840000000
 CC301   CT3X     1  0.338541512893  0.041840000000
 CC301   CTD1     1  0.338541512893  0.041840000000
 CC301   CTL1     1  0.338541512893  0.041840000000
 CC301   CTL2     1  0.338541512893  0.041840000000
 CC301   CTL3     1  0.338541512893  0.041840000000
 CC301   CTL5     1  0.338541512893  0.041840000000
 CC301   CTO1     1  0.338541512893  0.041840000000
 CC301   CTO2     1  0.338541512893  0.041840000000
 CC301     CU     1  0.285800308779  0.908997471504
 CC301   CU1P     1  0.246066225950  0.180057894334
 CC301   CU2P     1  0.233869822499  0.162315474555
 CC301     CY     1  0.346559601357  0.113045454929
 CC301    DUM     1  0.169270756447  0.000000000000
 CC301   DY3P     1  0.297952167295  0.171135318061
 CC301   ER3P     1  0.291083338178  0.169232326746
 CC301   EU2P     1  0.333231756533  0.203602227414
 CC301   EU3P     1  0.304954631219  0.174528477447
 CC301     F1     1  0.314487247504  0.153729976257
 CC301     F2     1  0.314487247504  0.135577095411
 CC301     F3     1  0.311814551349  0.130309939452
 CC301     FA     1  0.320723538531  0.144938011577
 CC301     FE     1  0.227179173126  0.000000000000
 CC301   FE2P     1  0.265496726993  0.167098295383
 CC301   FE3P     1  0.219722350855  0.148045032716
 CC301   FGA1     1  0.314487247504  0.153729976257
 CC301   FGA2     1  0.314487247504  0.135577095411
 CC301   FGA3     1  0.311814551349  0.130309939452
 CC301   FGP1     1  0.311814551349  0.130309939452
 CC301   FGR1     1  0.320723538531  0.144938011577
 CC301    FNA     1  0.320723538531  0.144938011577
 CC301   GA3P     1  0.189485248361  0.145299904804
 CC301   GD3P     1  0.303351013527  0.173673803114
 CC301      H     1  0.189271432669  0.089736802707
 CC301     HA     1  0.286869387241  0.062058748940
 CC301    HA1     1  0.288651184677  0.088756043175
 CC301    HA2     1  0.288651184677  0.077149148019
 CC301    HA3     1  0.288651184677  0.064818249282
 CC301    HAL     1  0.286869387241  0.062058748940
 CC301   HAL1     1  0.286869387241  0.062058748940
 CC301   HAL2     1  0.288651184677  0.070011711020
 CC301   HAL3     1  0.288651184677  0.064818249282
 CC301     HB     1  0.286869387241  0.062058748940
 CC301    HB1     1  0.286869387241  0.062058748940
 CC301    HB2     1  0.288651184677  0.070011711020
 CC301    HBL     1  0.286869387241  0.062058748940
 CC301     HC     1  0.189271432669  0.089736802707
 CC301   HCA1     1  0.288651184677  0.088756043175
 CC301  HCA1A     1  0.288651184677  0.088756043175
 CC301 HCA1C2     1  0.288651184677  0.088756043175
 CC301   HCA2     1  0.288651184677  0.078275472531
 CC301 HCA25A     1  0.285087589805  0.078275472531
 CC301  HCA2A     1  0.288651184677  0.078275472531
 CC301 HCA2C2     1  0.285087589805  0.078275472531
 CC301   HCA3     1  0.288651184677  0.064818249282
 CC301  HCA3A     1  0.288651184677  0.064818249282
 CC301  HCA3M     1  0.288651184677  0.064818249282
 CC301    HCL     1  0.189271432669  0.089736802707
 CC301   HCP1     1  0.189271432669  0.089736802707
 CC301  HCP1M     1  0.189271432669  0.089736802707
 CC301   HCR1     1  0.240542653898  0.089736802707
 CC301     HE     1  0.301123766731  0.061020452073
 CC301    HE1     1  0.280633096214  0.073666921749
 CC301    HE2     1  0.281523994932  0.067464972838
 CC301   HEL1     1  0.280633096214  0.073666921749
 CC301   HEL2     1  0.281523994932  0.067464972838
 CC301    HF1     1  0.286869387241  0.070011711020
 CC301    HF2     1  0.285087589805  0.072469005789
 CC301   HG2P     1  0.274557166956  0.189623385225
 CC301   HGA1     1  0.288651184677  0.088756043175
 CC301   HGA2     1  0.288651184677  0.078275472531
 CC301   HGA3     1  0.288651184677  0.064818249282
 CC301   HGA4     1  0.280633096214  0.073666921749
 CC301   HGA5     1  0.281523994932  0.067464972838
 CC301   HGA6     1  0.286869387241  0.070011711020
 CC301   HGA7     1  0.285087589805  0.072469005789
 CC301 HGAAM0     1  0.283305792369  0.070011711020
 CC301 HGAAM1     1  0.283305792369  0.070011711020
 CC301 HGAAM2     1  0.281523994932  0.083680000000
 CC301   HGP1     1  0.189271432669  0.089736802707
 CC301   HGP2     1  0.189271432669  0.089736802707
 CC301   HGP3     1  0.209361198763  0.132309697301
 CC301   HGP4     1  0.189271432669  0.089736802707
 CC301   HGP5     1  0.231633666716  0.089736802707
 CC301 HGPAM1     1  0.247224394284  0.039692909190
 CC301 HGPAM2     1  0.247224394284  0.041840000000
 CC301 HGPAM3     1  0.246778944925  0.045833423612
 CC301  HGR51     1  0.290272620344  0.072469005789
 CC301  HGR52     1  0.249451641079  0.089736802707
 CC301  HGR53     1  0.231633666716  0.089736802707
 CC301  HGR61     1  0.290272620344  0.072469005789
 CC301  HGR62     1  0.267269615442  0.089736802707
 CC301  HGR63     1  0.249451641079  0.089736802707
 CC301  HGR71     1  0.290272620344  0.072469005789
 CC301     HL     1  0.231633666716  0.089736802707
 CC301  HLGA1     1  0.288651184677  0.088756043175
 CC301  HLGA2     1  0.288651184677  0.078275472531
 CC301  HLGA3     1  0.288651184677  0.064818249282
 CC301  HLGA4     1  0.280633096214  0.073666921749
 CC301  HLGP1     1  0.189271432669  0.089736802707
 CC301 HLGR52     1  0.249451641079  0.089736802707
 CC301 HLGR61     1  0.290272620344  0.072469005789
 CC301 HLGR62     1  0.267269615442  0.089736802707
 CC301    HN1     1  0.189271432669  0.089736802707
 CC301    HN2     1  0.189271432669  0.089736802707
 CC301    HN3     1  0.267269615442  0.089736802707
 CC301   HN3B     1  0.249451641079  0.089736802707
 CC301    HN4     1  0.189271432669  0.089736802707
 CC301    HN5     1  0.189271432669  0.089736802707
 CC301    HN6     1  0.286869387241  0.062058748940
 CC301    HN7     1  0.286869387241  0.062058748940
 CC301    HN8     1  0.288651184677  0.070011711020
 CC301    HN9     1  0.288651184677  0.064818249282
 CC301   HNE1     1  0.280633096214  0.073666921749
 CC301   HNE2     1  0.281523994932  0.067464972838
 CC301    HNP     1  0.290272620344  0.072469005789
 CC301   HO3P     1  0.293168041178  0.170263611896
 CC301    HOL     1  0.189271432669  0.089736802707
 CC301     HP     1  0.290272620344  0.072469005789
 CC301   HPER     1  0.189271432669  0.089736802707
 CC301    HR1     1  0.249451641079  0.089736802707
 CC301    HR2     1  0.231633666716  0.089736802707
 CC301    HR3     1  0.300054688270  0.036952087465
 CC301   HRA3     1  0.288651184677  0.064818249282
 CC301   HRM1     1  0.247224394284  0.039692909190
 CC301   HRM2     1  0.247224394284  0.041840000000
 CC301   HRP2     1  0.189271432669  0.089736802707
 CC301     HS     1  0.209361198763  0.132309697301
 CC301   HSIA     1  0.286869387241  0.062058748940
 CC301   HSIO     1  0.189271432669  0.089736802707
 CC301     HT     1  0.189271432669  0.089736802707
 CC301     HX     1  0.189271432669  0.089736802707
 CC301   IGR1     1  0.368832069310  0.301712530731
 CC301   IN3P     1  0.246449312399  0.160580590010
 CC301   LA3P     1  0.327200372211  0.182184255566
 CC301    LIT     1  0.284864865125  0.020196198771
 CC301    LPH     1  0.169270756447  0.000000000000
 CC301   LU3P     1  0.289648991242  0.166731218816
 CC301     MG     1  0.274842254546  0.051243325419
 CC301   MN2P     1  0.276508235149  0.171747976291
 CC301   MN3P     1  0.203516903172  0.148045032716
 CC301      N     1  0.334087019303  0.004184000000
 CC301     NC     1  0.334087019303  0.324091246411
 CC301    NC2     1  0.334087019303  0.187114168357
 CC301  NC2D1     1  0.307360057758  0.187114168357
 CC301  NC311     1  0.347450500075  0.088756043175
 CC301   ND3P     1  0.313587439798  0.177117175768
 CC301     NE     1  0.305578260322  0.122698965603
 CC301  NG1T1     1  0.328741626994  0.177512086349
 CC301  NG2D1     1  0.334087019303  0.187114168357
 CC301  NG2O1     1  0.334087019303  0.187114168357
 CC301  NG2P1     1  0.334087019303  0.187114168357
 CC301 NG2R43     1  0.334087019303  0.187114168357
 CC301 NG2R50     1  0.334087019303  0.187114168357
 CC301 NG2R51     1  0.334087019303  0.187114168357
 CC301 NG2R52     1  0.334087019303  0.187114168357
 CC301 NG2R53     1  0.334087019303  0.187114168357
 CC301 NG2R57     1  0.334087019303  0.187114168357
 CC301 NG2R60     1  0.337650614175  0.102486650838
 CC301 NG2R61     1  0.334087019303  0.187114168357
 CC301 NG2R62     1  0.352795892384  0.093557084179
 CC301 NG2R67     1  0.334087019303  0.187114168357
 CC301 NG2RC0     1  0.334087019303  0.187114168357
 CC301  NG2S0     1  0.334087019303  0.004184000000
 CC301  NG2S1     1  0.307360057758  0.187114168357
 CC301  NG2S2     1  0.334087019303  0.187114168357
 CC301  NG2S3     1  0.334087019303  0.187114168357
 CC301  NG301     1  0.347450500075  0.078275472531
 CC301  NG311     1  0.347450500075  0.088756043175
 CC301  NG321     1  0.346559601357  0.102486650838
 CC301  NG331     1  0.345668702638  0.110698234855
 CC301 NG3C51     1  0.334087019303  0.187114168357
 CC301  NG3N1     1  0.351904993665  0.102486650838
 CC301  NG3P0     1  0.334087019303  0.187114168357
 CC301  NG3P1     1  0.334087019303  0.187114168357
 CC301  NG3P2     1  0.334087019303  0.187114168357
 CC301  NG3P3     1  0.334087019303  0.187114168357
 CC301    NH1     1  0.307360057758  0.187114168357
 CC301    NH2     1  0.334087019303  0.187114168357
 CC301    NH3     1  0.334087019303  0.187114168357
 CC301   NH3L     1  0.334087019303  0.187114168357
 CC301    NHL     1  0.307360057758  0.187114168357
 CC301     NI     1  0.282949432881  0.994525446633
 CC301   NI2P     1  0.238787583423  0.158440517242
 CC301    NN1     1  0.334087019303  0.187114168357
 CC301   NN1C     1  0.334087019303  0.187114168357
 CC301    NN2     1  0.334087019303  0.187114168357
 CC301   NN2B     1  0.334087019303  0.187114168357
 CC301   NN2C     1  0.334087019303  0.187114168357
 CC301   NN2G     1  0.334087019303  0.187114168357
 CC301   NN2U     1  0.334087019303  0.187114168357
 CC301    NN3     1  0.334087019303  0.187114168357
 CC301   NN3A     1  0.334087019303  0.187114168357
 CC301   NN3G     1  0.334087019303  0.187114168357
 CC301   NN3I     1  0.334087019303  0.187114168357
 CC301    NN4     1  0.334087019303  0.187114168357
 CC301    NN6     1  0.334087019303  0.187114168357
 CC301    NNG     1  0.334087019303  0.187114168357
 CC301     NP     1  0.334087019303  0.187114168357
 CC301    NPH     1  0.334087019303  0.187114168357
 CC301    NR1     1  0.334087019303  0.187114168357
 CC301    NR2     1  0.334087019303  0.187114168357
 CC301    NR3     1  0.334087019303  0.187114168357
 CC301   NRC4     1  0.334087019303  0.187114168357
 CC301   NRN1     1  0.347450500075  0.280671252536
 CC301   NRN2     1  0.346559601357  0.102486650838
 CC301    NS1     1  0.334087019303  0.187114168357
 CC301    NS2     1  0.334087019303  0.187114168357
 CC301    NTL     1  0.334087019303  0.187114168357
 CC301     NY     1  0.334087019303  0.187114168357
 CC301      O     1  0.293996576986  0.144938011577
 CC301    O2L     1  0.320723538531  0.144938011577
 CC301    OAL     1  0.326959829558  0.163176000000
 CC301     OB     1  0.293996576986  0.144938011577
 CC301    OBL     1  0.293996576986  0.144938011577
 CC301     OC     1  0.320723538531  0.144938011577
 CC301  OC2D1     1  0.293996576986  0.144938011577
 CC301  OC2D2     1  0.320723538531  0.144938011577
 CC301  OC2D3     1  0.293996576986  0.144938011577
 CC301  OC2D4     1  0.293996576986  0.144938011577
 CC301  OC2DP     1  0.320723538531  0.144938011577
 CC301  OC301     1  0.316269044940  0.132309697301
 CC301  OC302     1  0.316269044940  0.132309697301
 CC301  OC303     1  0.316269044940  0.132309697301
 CC301 OC305A     1  0.316269044940  0.132309697301
 CC301  OC30A     1  0.316269044940  0.132309697301
 CC301  OC30P     1  0.326959829558  0.163176000000
 CC301  OC311     1  0.326514380198  0.183381431383
 CC301 OC311M     1  0.326514380198  0.183381431383
 CC301  OC312     1  0.326959829558  0.163176000000
 CC301 OC3C51     1  0.316269044940  0.132309697301
 CC301 OC3C5M     1  0.316269044940  0.132309697301
 CC301 OC3C61     1  0.316269044940  0.132309697301
 CC301    OCA     1  0.293996576986  0.144938011577
 CC301    OCL     1  0.320723538531  0.144938011577
 CC301  OG2D1     1  0.293996576986  0.144938011577
 CC301  OG2D2     1  0.320723538531  0.144938011577
 CC301  OG2D3     1  0.293996576986  0.144938011577
 CC301  OG2D4     1  0.320723538531  0.144938011577
 CC301  OG2D5     1  0.320010819556  0.169954883425
 CC301  OG2N1     1  0.320723538531  0.144938011577
 CC301  OG2P1     1  0.320723538531  0.144938011577
 CC301 OG2R50     1  0.320723538531  0.144938011577
 CC301  OG2S1     1  0.318906105146  0.157831660601
 CC301  OG301     1  0.316269044940  0.132309697301
 CC301  OG302     1  0.316269044940  0.132309697301
 CC301  OG303     1  0.316269044940  0.132309697301
 CC301  OG304     1  0.316269044940  0.132309697301
 CC301  OG311     1  0.326514380198  0.183381431383
 CC301  OG312     1  0.325178032121  0.144938011577
 CC301 OG3C31     1  0.316269044940  0.132309697301
 CC301 OG3C51     1  0.316269044940  0.132309697301
 CC301 OG3C61     1  0.316269044940  0.132309697301
 CC301 OG3R60     1  0.316269044940  0.132309697301
 CC301    OH1     1  0.326959829558  0.163176000000
 CC301    OHL     1  0.326959829558  0.163176000000
 CC301   OLG1     1  0.293996576986  0.144938011577
 CC301   OLG2     1  0.320723538531  0.144938011577
 CC301   OLG3     1  0.320723538531  0.144938011577
 CC301   OLG4     1  0.316269044940  0.132309697301
 CC301   OLG5     1  0.316269044940  0.132309697301
 CC301   OLG6     1  0.326514380198  0.183381431383
 CC301   OLG7     1  0.316269044940  0.132309697301
 CC301   OLG8     1  0.316269044940  0.132309697301
 CC301     OM     1  0.320723538531  0.144938011577
 CC301    ON1     1  0.320723538531  0.144938011577
 CC301   ON1C     1  0.320723538531  0.144938011577
 CC301    ON2     1  0.326959829558  0.163176000000
 CC301   ON2B     1  0.326959829558  0.163176000000
 CC301   ON2M     1  0.316269044940  0.132309697301
 CC301    ON3     1  0.320723538531  0.144938011577
 CC301    ON4     1  0.326959829558  0.163176000000
 CC301    ON5     1  0.326959829558  0.163176000000
 CC301    ON6     1  0.326959829558  0.163176000000
 CC301   ON6B     1  0.326959829558  0.163176000000
 CC301   OPER     1  0.318427692534  0.188901923946
 CC301     OS     1  0.326959829558  0.163176000000
 CC301   OSIA     1  0.326959829558  0.163176000000
 CC301   OSIE     1  0.326959829558  0.163176000000
 CC301   OSIH     1  0.326959829558  0.163176000000
 CC301    OSL     1  0.316269044940  0.132309697301
 CC301   OSLP     1  0.316269044940  0.132309697301
 CC301    OST     1  0.320010819556  0.169954883425
 CC301     OT     1  0.326799467788  0.163176000000
 CC301     OX     1  0.320723538531  0.144938011577
 CC301      P     1  0.360813980847  0.320014464673
 CC301     P2     1  0.360813980847  0.320014464673
 CC301     P3     1  0.360813980847  0.320014464673
 CC301     P4     1  0.360813980847  0.320014464673
 CC301     PB     1  0.328073452955  0.716185437439
 CC301   PB2P     1  0.325890751096  0.204716924713
 CC301     PC     1  0.360813980847  0.320014464673
 CC301     PD     1  0.294842930769  1.037598257516
 CC301   PD2P     1  0.251865976605  0.174628752363
 CC301    PG0     1  0.360813980847  0.320014464673
 CC301    PG1     1  0.360813980847  0.320014464673
 CC301    PG2     1  0.360813980847  0.320014464673
 CC301     PL     1  0.360813980847  0.320014464673
 CC301   PM3P     1  0.316910492017  0.176275053255
 CC301    POT     1  0.326403017859  0.123410269913
 CC301   PR3P     1  0.317079762773  0.178642591472
 CC301     PT     1  0.296001099102  1.168527606863
 CC301   PT2P     1  0.240284293270  0.168973521997
 CC301   PU3P     1  0.318024115415  0.179522368790
 CC301   RA2P     1  0.355459679551  0.229891668540
 CC301   RH3P     1  0.210367914314  0.149983415617
 CC301    RUB     1  0.338541512893  0.162045623205
 CC301      S     1  0.347450500075  0.280671252536
 CC301     SC     1  0.356359487256  0.286840588481
 CC301   SC3P     1  0.266993436839  0.157109060719
 CC301  SEGD1     1  0.363041227642  0.330244580395
 CC301  SG2D1     1  0.351904993665  0.314496560236
 CC301  SG2P1     1  0.355798221064  0.332305491450
 CC301  SG2P2     1  0.352314807076  0.329421919951
 CC301 SG2R50     1  0.347450500075  0.280671252536
 CC301  SG301     1  0.345223253279  0.257919081884
 CC301  SG302     1  0.365268474438  0.286840588481
 CC301  SG311     1  0.347450500075  0.280671252536
 CC301  SG3O1     1  0.356359487256  0.286840588481
 CC301  SG3O2     1  0.347450500075  0.247528778125
 CC301  SG3O3     1  0.347450500075  0.247528778125
 CC301     SI     1  0.365268474438  0.324091246411
 CC301   SIH3     1  0.365268474438  0.324091246411
 CC301     SL     1  0.356359487256  0.286840588481
 CC301     SM     1  0.345223253279  0.257919081884
 CC301   SM2P     1  0.334666103469  0.207012887251
 CC301   SM3P     1  0.308847858618  0.175378986746
 CC301   SN2P     1  0.316981763914  0.181365662197
 CC301    SOD     1  0.294954293108  0.090610410351
 CC301     SP     1  0.365268474438  0.280671252536
 CC301   SR2P     1  0.334612649546  0.200133451797
 CC301     SS     1  0.365268474438  0.286840588481
 CC301   TB3P     1  0.300678317372  0.172155203837
 CC301   TI1P     1  0.341276571958  0.266826378666
 CC301   TI3P     1  0.243117351193  0.149983415617
 CC301   TL3P     1  0.246716582015  0.168869889039
 CC301   TM3P     1  0.289417357575  0.168402751521
 CC301    U3P     1  0.320830446377  0.182184255566
 CC301    V2P     1  0.267599247968  0.167830039933
 CC301    V3P     1  0.223989755715  0.147096016316
 CC301    Y3P     1  0.295190381269  0.170263611896
 CC301   YB2P     1  0.312616360195  0.189623385225
 CC301   YB3P     1  0.284659958420  0.167569069413
 CC301     ZN     1  0.266378716724  0.209200000000
CC3051 CC3051     1  0.338541512893  0.041840000000
CC3051 CC3062     1  0.338541512893  0.041840000000
CC3051  CC30A     1  0.338541512893  0.041840000000
CC3051  CC311     1  0.338541512893  0.041840000000
CC3051 CC311C     1  0.338541512893  0.041840000000
CC3051 CC311D     1  0.338541512893  0.041840000000
CC3051  CC312     1  0.338541512893  0.041840000000
CC3051 CC312C     1  0.338541512893  0.041840000000
CC3051 CC312D     1  0.338541512893  0.041840000000
CC3051 CC3151     1  0.338541512893  0.041840000000
CC3051 CC3152     1  0.338541512893  0.041840000000
CC3051 CC3153     1  0.338541512893  0.041840000000
CC3051 CC3161     1  0.338541512893  0.041840000000
CC3051 CC3162     1  0.338541512893  0.041840000000
CC3051 CC3163     1  0.338541512893  0.041840000000
CC3051  CC31A     1  0.338541512893  0.041840000000
CC3051  CC321     1  0.338541512893  0.041840000000
CC3051 CC321C     1  0.338541512893  0.041840000000
CC3051 CC321D     1  0.338541512893  0.041840000000
CC3051  CC322     1  0.338541512893  0.041840000000
CC3051 CC322C     1  0.338541512893  0.041840000000
CC3051 CC3251     1  0.338541512893  0.041840000000
CC3051 CC325A     1  0.338541512893  0.041840000000
CC3051 CC325B     1  0.338541512893  0.041840000000
CC3051 CC3261     1  0.338541512893  0.041840000000
CC3051 CC3263     1  0.338541512893  0.041840000000
CC3051 CC326A     1  0.338541512893  0.041840000000
CC3051  CC32A     1  0.338541512893  0.041840000000
CC3051  CC331     1  0.338541512893  0.041840000000
CC3051  CC33A     1  0.338541512893  0.041840000000
CC3051    CCL     1  0.347450500075  0.110698234855
CC3051     CD     1  0.347450500075  0.110698234855
CC3051    CE1     1  0.355468588538  0.109105371453
CC3051    CE2     1  0.354577689820  0.105847757841
CC3051   CE3P     1  0.321748072056  0.179522368790
CC3051   CEL1     1  0.355468588538  0.109105371453
CC3051   CEL2     1  0.354577689820  0.105847757841
CC3051   CEL3     1  0.355468588538  0.109105371453
CC3051    CES     1  0.356359487256  0.182376331798
CC3051    CF1     1  0.338541512893  0.102486650838
CC3051    CF2     1  0.351904993665  0.085746484010
CC3051    CF3     1  0.374177461619  0.059170695450
CC3051  CG1N1     1  0.335868816739  0.177512086349
CC3051  CG1T1     1  0.333196120584  0.170981810495
CC3051  CG1T2     1  0.346782326036  0.134409982486
CC3051 CG251O     1  0.355468588538  0.109105371453
CC3051 CG252O     1  0.355468588538  0.109105371453
CC3051 CG25C1     1  0.355468588538  0.109105371453
CC3051 CG25C2     1  0.355468588538  0.109105371453
CC3051  CG2D1     1  0.355468588538  0.109105371453
CC3051 CG2D1O     1  0.355468588538  0.109105371453
CC3051  CG2D2     1  0.354577689820  0.105847757841
CC3051 CG2D2O     1  0.355468588538  0.109105371453
CC3051 CG2DC1     1  0.355468588538  0.109105371453
CC3051 CG2DC2     1  0.355468588538  0.109105371453
CC3051 CG2DC3     1  0.354577689820  0.105847757841
CC3051  CG2N1     1  0.347450500075  0.138767581228
CC3051  CG2N2     1  0.347450500075  0.138767581228
CC3051  CG2O1     1  0.347450500075  0.138767581228
CC3051  CG2O2     1  0.320723538531  0.130979917850
CC3051  CG2O3     1  0.347450500075  0.110698234855
CC3051  CG2O4     1  0.329632525712  0.102486650838
CC3051  CG2O5     1  0.347450500075  0.125520000000
CC3051  CG2O6     1  0.347450500075  0.110698234855
CC3051  CG2O7     1  0.308518226092  0.100764063435
CC3051 CG2R51     1  0.356359487256  0.093557084179
CC3051 CG2R52     1  0.365268474438  0.059170695450
CC3051 CG2R53     1  0.365268474438  0.059170695450
CC3051 CG2R57     1  0.356359487256  0.093557084179
CC3051 CG2R61     1  0.346773417049  0.110698234855
CC3051 CG2R62     1  0.338541512893  0.125520000000
CC3051 CG2R63     1  0.338541512893  0.132309697301
CC3051 CG2R64     1  0.356359487256  0.083680000000
CC3051 CG2R66     1  0.338541512893  0.110698234855
CC3051 CG2R67     1  0.346773417049  0.110698234855
CC3051 CG2R71     1  0.346987232741  0.108300154755
CC3051 CG2RC0     1  0.334977918021  0.131646486622
CC3051 CG2RC7     1  0.334977918021  0.131646486622
CC3051  CG301     1  0.338541512893  0.041840000000
CC3051  CG302     1  0.374177461619  0.059170695450
CC3051  CG311     1  0.338541512893  0.041840000000
CC3051  CG312     1  0.351904993665  0.085746484010
CC3051  CG314     1  0.338541512893  0.041840000000
CC3051  CG321     1  0.338541512893  0.041840000000
CC3051  CG322     1  0.338541512893  0.102486650838
CC3051  CG323     1  0.365268474438  0.138767581228
CC3051  CG324     1  0.338541512893  0.041840000000
CC3051  CG331     1  0.338541512893  0.041840000000
CC3051  CG334     1  0.338541512893  0.041840000000
CC3051 CG3AM0     1  0.344777803920  0.110698234855
CC3051 CG3AM1     1  0.345668702638  0.116852760686
CC3051 CG3AM2     1  0.346559601357  0.118341390899
CC3051 CG3C31     1  0.338541512893  0.041840000000
CC3051 CG3C41     1  0.338541512893  0.041840000000
CC3051 CG3C50     1  0.338541512893  0.041840000000
CC3051 CG3C51     1  0.338541512893  0.041840000000
CC3051 CG3C52     1  0.338541512893  0.041840000000
CC3051 CG3C53     1  0.338541512893  0.041840000000
CC3051 CG3C54     1  0.338541512893  0.041840000000
CC3051 CG3RC1     1  0.338541512893  0.041840000000
CC3051     CL     1  0.347450500075  0.110698234855
CC3051    CLA     1  0.371504765465  0.162045623205
CC3051   CLAL     1  0.339272049842  0.072469005789
CC3051  CLG01     1  0.355468588538  0.109105371453
CC3051  CLG02     1  0.355468588538  0.109105371453
CC3051  CLG03     1  0.320723538531  0.130979917850
CC3051  CLG04     1  0.347450500075  0.110698234855
CC3051  CLG05     1  0.329632525712  0.102486650838
CC3051  CLG06     1  0.346773417049  0.110698234855
CC3051 CLG06A     1  0.346773417049  0.110698234855
CC3051 CLG06B     1  0.346773417049  0.110698234855
CC3051  CLG07     1  0.338541512893  0.125520000000
CC3051  CLG08     1  0.338541512893  0.132309697301
CC3051  CLG09     1  0.346773417049  0.110698234855
CC3051  CLG10     1  0.334977918021  0.131646486622
CC3051  CLG11     1  0.338541512893  0.041840000000
CC3051  CLG12     1  0.338541512893  0.041840000000
CC3051  CLG13     1  0.338541512893  0.041840000000
CC3051  CLG14     1  0.338541512893  0.041840000000
CC3051  CLG15     1  0.338541512893  0.041840000000
CC3051  CLG16     1  0.338541512893  0.041840000000
CC3051  CLGA1     1  0.339432411611  0.245040988571
CC3051  CLGA3     1  0.339432411611  0.232955260941
CC3051  CLGR1     1  0.334977918021  0.200657590935
CC3051     CM     1  0.356359487256  0.138767581228
CC3051     CN     1  0.325178032121  0.187114168357
CC3051    CN1     1  0.338541512893  0.132309697301
CC3051   CN1A     1  0.347450500075  0.110698234855
CC3051   CN1T     1  0.338541512893  0.132309697301
CC3051    CN2     1  0.338541512893  0.132309697301
CC3051    CN3     1  0.338541512893  0.125520000000
CC3051   CN3A     1  0.329632525712  0.177512086349
CC3051   CN3B     1  0.329632525712  0.177512086349
CC3051   CN3C     1  0.329632525712  0.177512086349
CC3051   CN3D     1  0.338541512893  0.125520000000
CC3051   CN3T     1  0.338541512893  0.125520000000
CC3051    CN4     1  0.338541512893  0.114583559030
CC3051    CN5     1  0.338541512893  0.114583559030
CC3051   CN5G     1  0.338541512893  0.114583559030
CC3051    CN6     1  0.338541512893  0.041840000000
CC3051    CN7     1  0.338541512893  0.041840000000
CC3051   CN7B     1  0.338541512893  0.041840000000
CC3051   CN7E     1  0.338541512893  0.041840000000
CC3051    CN8     1  0.338541512893  0.041840000000
CC3051   CN8B     1  0.338541512893  0.041840000000
CC3051    CN9     1  0.338541512893  0.041840000000
CC3051    CNA     1  0.346773417049  0.110698234855
CC3051   CNA2     1  0.338541512893  0.110698234855
CC3051   CNE1     1  0.355468588538  0.109105371453
CC3051   CNE2     1  0.354577689820  0.105847757841
CC3051    CNG     1  0.347450500075  0.138767581228
CC3051   CO2P     1  0.251910521541  0.164138698618
CC3051   CO3P     1  0.192264852362  0.144393471099
CC3051    COA     1  0.347450500075  0.138767581228
CC3051    CP1     1  0.338541512893  0.041840000000
CC3051    CP2     1  0.338541512893  0.041840000000
CC3051    CP3     1  0.338541512893  0.041840000000
CC3051    CPA     1  0.329632525712  0.125520000000
CC3051    CPB     1  0.329632525712  0.125520000000
CC3051   CPD1     1  0.338541512893  0.041840000000
CC3051   CPH1     1  0.329632525712  0.093557084179
CC3051   CPH2     1  0.329632525712  0.093557084179
CC3051    CPM     1  0.329632525712  0.125520000000
CC3051    CPT     1  0.334977918021  0.131646486622
CC3051   CR2P     1  0.263634748672  0.170828164985
CC3051   CR33     1  0.338541512893  0.041840000000
CC3051   CR3P     1  0.244382427373  0.145299904804
CC3051   CRL1     1  0.338541512893  0.041840000000
CC3051   CRL2     1  0.338541512893  0.041840000000
CC3051   CRN1     1  0.347450500075  0.138767581228
CC3051     CS     1  0.365268474438  0.138767581228
CC3051    CST     1  0.308518226092  0.100764063435
CC3051     CT     1  0.338541512893  0.041840000000
CC3051    CT1     1  0.338541512893  0.041840000000
CC3051   CT1X     1  0.338541512893  0.041840000000
CC3051    CT2     1  0.338541512893  0.041840000000
CC3051   CT2A     1  0.338541512893  0.041840000000
CC3051   CT2P     1  0.338541512893  0.041840000000
CC3051   CT2X     1  0.338541512893  0.041840000000
CC3051    CT3     1  0.338541512893  0.041840000000
CC3051   CT3X     1  0.338541512893  0.041840000000
CC3051   CTD1     1  0.338541512893  0.041840000000
CC3051   CTL1     1  0.338541512893  0.041840000000
CC3051   CTL2     1  0.338541512893  0.041840000000
CC3051   CTL3     1  0.338541512893  0.041840000000
CC3051   CTL5     1  0.338541512893  0.041840000000
CC3051   CTO1     1  0.338541512893  0.041840000000
CC3051   CTO2     1  0.338541512893  0.041840000000
CC3051     CU     1  0.285800308779  0.908997471504
CC3051   CU1P     1  0.246066225950  0.180057894334
CC3051   CU2P     1  0.233869822499  0.162315474555
CC3051     CY     1  0.346559601357  0.113045454929
CC3051    DUM     1  0.169270756447  0.000000000000
CC3051   DY3P     1  0.297952167295  0.171135318061
CC3051   ER3P     1  0.291083338178  0.169232326746
CC3051   EU2P     1  0.333231756533  0.203602227414
CC3051   EU3P     1  0.304954631219  0.174528477447
CC3051     F1     1  0.314487247504  0.153729976257
CC3051     F2     1  0.314487247504  0.135577095411
CC3051     F3     1  0.311814551349  0.130309939452
CC3051     FA     1  0.320723538531  0.144938011577
CC3051     FE     1  0.227179173126  0.000000000000
CC3051   FE2P     1  0.265496726993  0.167098295383
CC3051   FE3P     1  0.219722350855  0.148045032716
CC3051   FGA1     1  0.314487247504  0.153729976257
CC3051   FGA2     1  0.314487247504  0.135577095411
CC3051   FGA3     1  0.311814551349  0.130309939452
CC3051   FGP1     1  0.311814551349  0.130309939452
CC3051   FGR1     1  0.320723538531  0.144938011577
CC3051    FNA     1  0.320723538531  0.144938011577
CC3051   GA3P     1  0.189485248361  0.145299904804
CC3051   GD3P     1  0.303351013527  0.173673803114
CC3051      H     1  0.189271432669  0.089736802707
CC3051     HA     1  0.286869387241  0.062058748940
CC3051    HA1     1  0.288651184677  0.088756043175
CC3051    HA2     1  0.288651184677  0.077149148019
CC3051    HA3     1  0.288651184677  0.064818249282
CC3051    HAL     1  0.286869387241  0.062058748940
CC3051   HAL1     1  0.286869387241  0.062058748940
CC3051   HAL2     1  0.288651184677  0.070011711020
CC3051   HAL3     1  0.288651184677  0.064818249282
CC3051     HB     1  0.286869387241  0.062058748940
CC3051    HB1     1  0.286869387241  0.062058748940
CC3051    HB2     1  0.288651184677  0.070011711020
CC3051    HBL     1  0.286869387241  0.062058748940
CC3051     HC     1  0.189271432669  0.089736802707
CC3051   HCA1     1  0.288651184677  0.088756043175
CC3051  HCA1A     1  0.288651184677  0.088756043175
CC3051 HCA1C2     1  0.288651184677  0.088756043175
CC3051   HCA2     1  0.288651184677  0.078275472531
CC3051 HCA25A     1  0.285087589805  0.078275472531
CC3051  HCA2A     1  0.288651184677  0.078275472531
CC3051 HCA2C2     1  0.285087589805  0.078275472531
CC3051   HCA3     1  0.288651184677  0.064818249282
CC3051  HCA3A     1  0.288651184677  0.064818249282
CC3051  HCA3M     1  0.288651184677  0.064818249282
CC3051    HCL     1  0.189271432669  0.089736802707
CC3051   HCP1     1  0.189271432669  0.089736802707
CC3051  HCP1M     1  0.189271432669  0.089736802707
CC3051   HCR1     1  0.240542653898  0.089736802707
CC3051     HE     1  0.301123766731  0.061020452073
CC3051    HE1     1  0.280633096214  0.073666921749
CC3051    HE2     1  0.281523994932  0.067464972838
CC3051   HEL1     1  0.280633096214  0.073666921749
CC3051   HEL2     1  0.281523994932  0.067464972838
CC3051    HF1     1  0.286869387241  0.070011711020
CC3051    HF2     1  0.285087589805  0.072469005789
CC3051   HG2P     1  0.274557166956  0.189623385225
CC3051   HGA1     1  0.288651184677  0.088756043175
CC3051   HGA2     1  0.288651184677  0.078275472531
CC3051   HGA3     1  0.288651184677  0.064818249282
CC3051   HGA4     1  0.280633096214  0.073666921749
CC3051   HGA5     1  0.281523994932  0.067464972838
CC3051   HGA6     1  0.286869387241  0.070011711020
CC3051   HGA7     1  0.285087589805  0.072469005789
CC3051 HGAAM0     1  0.283305792369  0.070011711020
CC3051 HGAAM1     1  0.283305792369  0.070011711020
CC3051 HGAAM2     1  0.281523994932  0.083680000000
CC3051   HGP1     1  0.189271432669  0.089736802707
CC3051   HGP2     1  0.189271432669  0.089736802707
CC3051   HGP3     1  0.209361198763  0.132309697301
CC3051   HGP4     1  0.189271432669  0.089736802707
CC3051   HGP5     1  0.231633666716  0.089736802707
CC3051 HGPAM1     1  0.247224394284  0.039692909190
CC3051 HGPAM2     1  0.247224394284  0.041840000000
CC3051 HGPAM3     1  0.246778944925  0.045833423612
CC3051  HGR51     1  0.290272620344  0.072469005789
CC3051  HGR52     1  0.249451641079  0.089736802707
CC3051  HGR53     1  0.231633666716  0.089736802707
CC3051  HGR61     1  0.290272620344  0.072469005789
CC3051  HGR62     1  0.267269615442  0.089736802707
CC3051  HGR63     1  0.249451641079  0.089736802707
CC3051  HGR71     1  0.290272620344  0.072469005789
CC3051     HL     1  0.231633666716  0.089736802707
CC3051  HLGA1     1  0.288651184677  0.088756043175
CC3051  HLGA2     1  0.288651184677  0.078275472531
CC3051  HLGA3     1  0.288651184677  0.064818249282
CC3051  HLGA4     1  0.280633096214  0.073666921749
CC3051  HLGP1     1  0.189271432669  0.089736802707
CC3051 HLGR52     1  0.249451641079  0.089736802707
CC3051 HLGR61     1  0.290272620344  0.072469005789
CC3051 HLGR62     1  0.267269615442  0.089736802707
CC3051    HN1     1  0.189271432669  0.089736802707
CC3051    HN2     1  0.189271432669  0.089736802707
CC3051    HN3     1  0.267269615442  0.089736802707
CC3051   HN3B     1  0.249451641079  0.089736802707
CC3051    HN4     1  0.189271432669  0.089736802707
CC3051    HN5     1  0.189271432669  0.089736802707
CC3051    HN6     1  0.286869387241  0.062058748940
CC3051    HN7     1  0.286869387241  0.062058748940
CC3051    HN8     1  0.288651184677  0.070011711020
CC3051    HN9     1  0.288651184677  0.064818249282
CC3051   HNE1     1  0.280633096214  0.073666921749
CC3051   HNE2     1  0.281523994932  0.067464972838
CC3051    HNP     1  0.290272620344  0.072469005789
CC3051   HO3P     1  0.293168041178  0.170263611896
CC3051    HOL     1  0.189271432669  0.089736802707
CC3051     HP     1  0.290272620344  0.072469005789
CC3051   HPER     1  0.189271432669  0.089736802707
CC3051    HR1     1  0.249451641079  0.089736802707
CC3051    HR2     1  0.231633666716  0.089736802707
CC3051    HR3     1  0.300054688270  0.036952087465
CC3051   HRA3     1  0.288651184677  0.064818249282
CC3051   HRM1     1  0.247224394284  0.039692909190
CC3051   HRM2     1  0.247224394284  0.041840000000
CC3051   HRP2     1  0.189271432669  0.089736802707
CC3051     HS     1  0.209361198763  0.132309697301
CC3051   HSIA     1  0.286869387241  0.062058748940
CC3051   HSIO     1  0.189271432669  0.089736802707
CC3051     HT     1  0.189271432669  0.089736802707
CC3051     HX     1  0.189271432669  0.089736802707
CC3051   IGR1     1  0.368832069310  0.301712530731
CC3051   IN3P     1  0.246449312399  0.160580590010
CC3051   LA3P     1  0.327200372211  0.182184255566
CC3051    LIT     1  0.284864865125  0.020196198771
CC3051    LPH     1  0.169270756447  0.000000000000
CC3051   LU3P     1  0.289648991242  0.166731218816
CC3051     MG     1  0.274842254546  0.051243325419
CC3051   MN2P     1  0.276508235149  0.171747976291
CC3051   MN3P     1  0.203516903172  0.148045032716
CC3051      N     1  0.334087019303  0.004184000000
CC3051     NC     1  0.334087019303  0.324091246411
CC3051    NC2     1  0.334087019303  0.187114168357
CC3051  NC2D1     1  0.307360057758  0.187114168357
CC3051  NC311     1  0.347450500075  0.088756043175
CC3051   ND3P     1  0.313587439798  0.177117175768
CC3051     NE     1  0.305578260322  0.122698965603
CC3051  NG1T1     1  0.328741626994  0.177512086349
CC3051  NG2D1     1  0.334087019303  0.187114168357
CC3051  NG2O1     1  0.334087019303  0.187114168357
CC3051  NG2P1     1  0.334087019303  0.187114168357
CC3051 NG2R43     1  0.334087019303  0.187114168357
CC3051 NG2R50     1  0.334087019303  0.187114168357
CC3051 NG2R51     1  0.334087019303  0.187114168357
CC3051 NG2R52     1  0.334087019303  0.187114168357
CC3051 NG2R53     1  0.334087019303  0.187114168357
CC3051 NG2R57     1  0.334087019303  0.187114168357
CC3051 NG2R60     1  0.337650614175  0.102486650838
CC3051 NG2R61     1  0.334087019303  0.187114168357
CC3051 NG2R62     1  0.352795892384  0.093557084179
CC3051 NG2R67     1  0.334087019303  0.187114168357
CC3051 NG2RC0     1  0.334087019303  0.187114168357
CC3051  NG2S0     1  0.334087019303  0.004184000000
CC3051  NG2S1     1  0.307360057758  0.187114168357
CC3051  NG2S2     1  0.334087019303  0.187114168357
CC3051  NG2S3     1  0.334087019303  0.187114168357
CC3051  NG301     1  0.347450500075  0.078275472531
CC3051  NG311     1  0.347450500075  0.088756043175
CC3051  NG321     1  0.346559601357  0.102486650838
CC3051  NG331     1  0.345668702638  0.110698234855
CC3051 NG3C51     1  0.334087019303  0.187114168357
CC3051  NG3N1     1  0.351904993665  0.102486650838
CC3051  NG3P0     1  0.334087019303  0.187114168357
CC3051  NG3P1     1  0.334087019303  0.187114168357
CC3051  NG3P2     1  0.334087019303  0.187114168357
CC3051  NG3P3     1  0.334087019303  0.187114168357
CC3051    NH1     1  0.307360057758  0.187114168357
CC3051    NH2     1  0.334087019303  0.187114168357
CC3051    NH3     1  0.334087019303  0.187114168357
CC3051   NH3L     1  0.334087019303  0.187114168357
CC3051    NHL     1  0.307360057758  0.187114168357
CC3051     NI     1  0.282949432881  0.994525446633
CC3051   NI2P     1  0.238787583423  0.158440517242
CC3051    NN1     1  0.334087019303  0.187114168357
CC3051   NN1C     1  0.334087019303  0.187114168357
CC3051    NN2     1  0.334087019303  0.187114168357
CC3051   NN2B     1  0.334087019303  0.187114168357
CC3051   NN2C     1  0.334087019303  0.187114168357
CC3051   NN2G     1  0.334087019303  0.187114168357
CC3051   NN2U     1  0.334087019303  0.187114168357
CC3051    NN3     1  0.334087019303  0.187114168357
CC3051   NN3A     1  0.334087019303  0.187114168357
CC3051   NN3G     1  0.334087019303  0.187114168357
CC3051   NN3I     1  0.334087019303  0.187114168357
CC3051    NN4     1  0.334087019303  0.187114168357
CC3051    NN6     1  0.334087019303  0.187114168357
CC3051    NNG     1  0.334087019303  0.187114168357
CC3051     NP     1  0.334087019303  0.187114168357
CC3051    NPH     1  0.334087019303  0.187114168357
CC3051    NR1     1  0.334087019303  0.187114168357
CC3051    NR2     1  0.334087019303  0.187114168357
CC3051    NR3     1  0.334087019303  0.187114168357
CC3051   NRC4     1  0.334087019303  0.187114168357
CC3051   NRN1     1  0.347450500075  0.280671252536
CC3051   NRN2     1  0.346559601357  0.102486650838
CC3051    NS1     1  0.334087019303  0.187114168357
CC3051    NS2     1  0.334087019303  0.187114168357
CC3051    NTL     1  0.334087019303  0.187114168357
CC3051     NY     1  0.334087019303  0.187114168357
CC3051      O     1  0.293996576986  0.144938011577
CC3051    O2L     1  0.320723538531  0.144938011577
CC3051    OAL     1  0.326959829558  0.163176000000
CC3051     OB     1  0.293996576986  0.144938011577
CC3051    OBL     1  0.293996576986  0.144938011577
CC3051     OC     1  0.320723538531  0.144938011577
CC3051  OC2D1     1  0.293996576986  0.144938011577
CC3051  OC2D2     1  0.320723538531  0.144938011577
CC3051  OC2D3     1  0.293996576986  0.144938011577
CC3051  OC2D4     1  0.293996576986  0.144938011577
CC3051  OC2DP     1  0.320723538531  0.144938011577
CC3051  OC301     1  0.316269044940  0.132309697301
CC3051  OC302     1  0.316269044940  0.132309697301
CC3051  OC303     1  0.316269044940  0.132309697301
CC3051 OC305A     1  0.316269044940  0.132309697301
CC3051  OC30A     1  0.316269044940  0.132309697301
CC3051  OC30P     1  0.326959829558  0.163176000000
CC3051  OC311     1  0.326514380198  0.183381431383
CC3051 OC311M     1  0.326514380198  0.183381431383
CC3051  OC312     1  0.326959829558  0.163176000000
CC3051 OC3C51     1  0.316269044940  0.132309697301
CC3051 OC3C5M     1  0.316269044940  0.132309697301
CC3051 OC3C61     1  0.316269044940  0.132309697301
CC3051    OCA     1  0.293996576986  0.144938011577
CC3051    OCL     1  0.320723538531  0.144938011577
CC3051  OG2D1     1  0.293996576986  0.144938011577
CC3051  OG2D2     1  0.320723538531  0.144938011577
CC3051  OG2D3     1  0.293996576986  0.144938011577
CC3051  OG2D4     1  0.320723538531  0.144938011577
CC3051  OG2D5     1  0.320010819556  0.169954883425
CC3051  OG2N1     1  0.320723538531  0.144938011577
CC3051  OG2P1     1  0.320723538531  0.144938011577
CC3051 OG2R50     1  0.320723538531  0.144938011577
CC3051  OG2S1     1  0.318906105146  0.157831660601
CC3051  OG301     1  0.316269044940  0.132309697301
CC3051  OG302     1  0.316269044940  0.132309697301
CC3051  OG303     1  0.316269044940  0.132309697301
CC3051  OG304     1  0.316269044940  0.132309697301
CC3051  OG311     1  0.326514380198  0.183381431383
CC3051  OG312     1  0.325178032121  0.144938011577
CC3051 OG3C31     1  0.316269044940  0.132309697301
CC3051 OG3C51     1  0.316269044940  0.132309697301
CC3051 OG3C61     1  0.316269044940  0.132309697301
CC3051 OG3R60     1  0.316269044940  0.132309697301
CC3051    OH1     1  0.326959829558  0.163176000000
CC3051    OHL     1  0.326959829558  0.163176000000
CC3051   OLG1     1  0.293996576986  0.144938011577
CC3051   OLG2     1  0.320723538531  0.144938011577
CC3051   OLG3     1  0.320723538531  0.144938011577
CC3051   OLG4     1  0.316269044940  0.132309697301
CC3051   OLG5     1  0.316269044940  0.132309697301
CC3051   OLG6     1  0.326514380198  0.183381431383
CC3051   OLG7     1  0.316269044940  0.132309697301
CC3051   OLG8     1  0.316269044940  0.132309697301
CC3051     OM     1  0.320723538531  0.144938011577
CC3051    ON1     1  0.320723538531  0.144938011577
CC3051   ON1C     1  0.320723538531  0.144938011577
CC3051    ON2     1  0.326959829558  0.163176000000
CC3051   ON2B     1  0.326959829558  0.163176000000
CC3051   ON2M     1  0.316269044940  0.132309697301
CC3051    ON3     1  0.320723538531  0.144938011577
CC3051    ON4     1  0.326959829558  0.163176000000
CC3051    ON5     1  0.326959829558  0.163176000000
CC3051    ON6     1  0.326959829558  0.163176000000
CC3051   ON6B     1  0.326959829558  0.163176000000
CC3051   OPER     1  0.318427692534  0.188901923946
CC3051     OS     1  0.326959829558  0.163176000000
CC3051   OSIA     1  0.326959829558  0.163176000000
CC3051   OSIE     1  0.326959829558  0.163176000000
CC3051   OSIH     1  0.326959829558  0.163176000000
CC3051    OSL     1  0.316269044940  0.132309697301
CC3051   OSLP     1  0.316269044940  0.132309697301
CC3051    OST     1  0.320010819556  0.169954883425
CC3051     OT     1  0.326799467788  0.163176000000
CC3051     OX     1  0.320723538531  0.144938011577
CC3051      P     1  0.360813980847  0.320014464673
CC3051     P2     1  0.360813980847  0.320014464673
CC3051     P3     1  0.360813980847  0.320014464673
CC3051     P4     1  0.360813980847  0.320014464673
CC3051     PB     1  0.328073452955  0.716185437439
CC3051   PB2P     1  0.325890751096  0.204716924713
CC3051     PC     1  0.360813980847  0.320014464673
CC3051     PD     1  0.294842930769  1.037598257516
CC3051   PD2P     1  0.251865976605  0.174628752363
CC3051    PG0     1  0.360813980847  0.320014464673
CC3051    PG1     1  0.360813980847  0.320014464673
CC3051    PG2     1  0.360813980847  0.320014464673
CC3051     PL     1  0.360813980847  0.320014464673
CC3051   PM3P     1  0.316910492017  0.176275053255
CC3051    POT     1  0.326403017859  0.123410269913
CC3051   PR3P     1  0.317079762773  0.178642591472
CC3051     PT     1  0.296001099102  1.168527606863
CC3051   PT2P     1  0.240284293270  0.168973521997
CC3051   PU3P     1  0.318024115415  0.179522368790
CC3051   RA2P     1  0.355459679551  0.229891668540
CC3051   RH3P     1  0.210367914314  0.149983415617
CC3051    RUB     1  0.338541512893  0.162045623205
CC3051      S     1  0.347450500075  0.280671252536
CC3051     SC     1  0.356359487256  0.286840588481
CC3051   SC3P     1  0.266993436839  0.157109060719
CC3051  SEGD1     1  0.363041227642  0.330244580395
CC3051  SG2D1     1  0.351904993665  0.314496560236
CC3051  SG2P1     1  0.355798221064  0.332305491450
CC3051  SG2P2     1  0.352314807076  0.329421919951
CC3051 SG2R50     1  0.347450500075  0.280671252536
CC3051  SG301     1  0.345223253279  0.257919081884
CC3051  SG302     1  0.365268474438  0.286840588481
CC3051  SG311     1  0.347450500075  0.280671252536
CC3051  SG3O1     1  0.356359487256  0.286840588481
CC3051  SG3O2     1  0.347450500075  0.247528778125
CC3051  SG3O3     1  0.347450500075  0.247528778125
CC3051     SI     1  0.365268474438  0.324091246411
CC3051   SIH3     1  0.365268474438  0.324091246411
CC3051     SL     1  0.356359487256  0.286840588481
CC3051     SM     1  0.345223253279  0.257919081884
CC3051   SM2P     1  0.334666103469  0.207012887251
CC3051   SM3P     1  0.308847858618  0.175378986746
CC3051   SN2P     1  0.316981763914  0.181365662197
CC3051    SOD     1  0.294954293108  0.090610410351
CC3051     SP     1  0.365268474438  0.280671252536
CC3051   SR2P     1  0.334612649546  0.200133451797
CC3051     SS     1  0.365268474438  0.286840588481
CC3051   TB3P     1  0.300678317372  0.172155203837
CC3051   TI1P     1  0.341276571958  0.266826378666
CC3051   TI3P     1  0.243117351193  0.149983415617
CC3051   TL3P     1  0.246716582015  0.168869889039
CC3051   TM3P     1  0.289417357575  0.168402751521
CC3051    U3P     1  0.320830446377  0.182184255566
CC3051    V2P     1  0.267599247968  0.167830039933
CC3051    V3P     1  0.223989755715  0.147096016316
CC3051    Y3P     1  0.295190381269  0.170263611896
CC3051   YB2P     1  0.312616360195  0.189623385225
CC3051   YB3P     1  0.284659958420  0.167569069413
CC3051     ZN     1  0.266378716724  0.209200000000
CC3062 CC3062     1  0.338541512893  0.041840000000
CC3062  CC30A     1  0.338541512893  0.041840000000
CC3062  CC311     1  0.338541512893  0.041840000000
CC3062 CC311C     1  0.338541512893  0.041840000000
CC3062 CC311D     1  0.338541512893  0.041840000000
CC3062  CC312     1  0.338541512893  0.041840000000
CC3062 CC312C     1  0.338541512893  0.041840000000
CC3062 CC312D     1  0.338541512893  0.041840000000
CC3062 CC3151     1  0.338541512893  0.041840000000
CC3062 CC3152     1  0.338541512893  0.041840000000
CC3062 CC3153     1  0.338541512893  0.041840000000
CC3062 CC3161     1  0.338541512893  0.041840000000
CC3062 CC3162     1  0.338541512893  0.041840000000
CC3062 CC3163     1  0.338541512893  0.041840000000
CC3062  CC31A     1  0.338541512893  0.041840000000
CC3062  CC321     1  0.338541512893  0.041840000000
CC3062 CC321C     1  0.338541512893  0.041840000000
CC3062 CC321D     1  0.338541512893  0.041840000000
CC3062  CC322     1  0.338541512893  0.041840000000
CC3062 CC322C     1  0.338541512893  0.041840000000
CC3062 CC3251     1  0.338541512893  0.041840000000
CC3062 CC325A     1  0.338541512893  0.041840000000
CC3062 CC325B     1  0.338541512893  0.041840000000
CC3062 CC3261     1  0.338541512893  0.041840000000
CC3062 CC3263     1  0.338541512893  0.041840000000
CC3062 CC326A     1  0.338541512893  0.041840000000
CC3062  CC32A     1  0.338541512893  0.041840000000
CC3062  CC331     1  0.338541512893  0.041840000000
CC3062  CC33A     1  0.338541512893  0.041840000000
CC3062    CCL     1  0.347450500075  0.110698234855
CC3062     CD     1  0.347450500075  0.110698234855
CC3062    CE1     1  0.355468588538  0.109105371453
CC3062    CE2     1  0.354577689820  0.105847757841
CC3062   CE3P     1  0.321748072056  0.179522368790
CC3062   CEL1     1  0.355468588538  0.109105371453
CC3062   CEL2     1  0.354577689820  0.105847757841
CC3062   CEL3     1  0.355468588538  0.109105371453
CC3062    CES     1  0.356359487256  0.182376331798
CC3062    CF1     1  0.338541512893  0.102486650838
CC3062    CF2     1  0.351904993665  0.085746484010
CC3062    CF3     1  0.374177461619  0.059170695450
CC3062  CG1N1     1  0.335868816739  0.177512086349
CC3062  CG1T1     1  0.333196120584  0.170981810495
CC3062  CG1T2     1  0.346782326036  0.134409982486
CC3062 CG251O     1  0.355468588538  0.109105371453
CC3062 CG252O     1  0.355468588538  0.109105371453
CC3062 CG25C1     1  0.355468588538  0.109105371453
CC3062 CG25C2     1  0.355468588538  0.109105371453
CC3062  CG2D1     1  0.355468588538  0.109105371453
CC3062 CG2D1O     1  0.355468588538  0.109105371453
CC3062  CG2D2     1  0.354577689820  0.105847757841
CC3062 CG2D2O     1  0.355468588538  0.109105371453
CC3062 CG2DC1     1  0.355468588538  0.109105371453
CC3062 CG2DC2     1  0.355468588538  0.109105371453
CC3062 CG2DC3     1  0.354577689820  0.105847757841
CC3062  CG2N1     1  0.347450500075  0.138767581228
CC3062  CG2N2     1  0.347450500075  0.138767581228
CC3062  CG2O1     1  0.347450500075  0.138767581228
CC3062  CG2O2     1  0.320723538531  0.130979917850
CC3062  CG2O3     1  0.347450500075  0.110698234855
CC3062  CG2O4     1  0.329632525712  0.102486650838
CC3062  CG2O5     1  0.347450500075  0.125520000000
CC3062  CG2O6     1  0.347450500075  0.110698234855
CC3062  CG2O7     1  0.308518226092  0.100764063435
CC3062 CG2R51     1  0.356359487256  0.093557084179
CC3062 CG2R52     1  0.365268474438  0.059170695450
CC3062 CG2R53     1  0.365268474438  0.059170695450
CC3062 CG2R57     1  0.356359487256  0.093557084179
CC3062 CG2R61     1  0.346773417049  0.110698234855
CC3062 CG2R62     1  0.338541512893  0.125520000000
CC3062 CG2R63     1  0.338541512893  0.132309697301
CC3062 CG2R64     1  0.356359487256  0.083680000000
CC3062 CG2R66     1  0.338541512893  0.110698234855
CC3062 CG2R67     1  0.346773417049  0.110698234855
CC3062 CG2R71     1  0.346987232741  0.108300154755
CC3062 CG2RC0     1  0.334977918021  0.131646486622
CC3062 CG2RC7     1  0.334977918021  0.131646486622
CC3062  CG301     1  0.338541512893  0.041840000000
CC3062  CG302     1  0.374177461619  0.059170695450
CC3062  CG311     1  0.338541512893  0.041840000000
CC3062  CG312     1  0.351904993665  0.085746484010
CC3062  CG314     1  0.338541512893  0.041840000000
CC3062  CG321     1  0.338541512893  0.041840000000
CC3062  CG322     1  0.338541512893  0.102486650838
CC3062  CG323     1  0.365268474438  0.138767581228
CC3062  CG324     1  0.338541512893  0.041840000000
CC3062  CG331     1  0.338541512893  0.041840000000
CC3062  CG334     1  0.338541512893  0.041840000000
CC3062 CG3AM0     1  0.344777803920  0.110698234855
CC3062 CG3AM1     1  0.345668702638  0.116852760686
CC3062 CG3AM2     1  0.346559601357  0.118341390899
CC3062 CG3C31     1  0.338541512893  0.041840000000
CC3062 CG3C41     1  0.338541512893  0.041840000000
CC3062 CG3C50     1  0.338541512893  0.041840000000
CC3062 CG3C51     1  0.338541512893  0.041840000000
CC3062 CG3C52     1  0.338541512893  0.041840000000
CC3062 CG3C53     1  0.338541512893  0.041840000000
CC3062 CG3C54     1  0.338541512893  0.041840000000
CC3062 CG3RC1     1  0.338541512893  0.041840000000
CC3062     CL     1  0.347450500075  0.110698234855
CC3062    CLA     1  0.371504765465  0.162045623205
CC3062   CLAL     1  0.339272049842  0.072469005789
CC3062  CLG01     1  0.355468588538  0.109105371453
CC3062  CLG02     1  0.355468588538  0.109105371453
CC3062  CLG03     1  0.320723538531  0.130979917850
CC3062  CLG04     1  0.347450500075  0.110698234855
CC3062  CLG05     1  0.329632525712  0.102486650838
CC3062  CLG06     1  0.346773417049  0.110698234855
CC3062 CLG06A     1  0.346773417049  0.110698234855
CC3062 CLG06B     1  0.346773417049  0.110698234855
CC3062  CLG07     1  0.338541512893  0.125520000000
CC3062  CLG08     1  0.338541512893  0.132309697301
CC3062  CLG09     1  0.346773417049  0.110698234855
CC3062  CLG10     1  0.334977918021  0.131646486622
CC3062  CLG11     1  0.338541512893  0.041840000000
CC3062  CLG12     1  0.338541512893  0.041840000000
CC3062  CLG13     1  0.338541512893  0.041840000000
CC3062  CLG14     1  0.338541512893  0.041840000000
CC3062  CLG15     1  0.338541512893  0.041840000000
CC3062  CLG16     1  0.338541512893  0.041840000000
CC3062  CLGA1     1  0.339432411611  0.245040988571
CC3062  CLGA3     1  0.339432411611  0.232955260941
CC3062  CLGR1     1  0.334977918021  0.200657590935
CC3062     CM     1  0.356359487256  0.138767581228
CC3062     CN     1  0.325178032121  0.187114168357
CC3062    CN1     1  0.338541512893  0.132309697301
CC3062   CN1A     1  0.347450500075  0.110698234855
CC3062   CN1T     1  0.338541512893  0.132309697301
CC3062    CN2     1  0.338541512893  0.132309697301
CC3062    CN3     1  0.338541512893  0.125520000000
CC3062   CN3A     1  0.329632525712  0.177512086349
CC3062   CN3B     1  0.329632525712  0.177512086349
CC3062   CN3C     1  0.329632525712  0.177512086349
CC3062   CN3D     1  0.338541512893  0.125520000000
CC3062   CN3T     1  0.338541512893  0.125520000000
CC3062    CN4     1  0.338541512893  0.114583559030
CC3062    CN5     1  0.338541512893  0.114583559030
CC3062   CN5G     1  0.338541512893  0.114583559030
CC3062    CN6     1  0.338541512893  0.041840000000
CC3062    CN7     1  0.338541512893  0.041840000000
CC3062   CN7B     1  0.338541512893  0.041840000000
CC3062   CN7E     1  0.338541512893  0.041840000000
CC3062    CN8     1  0.338541512893  0.041840000000
CC3062   CN8B     1  0.338541512893  0.041840000000
CC3062    CN9     1  0.338541512893  0.041840000000
CC3062    CNA     1  0.346773417049  0.110698234855
CC3062   CNA2     1  0.338541512893  0.110698234855
CC3062   CNE1     1  0.355468588538  0.109105371453
CC3062   CNE2     1  0.354577689820  0.105847757841
CC3062    CNG     1  0.347450500075  0.138767581228
CC3062   CO2P     1  0.251910521541  0.164138698618
CC3062   CO3P     1  0.192264852362  0.144393471099
CC3062    COA     1  0.347450500075  0.138767581228
CC3062    CP1     1  0.338541512893  0.041840000000
CC3062    CP2     1  0.338541512893  0.041840000000
CC3062    CP3     1  0.338541512893  0.041840000000
CC3062    CPA     1  0.329632525712  0.125520000000
CC3062    CPB     1  0.329632525712  0.125520000000
CC3062   CPD1     1  0.338541512893  0.041840000000
CC3062   CPH1     1  0.329632525712  0.093557084179
CC3062   CPH2     1  0.329632525712  0.093557084179
CC3062    CPM     1  0.329632525712  0.125520000000
CC3062    CPT     1  0.334977918021  0.131646486622
CC3062   CR2P     1  0.263634748672  0.170828164985
CC3062   CR33     1  0.338541512893  0.041840000000
CC3062   CR3P     1  0.244382427373  0.145299904804
CC3062   CRL1     1  0.338541512893  0.041840000000
CC3062   CRL2     1  0.338541512893  0.041840000000
CC3062   CRN1     1  0.347450500075  0.138767581228
CC3062     CS     1  0.365268474438  0.138767581228
CC3062    CST     1  0.308518226092  0.100764063435
CC3062     CT     1  0.338541512893  0.041840000000
CC3062    CT1     1  0.338541512893  0.041840000000
CC3062   CT1X     1  0.338541512893  0.041840000000
CC3062    CT2     1  0.338541512893  0.041840000000
CC3062   CT2A     1  0.338541512893  0.041840000000
CC3062   CT2P     1  0.338541512893  0.041840000000
CC3062   CT2X     1  0.338541512893  0.041840000000
CC3062    CT3     1  0.338541512893  0.041840000000
CC3062   CT3X     1  0.338541512893  0.041840000000
CC3062   CTD1     1  0.338541512893  0.041840000000
CC3062   CTL1     1  0.338541512893  0.041840000000
CC3062   CTL2     1  0.338541512893  0.041840000000
CC3062   CTL3     1  0.338541512893  0.041840000000
CC3062   CTL5     1  0.338541512893  0.041840000000
CC3062   CTO1     1  0.338541512893  0.041840000000
CC3062   CTO2     1  0.338541512893  0.041840000000
CC3062     CU     1  0.285800308779  0.908997471504
CC3062   CU1P     1  0.246066225950  0.180057894334
CC3062   CU2P     1  0.233869822499  0.162315474555
CC3062     CY     1  0.346559601357  0.113045454929
CC3062    DUM     1  0.169270756447  0.000000000000
CC3062   DY3P     1  0.297952167295  0.171135318061
CC3062   ER3P     1  0.291083338178  0.169232326746
CC3062   EU2P     1  0.333231756533  0.203602227414
CC3062   EU3P     1  0.304954631219  0.174528477447
CC3062     F1     1  0.314487247504  0.153729976257
CC3062     F2     1  0.314487247504  0.135577095411
CC3062     F3     1  0.311814551349  0.130309939452
CC3062     FA     1  0.320723538531  0.144938011577
CC3062     FE     1  0.227179173126  0.000000000000
CC3062   FE2P     1  0.265496726993  0.167098295383
CC3062   FE3P     1  0.219722350855  0.148045032716
CC3062   FGA1     1  0.314487247504  0.153729976257
CC3062   FGA2     1  0.314487247504  0.135577095411
CC3062   FGA3     1  0.311814551349  0.130309939452
CC3062   FGP1     1  0.311814551349  0.130309939452
CC3062   FGR1     1  0.320723538531  0.144938011577
CC3062    FNA     1  0.320723538531  0.144938011577
CC3062   GA3P     1  0.189485248361  0.145299904804
CC3062   GD3P     1  0.303351013527  0.173673803114
CC3062      H     1  0.189271432669  0.089736802707
CC3062     HA     1  0.286869387241  0.062058748940
CC3062    HA1     1  0.288651184677  0.088756043175
CC3062    HA2     1  0.288651184677  0.077149148019
CC3062    HA3     1  0.288651184677  0.064818249282
CC3062    HAL     1  0.286869387241  0.062058748940
CC3062   HAL1     1  0.286869387241  0.062058748940
CC3062   HAL2     1  0.288651184677  0.070011711020
CC3062   HAL3     1  0.288651184677  0.064818249282
CC3062     HB     1  0.286869387241  0.062058748940
CC3062    HB1     1  0.286869387241  0.062058748940
CC3062    HB2     1  0.288651184677  0.070011711020
CC3062    HBL     1  0.286869387241  0.062058748940
CC3062     HC     1  0.189271432669  0.089736802707
CC3062   HCA1     1  0.288651184677  0.088756043175
CC3062  HCA1A     1  0.288651184677  0.088756043175
CC3062 HCA1C2     1  0.288651184677  0.088756043175
CC3062   HCA2     1  0.288651184677  0.078275472531
CC3062 HCA25A     1  0.285087589805  0.078275472531
CC3062  HCA2A     1  0.288651184677  0.078275472531
CC3062 HCA2C2     1  0.285087589805  0.078275472531
CC3062   HCA3     1  0.288651184677  0.064818249282
CC3062  HCA3A     1  0.288651184677  0.064818249282
CC3062  HCA3M     1  0.288651184677  0.064818249282
CC3062    HCL     1  0.189271432669  0.089736802707
CC3062   HCP1     1  0.189271432669  0.089736802707
CC3062  HCP1M     1  0.189271432669  0.089736802707
CC3062   HCR1     1  0.240542653898  0.089736802707
CC3062     HE     1  0.301123766731  0.061020452073
CC3062    HE1     1  0.280633096214  0.073666921749
CC3062    HE2     1  0.281523994932  0.067464972838
CC3062   HEL1     1  0.280633096214  0.073666921749
CC3062   HEL2     1  0.281523994932  0.067464972838
CC3062    HF1     1  0.286869387241  0.070011711020
CC3062    HF2     1  0.285087589805  0.072469005789
CC3062   HG2P     1  0.274557166956  0.189623385225
CC3062   HGA1     1  0.288651184677  0.088756043175
CC3062   HGA2     1  0.288651184677  0.078275472531
CC3062   HGA3     1  0.288651184677  0.064818249282
CC3062   HGA4     1  0.280633096214  0.073666921749
CC3062   HGA5     1  0.281523994932  0.067464972838
CC3062   HGA6     1  0.286869387241  0.070011711020
CC3062   HGA7     1  0.285087589805  0.072469005789
CC3062 HGAAM0     1  0.283305792369  0.070011711020
CC3062 HGAAM1     1  0.283305792369  0.070011711020
CC3062 HGAAM2     1  0.281523994932  0.083680000000
CC3062   HGP1     1  0.189271432669  0.089736802707
CC3062   HGP2     1  0.189271432669  0.089736802707
CC3062   HGP3     1  0.209361198763  0.132309697301
CC3062   HGP4     1  0.189271432669  0.089736802707
CC3062   HGP5     1  0.231633666716  0.089736802707
CC3062 HGPAM1     1  0.247224394284  0.039692909190
CC3062 HGPAM2     1  0.247224394284  0.041840000000
CC3062 HGPAM3     1  0.246778944925  0.045833423612
CC3062  HGR51     1  0.290272620344  0.072469005789
CC3062  HGR52     1  0.249451641079  0.089736802707
CC3062  HGR53     1  0.231633666716  0.089736802707
CC3062  HGR61     1  0.290272620344  0.072469005789
CC3062  HGR62     1  0.267269615442  0.089736802707
CC3062  HGR63     1  0.249451641079  0.089736802707
CC3062  HGR71     1  0.290272620344  0.072469005789
CC3062     HL     1  0.231633666716  0.089736802707
CC3062  HLGA1     1  0.288651184677  0.088756043175
CC3062  HLGA2     1  0.288651184677  0.078275472531
CC3062  HLGA3     1  0.288651184677  0.064818249282
CC3062  HLGA4     1  0.280633096214  0.073666921749
CC3062  HLGP1     1  0.189271432669  0.089736802707
CC3062 HLGR52     1  0.249451641079  0.089736802707
CC3062 HLGR61     1  0.290272620344  0.072469005789
CC3062 HLGR62     1  0.267269615442  0.089736802707
CC3062    HN1     1  0.189271432669  0.089736802707
CC3062    HN2     1  0.189271432669  0.089736802707
CC3062    HN3     1  0.267269615442  0.089736802707
CC3062   HN3B     1  0.249451641079  0.089736802707
CC3062    HN4     1  0.189271432669  0.089736802707
CC3062    HN5     1  0.189271432669  0.089736802707
CC3062    HN6     1  0.286869387241  0.062058748940
CC3062    HN7     1  0.286869387241  0.062058748940
CC3062    HN8     1  0.288651184677  0.070011711020
CC3062    HN9     1  0.288651184677  0.064818249282
CC3062   HNE1     1  0.280633096214  0.073666921749
CC3062   HNE2     1  0.281523994932  0.067464972838
CC3062    HNP     1  0.290272620344  0.072469005789
CC3062   HO3P     1  0.293168041178  0.170263611896
CC3062    HOL     1  0.189271432669  0.089736802707
CC3062     HP     1  0.290272620344  0.072469005789
CC3062   HPER     1  0.189271432669  0.089736802707
CC3062    HR1     1  0.249451641079  0.089736802707
CC3062    HR2     1  0.231633666716  0.089736802707
CC3062    HR3     1  0.300054688270  0.036952087465
CC3062   HRA3     1  0.288651184677  0.064818249282
CC3062   HRM1     1  0.247224394284  0.039692909190
CC3062   HRM2     1  0.247224394284  0.041840000000
CC3062   HRP2     1  0.189271432669  0.089736802707
CC3062     HS     1  0.209361198763  0.132309697301
CC3062   HSIA     1  0.286869387241  0.062058748940
CC3062   HSIO     1  0.189271432669  0.089736802707
CC3062     HT     1  0.189271432669  0.089736802707
CC3062     HX     1  0.189271432669  0.089736802707
CC3062   IGR1     1  0.368832069310  0.301712530731
CC3062   IN3P     1  0.246449312399  0.160580590010
CC3062   LA3P     1  0.327200372211  0.182184255566
CC3062    LIT     1  0.284864865125  0.020196198771
CC3062    LPH     1  0.169270756447  0.000000000000
CC3062   LU3P     1  0.289648991242  0.166731218816
CC3062     MG     1  0.274842254546  0.051243325419
CC3062   MN2P     1  0.276508235149  0.171747976291
CC3062   MN3P     1  0.203516903172  0.148045032716
CC3062      N     1  0.334087019303  0.004184000000
CC3062     NC     1  0.334087019303  0.324091246411
CC3062    NC2     1  0.334087019303  0.187114168357
CC3062  NC2D1     1  0.307360057758  0.187114168357
CC3062  NC311     1  0.347450500075  0.088756043175
CC3062   ND3P     1  0.313587439798  0.177117175768
CC3062     NE     1  0.305578260322  0.122698965603
CC3062  NG1T1     1  0.328741626994  0.177512086349
CC3062  NG2D1     1  0.334087019303  0.187114168357
CC3062  NG2O1     1  0.334087019303  0.187114168357
CC3062  NG2P1     1  0.334087019303  0.187114168357
CC3062 NG2R43     1  0.334087019303  0.187114168357
CC3062 NG2R50     1  0.334087019303  0.187114168357
CC3062 NG2R51     1  0.334087019303  0.187114168357
CC3062 NG2R52     1  0.334087019303  0.187114168357
CC3062 NG2R53     1  0.334087019303  0.187114168357
CC3062 NG2R57     1  0.334087019303  0.187114168357
CC3062 NG2R60     1  0.337650614175  0.102486650838
CC3062 NG2R61     1  0.334087019303  0.187114168357
CC3062 NG2R62     1  0.352795892384  0.093557084179
CC3062 NG2R67     1  0.334087019303  0.187114168357
CC3062 NG2RC0     1  0.334087019303  0.187114168357
CC3062  NG2S0     1  0.334087019303  0.004184000000
CC3062  NG2S1     1  0.307360057758  0.187114168357
CC3062  NG2S2     1  0.334087019303  0.187114168357
CC3062  NG2S3     1  0.334087019303  0.187114168357
CC3062  NG301     1  0.347450500075  0.078275472531
CC3062  NG311     1  0.347450500075  0.088756043175
CC3062  NG321     1  0.346559601357  0.102486650838
CC3062  NG331     1  0.345668702638  0.110698234855
CC3062 NG3C51     1  0.334087019303  0.187114168357
CC3062  NG3N1     1  0.351904993665  0.102486650838
CC3062  NG3P0     1  0.334087019303  0.187114168357
CC3062  NG3P1     1  0.334087019303  0.187114168357
CC3062  NG3P2     1  0.334087019303  0.187114168357
CC3062  NG3P3     1  0.334087019303  0.187114168357
CC3062    NH1     1  0.307360057758  0.187114168357
CC3062    NH2     1  0.334087019303  0.187114168357
CC3062    NH3     1  0.334087019303  0.187114168357
CC3062   NH3L     1  0.334087019303  0.187114168357
CC3062    NHL     1  0.307360057758  0.187114168357
CC3062     NI     1  0.282949432881  0.994525446633
CC3062   NI2P     1  0.238787583423  0.158440517242
CC3062    NN1     1  0.334087019303  0.187114168357
CC3062   NN1C     1  0.334087019303  0.187114168357
CC3062    NN2     1  0.334087019303  0.187114168357
CC3062   NN2B     1  0.334087019303  0.187114168357
CC3062   NN2C     1  0.334087019303  0.187114168357
CC3062   NN2G     1  0.334087019303  0.187114168357
CC3062   NN2U     1  0.334087019303  0.187114168357
CC3062    NN3     1  0.334087019303  0.187114168357
CC3062   NN3A     1  0.334087019303  0.187114168357
CC3062   NN3G     1  0.334087019303  0.187114168357
CC3062   NN3I     1  0.334087019303  0.187114168357
CC3062    NN4     1  0.334087019303  0.187114168357
CC3062    NN6     1  0.334087019303  0.187114168357
CC3062    NNG     1  0.334087019303  0.187114168357
CC3062     NP     1  0.334087019303  0.187114168357
CC3062    NPH     1  0.334087019303  0.187114168357
CC3062    NR1     1  0.334087019303  0.187114168357
CC3062    NR2     1  0.334087019303  0.187114168357
CC3062    NR3     1  0.334087019303  0.187114168357
CC3062   NRC4     1  0.334087019303  0.187114168357
CC3062   NRN1     1  0.347450500075  0.280671252536
CC3062   NRN2     1  0.346559601357  0.102486650838
CC3062    NS1     1  0.334087019303  0.187114168357
CC3062    NS2     1  0.334087019303  0.187114168357
CC3062    NTL     1  0.334087019303  0.187114168357
CC3062     NY     1  0.334087019303  0.187114168357
CC3062      O     1  0.293996576986  0.144938011577
CC3062    O2L     1  0.320723538531  0.144938011577
CC3062    OAL     1  0.326959829558  0.163176000000
CC3062     OB     1  0.293996576986  0.144938011577
CC3062    OBL     1  0.293996576986  0.144938011577
CC3062     OC     1  0.320723538531  0.144938011577
CC3062  OC2D1     1  0.293996576986  0.144938011577
CC3062  OC2D2     1  0.320723538531  0.144938011577
CC3062  OC2D3     1  0.293996576986  0.144938011577
CC3062  OC2D4     1  0.293996576986  0.144938011577
CC3062  OC2DP     1  0.320723538531  0.144938011577
CC3062  OC301     1  0.316269044940  0.132309697301
CC3062  OC302     1  0.316269044940  0.132309697301
CC3062  OC303     1  0.316269044940  0.132309697301
CC3062 OC305A     1  0.316269044940  0.132309697301
CC3062  OC30A     1  0.316269044940  0.132309697301
CC3062  OC30P     1  0.326959829558  0.163176000000
CC3062  OC311     1  0.326514380198  0.183381431383
CC3062 OC311M     1  0.326514380198  0.183381431383
CC3062  OC312     1  0.326959829558  0.163176000000
CC3062 OC3C51     1  0.316269044940  0.132309697301
CC3062 OC3C5M     1  0.316269044940  0.132309697301
CC3062 OC3C61     1  0.316269044940  0.132309697301
CC3062    OCA     1  0.293996576986  0.144938011577
CC3062    OCL     1  0.320723538531  0.144938011577
CC3062  OG2D1     1  0.293996576986  0.144938011577
CC3062  OG2D2     1  0.320723538531  0.144938011577
CC3062  OG2D3     1  0.293996576986  0.144938011577
CC3062  OG2D4     1  0.320723538531  0.144938011577
CC3062  OG2D5     1  0.320010819556  0.169954883425
CC3062  OG2N1     1  0.320723538531  0.144938011577
CC3062  OG2P1     1  0.320723538531  0.144938011577
CC3062 OG2R50     1  0.320723538531  0.144938011577
CC3062  OG2S1     1  0.318906105146  0.157831660601
CC3062  OG301     1  0.316269044940  0.132309697301
CC3062  OG302     1  0.316269044940  0.132309697301
CC3062  OG303     1  0.316269044940  0.132309697301
CC3062  OG304     1  0.316269044940  0.132309697301
CC3062  OG311     1  0.326514380198  0.183381431383
CC3062  OG312     1  0.325178032121  0.144938011577
CC3062 OG3C31     1  0.316269044940  0.132309697301
CC3062 OG3C51     1  0.316269044940  0.132309697301
CC3062 OG3C61     1  0.316269044940  0.132309697301
CC3062 OG3R60     1  0.316269044940  0.132309697301
CC3062    OH1     1  0.326959829558  0.163176000000
CC3062    OHL     1  0.326959829558  0.163176000000
CC3062   OLG1     1  0.293996576986  0.144938011577
CC3062   OLG2     1  0.320723538531  0.144938011577
CC3062   OLG3     1  0.320723538531  0.144938011577
CC3062   OLG4     1  0.316269044940  0.132309697301
CC3062   OLG5     1  0.316269044940  0.132309697301
CC3062   OLG6     1  0.326514380198  0.183381431383
CC3062   OLG7     1  0.316269044940  0.132309697301
CC3062   OLG8     1  0.316269044940  0.132309697301
CC3062     OM     1  0.320723538531  0.144938011577
CC3062    ON1     1  0.320723538531  0.144938011577
CC3062   ON1C     1  0.320723538531  0.144938011577
CC3062    ON2     1  0.326959829558  0.163176000000
CC3062   ON2B     1  0.326959829558  0.163176000000
CC3062   ON2M     1  0.316269044940  0.132309697301
CC3062    ON3     1  0.320723538531  0.144938011577
CC3062    ON4     1  0.326959829558  0.163176000000
CC3062    ON5     1  0.326959829558  0.163176000000
CC3062    ON6     1  0.326959829558  0.163176000000
CC3062   ON6B     1  0.326959829558  0.163176000000
CC3062   OPER     1  0.318427692534  0.188901923946
CC3062     OS     1  0.326959829558  0.163176000000
CC3062   OSIA     1  0.326959829558  0.163176000000
CC3062   OSIE     1  0.326959829558  0.163176000000
CC3062   OSIH     1  0.326959829558  0.163176000000
CC3062    OSL     1  0.316269044940  0.132309697301
CC3062   OSLP     1  0.316269044940  0.132309697301
CC3062    OST     1  0.320010819556  0.169954883425
CC3062     OT     1  0.326799467788  0.163176000000
CC3062     OX     1  0.320723538531  0.144938011577
CC3062      P     1  0.360813980847  0.320014464673
CC3062     P2     1  0.360813980847  0.320014464673
CC3062     P3     1  0.360813980847  0.320014464673
CC3062     P4     1  0.360813980847  0.320014464673
CC3062     PB     1  0.328073452955  0.716185437439
CC3062   PB2P     1  0.325890751096  0.204716924713
CC3062     PC     1  0.360813980847  0.320014464673
CC3062     PD     1  0.294842930769  1.037598257516
CC3062   PD2P     1  0.251865976605  0.174628752363
CC3062    PG0     1  0.360813980847  0.320014464673
CC3062    PG1     1  0.360813980847  0.320014464673
CC3062    PG2     1  0.360813980847  0.320014464673
CC3062     PL     1  0.360813980847  0.320014464673
CC3062   PM3P     1  0.316910492017  0.176275053255
CC3062    POT     1  0.326403017859  0.123410269913
CC3062   PR3P     1  0.317079762773  0.178642591472
CC3062     PT     1  0.296001099102  1.168527606863
CC3062   PT2P     1  0.240284293270  0.168973521997
CC3062   PU3P     1  0.318024115415  0.179522368790
CC3062   RA2P     1  0.355459679551  0.229891668540
CC3062   RH3P     1  0.210367914314  0.149983415617
CC3062    RUB     1  0.338541512893  0.162045623205
CC3062      S     1  0.347450500075  0.280671252536
CC3062     SC     1  0.356359487256  0.286840588481
CC3062   SC3P     1  0.266993436839  0.157109060719
CC3062  SEGD1     1  0.363041227642  0.330244580395
CC3062  SG2D1     1  0.351904993665  0.314496560236
CC3062  SG2P1     1  0.355798221064  0.332305491450
CC3062  SG2P2     1  0.352314807076  0.329421919951
CC3062 SG2R50     1  0.347450500075  0.280671252536
CC3062  SG301     1  0.345223253279  0.257919081884
CC3062  SG302     1  0.365268474438  0.286840588481
CC3062  SG311     1  0.347450500075  0.280671252536
CC3062  SG3O1     1  0.356359487256  0.286840588481
CC3062  SG3O2     1  0.347450500075  0.247528778125
CC3062  SG3O3     1  0.347450500075  0.247528778125
CC3062     SI     1  0.365268474438  0.324091246411
CC3062   SIH3     1  0.365268474438  0.324091246411
CC3062     SL     1  0.356359487256  0.286840588481
CC3062     SM     1  0.345223253279  0.257919081884
CC3062   SM2P     1  0.334666103469  0.207012887251
CC3062   SM3P     1  0.308847858618  0.175378986746
CC3062   SN2P     1  0.316981763914  0.181365662197
CC3062    SOD     1  0.294954293108  0.090610410351
CC3062     SP     1  0.365268474438  0.280671252536
CC3062   SR2P     1  0.334612649546  0.200133451797
CC3062     SS     1  0.365268474438  0.286840588481
CC3062   TB3P     1  0.300678317372  0.172155203837
CC3062   TI1P     1  0.341276571958  0.266826378666
CC3062   TI3P     1  0.243117351193  0.149983415617
CC3062   TL3P     1  0.246716582015  0.168869889039
CC3062   TM3P     1  0.289417357575  0.168402751521
CC3062    U3P     1  0.320830446377  0.182184255566
CC3062    V2P     1  0.267599247968  0.167830039933
CC3062    V3P     1  0.223989755715  0.147096016316
CC3062    Y3P     1  0.295190381269  0.170263611896
CC3062   YB2P     1  0.312616360195  0.189623385225
CC3062   YB3P     1  0.284659958420  0.167569069413
CC3062     ZN     1  0.266378716724  0.209200000000
 CC30A  CC30A     1  0.338541512893  0.041840000000
 CC30A  CC311     1  0.338541512893  0.041840000000
 CC30A CC311C     1  0.338541512893  0.041840000000
 CC30A CC311D     1  0.338541512893  0.041840000000
 CC30A  CC312     1  0.338541512893  0.041840000000
 CC30A CC312C     1  0.338541512893  0.041840000000
 CC30A CC312D     1  0.338541512893  0.041840000000
 CC30A CC3151     1  0.338541512893  0.041840000000
 CC30A CC3152     1  0.338541512893  0.041840000000
 CC30A CC3153     1  0.338541512893  0.041840000000
 CC30A CC3161     1  0.338541512893  0.041840000000
 CC30A CC3162     1  0.338541512893  0.041840000000
 CC30A CC3163     1  0.338541512893  0.041840000000
 CC30A  CC31A     1  0.338541512893  0.041840000000
 CC30A  CC321     1  0.338541512893  0.041840000000
 CC30A CC321C     1  0.338541512893  0.041840000000
 CC30A CC321D     1  0.338541512893  0.041840000000
 CC30A  CC322     1  0.338541512893  0.041840000000
 CC30A CC322C     1  0.338541512893  0.041840000000
 CC30A CC3251     1  0.338541512893  0.041840000000
 CC30A CC325A     1  0.338541512893  0.041840000000
 CC30A CC325B     1  0.338541512893  0.041840000000
 CC30A CC3261     1  0.338541512893  0.041840000000
 CC30A CC3263     1  0.338541512893  0.041840000000
 CC30A CC326A     1  0.338541512893  0.041840000000
 CC30A  CC32A     1  0.338541512893  0.041840000000
 CC30A  CC331     1  0.338541512893  0.041840000000
 CC30A  CC33A     1  0.338541512893  0.041840000000
 CC30A    CCL     1  0.347450500075  0.110698234855
 CC30A     CD     1  0.347450500075  0.110698234855
 CC30A    CE1     1  0.355468588538  0.109105371453
 CC30A    CE2     1  0.354577689820  0.105847757841
 CC30A   CE3P     1  0.321748072056  0.179522368790
 CC30A   CEL1     1  0.355468588538  0.109105371453
 CC30A   CEL2     1  0.354577689820  0.105847757841
 CC30A   CEL3     1  0.355468588538  0.109105371453
 CC30A    CES     1  0.356359487256  0.182376331798
 CC30A    CF1     1  0.338541512893  0.102486650838
 CC30A    CF2     1  0.351904993665  0.085746484010
 CC30A    CF3     1  0.374177461619  0.059170695450
 CC30A  CG1N1     1  0.335868816739  0.177512086349
 CC30A  CG1T1     1  0.333196120584  0.170981810495
 CC30A  CG1T2     1  0.346782326036  0.134409982486
 CC30A CG251O     1  0.355468588538  0.109105371453
 CC30A CG252O     1  0.355468588538  0.109105371453
 CC30A CG25C1     1  0.355468588538  0.109105371453
 CC30A CG25C2     1  0.355468588538  0.109105371453
 CC30A  CG2D1     1  0.355468588538  0.109105371453
 CC30A CG2D1O     1  0.355468588538  0.109105371453
 CC30A  CG2D2     1  0.354577689820  0.105847757841
 CC30A CG2D2O     1  0.355468588538  0.109105371453
 CC30A CG2DC1     1  0.355468588538  0.109105371453
 CC30A CG2DC2     1  0.355468588538  0.109105371453
 CC30A CG2DC3     1  0.354577689820  0.105847757841
 CC30A  CG2N1     1  0.347450500075  0.138767581228
 CC30A  CG2N2     1  0.347450500075  0.138767581228
 CC30A  CG2O1     1  0.347450500075  0.138767581228
 CC30A  CG2O2     1  0.320723538531  0.130979917850
 CC30A  CG2O3     1  0.347450500075  0.110698234855
 CC30A  CG2O4     1  0.329632525712  0.102486650838
 CC30A  CG2O5     1  0.347450500075  0.125520000000
 CC30A  CG2O6     1  0.347450500075  0.110698234855
 CC30A  CG2O7     1  0.308518226092  0.100764063435
 CC30A CG2R51     1  0.356359487256  0.093557084179
 CC30A CG2R52     1  0.365268474438  0.059170695450
 CC30A CG2R53     1  0.365268474438  0.059170695450
 CC30A CG2R57     1  0.356359487256  0.093557084179
 CC30A CG2R61     1  0.346773417049  0.110698234855
 CC30A CG2R62     1  0.338541512893  0.125520000000
 CC30A CG2R63     1  0.338541512893  0.132309697301
 CC30A CG2R64     1  0.356359487256  0.083680000000
 CC30A CG2R66     1  0.338541512893  0.110698234855
 CC30A CG2R67     1  0.346773417049  0.110698234855
 CC30A CG2R71     1  0.346987232741  0.108300154755
 CC30A CG2RC0     1  0.334977918021  0.131646486622
 CC30A CG2RC7     1  0.334977918021  0.131646486622
 CC30A  CG301     1  0.338541512893  0.041840000000
 CC30A  CG302     1  0.374177461619  0.059170695450
 CC30A  CG311     1  0.338541512893  0.041840000000
 CC30A  CG312     1  0.351904993665  0.085746484010
 CC30A  CG314     1  0.338541512893  0.041840000000
 CC30A  CG321     1  0.338541512893  0.041840000000
 CC30A  CG322     1  0.338541512893  0.102486650838
 CC30A  CG323     1  0.365268474438  0.138767581228
 CC30A  CG324     1  0.338541512893  0.041840000000
 CC30A  CG331     1  0.338541512893  0.041840000000
 CC30A  CG334     1  0.338541512893  0.041840000000
 CC30A CG3AM0     1  0.344777803920  0.110698234855
 CC30A CG3AM1     1  0.345668702638  0.116852760686
 CC30A CG3AM2     1  0.346559601357  0.118341390899
 CC30A CG3C31     1  0.338541512893  0.041840000000
 CC30A CG3C41     1  0.338541512893  0.041840000000
 CC30A CG3C50     1  0.338541512893  0.041840000000
 CC30A CG3C51     1  0.338541512893  0.041840000000
 CC30A CG3C52     1  0.338541512893  0.041840000000
 CC30A CG3C53     1  0.338541512893  0.041840000000
 CC30A CG3C54     1  0.338541512893  0.041840000000
 CC30A CG3RC1     1  0.338541512893  0.041840000000
 CC30A     CL     1  0.347450500075  0.110698234855
 CC30A    CLA     1  0.371504765465  0.162045623205
 CC30A   CLAL     1  0.339272049842  0.072469005789
 CC30A  CLG01     1  0.355468588538  0.109105371453
 CC30A  CLG02     1  0.355468588538  0.109105371453
 CC30A  CLG03     1  0.320723538531  0.130979917850
 CC30A  CLG04     1  0.347450500075  0.110698234855
 CC30A  CLG05     1  0.329632525712  0.102486650838
 CC30A  CLG06     1  0.346773417049  0.110698234855
 CC30A CLG06A     1  0.346773417049  0.110698234855
 CC30A CLG06B     1  0.346773417049  0.110698234855
 CC30A  CLG07     1  0.338541512893  0.125520000000
 CC30A  CLG08     1  0.338541512893  0.132309697301
 CC30A  CLG09     1  0.346773417049  0.110698234855
 CC30A  CLG10     1  0.334977918021  0.131646486622
 CC30A  CLG11     1  0.338541512893  0.041840000000
 CC30A  CLG12     1  0.338541512893  0.041840000000
 CC30A  CLG13     1  0.338541512893  0.041840000000
 CC30A  CLG14     1  0.338541512893  0.041840000000
 CC30A  CLG15     1  0.338541512893  0.041840000000
 CC30A  CLG16     1  0.338541512893  0.041840000000
 CC30A  CLGA1     1  0.339432411611  0.245040988571
 CC30A  CLGA3     1  0.339432411611  0.232955260941
 CC30A  CLGR1     1  0.334977918021  0.200657590935
 CC30A     CM     1  0.356359487256  0.138767581228
 CC30A     CN     1  0.325178032121  0.187114168357
 CC30A    CN1     1  0.338541512893  0.132309697301
 CC30A   CN1A     1  0.347450500075  0.110698234855
 CC30A   CN1T     1  0.338541512893  0.132309697301
 CC30A    CN2     1  0.338541512893  0.132309697301
 CC30A    CN3     1  0.338541512893  0.125520000000
 CC30A   CN3A     1  0.329632525712  0.177512086349
 CC30A   CN3B     1  0.329632525712  0.177512086349
 CC30A   CN3C     1  0.329632525712  0.177512086349
 CC30A   CN3D     1  0.338541512893  0.125520000000
 CC30A   CN3T     1  0.338541512893  0.125520000000
 CC30A    CN4     1  0.338541512893  0.114583559030
 CC30A    CN5     1  0.338541512893  0.114583559030
 CC30A   CN5G     1  0.338541512893  0.114583559030
 CC30A    CN6     1  0.338541512893  0.041840000000
 CC30A    CN7     1  0.338541512893  0.041840000000
 CC30A   CN7B     1  0.338541512893  0.041840000000
 CC30A   CN7E     1  0.338541512893  0.041840000000
 CC30A    CN8     1  0.338541512893  0.041840000000
 CC30A   CN8B     1  0.338541512893  0.041840000000
 CC30A    CN9     1  0.338541512893  0.041840000000
 CC30A    CNA     1  0.346773417049  0.110698234855
 CC30A   CNA2     1  0.338541512893  0.110698234855
 CC30A   CNE1     1  0.355468588538  0.109105371453
 CC30A   CNE2     1  0.354577689820  0.105847757841
 CC30A    CNG     1  0.347450500075  0.138767581228
 CC30A   CO2P     1  0.251910521541  0.164138698618
 CC30A   CO3P     1  0.192264852362  0.144393471099
 CC30A    COA     1  0.347450500075  0.138767581228
 CC30A    CP1     1  0.338541512893  0.041840000000
 CC30A    CP2     1  0.338541512893  0.041840000000
 CC30A    CP3     1  0.338541512893  0.041840000000
 CC30A    CPA     1  0.329632525712  0.125520000000
 CC30A    CPB     1  0.329632525712  0.125520000000
 CC30A   CPD1     1  0.338541512893  0.041840000000
 CC30A   CPH1     1  0.329632525712  0.093557084179
 CC30A   CPH2     1  0.329632525712  0.093557084179
 CC30A    CPM     1  0.329632525712  0.125520000000
 CC30A    CPT     1  0.334977918021  0.131646486622
 CC30A   CR2P     1  0.263634748672  0.170828164985
 CC30A   CR33     1  0.338541512893  0.041840000000
 CC30A   CR3P     1  0.244382427373  0.145299904804
 CC30A   CRL1     1  0.338541512893  0.041840000000
 CC30A   CRL2     1  0.338541512893  0.041840000000
 CC30A   CRN1     1  0.347450500075  0.138767581228
 CC30A     CS     1  0.365268474438  0.138767581228
 CC30A    CST     1  0.308518226092  0.100764063435
 CC30A     CT     1  0.338541512893  0.041840000000
 CC30A    CT1     1  0.338541512893  0.041840000000
 CC30A   CT1X     1  0.338541512893  0.041840000000
 CC30A    CT2     1  0.338541512893  0.041840000000
 CC30A   CT2A     1  0.338541512893  0.041840000000
 CC30A   CT2P     1  0.338541512893  0.041840000000
 CC30A   CT2X     1  0.338541512893  0.041840000000
 CC30A    CT3     1  0.338541512893  0.041840000000
 CC30A   CT3X     1  0.338541512893  0.041840000000
 CC30A   CTD1     1  0.338541512893  0.041840000000
 CC30A   CTL1     1  0.338541512893  0.041840000000
 CC30A   CTL2     1  0.338541512893  0.041840000000
 CC30A   CTL3     1  0.338541512893  0.041840000000
 CC30A   CTL5     1  0.338541512893  0.041840000000
 CC30A   CTO1     1  0.338541512893  0.041840000000
 CC30A   CTO2     1  0.338541512893  0.041840000000
 CC30A     CU     1  0.285800308779  0.908997471504
 CC30A   CU1P     1  0.246066225950  0.180057894334
 CC30A   CU2P     1  0.233869822499  0.162315474555
 CC30A     CY     1  0.346559601357  0.113045454929
 CC30A    DUM     1  0.169270756447  0.000000000000
 CC30A   DY3P     1  0.297952167295  0.171135318061
 CC30A   ER3P     1  0.291083338178  0.169232326746
 CC30A   EU2P     1  0.333231756533  0.203602227414
 CC30A   EU3P     1  0.304954631219  0.174528477447
 CC30A     F1     1  0.314487247504  0.153729976257
 CC30A     F2     1  0.314487247504  0.135577095411
 CC30A     F3     1  0.311814551349  0.130309939452
 CC30A     FA     1  0.320723538531  0.144938011577
 CC30A     FE     1  0.227179173126  0.000000000000
 CC30A   FE2P     1  0.265496726993  0.167098295383
 CC30A   FE3P     1  0.219722350855  0.148045032716
 CC30A   FGA1     1  0.314487247504  0.153729976257
 CC30A   FGA2     1  0.314487247504  0.135577095411
 CC30A   FGA3     1  0.311814551349  0.130309939452
 CC30A   FGP1     1  0.311814551349  0.130309939452
 CC30A   FGR1     1  0.320723538531  0.144938011577
 CC30A    FNA     1  0.320723538531  0.144938011577
 CC30A   GA3P     1  0.189485248361  0.145299904804
 CC30A   GD3P     1  0.303351013527  0.173673803114
 CC30A      H     1  0.189271432669  0.089736802707
 CC30A     HA     1  0.286869387241  0.062058748940
 CC30A    HA1     1  0.288651184677  0.088756043175
 CC30A    HA2     1  0.288651184677  0.077149148019
 CC30A    HA3     1  0.288651184677  0.064818249282
 CC30A    HAL     1  0.286869387241  0.062058748940
 CC30A   HAL1     1  0.286869387241  0.062058748940
 CC30A   HAL2     1  0.288651184677  0.070011711020
 CC30A   HAL3     1  0.288651184677  0.064818249282
 CC30A     HB     1  0.286869387241  0.062058748940
 CC30A    HB1     1  0.286869387241  0.062058748940
 CC30A    HB2     1  0.288651184677  0.070011711020
 CC30A    HBL     1  0.286869387241  0.062058748940
 CC30A     HC     1  0.189271432669  0.089736802707
 CC30A   HCA1     1  0.288651184677  0.088756043175
 CC30A  HCA1A     1  0.288651184677  0.088756043175
 CC30A HCA1C2     1  0.288651184677  0.088756043175
 CC30A   HCA2     1  0.288651184677  0.078275472531
 CC30A HCA25A     1  0.285087589805  0.078275472531
 CC30A  HCA2A     1  0.288651184677  0.078275472531
 CC30A HCA2C2     1  0.285087589805  0.078275472531
 CC30A   HCA3     1  0.288651184677  0.064818249282
 CC30A  HCA3A     1  0.288651184677  0.064818249282
 CC30A  HCA3M     1  0.288651184677  0.064818249282
 CC30A    HCL     1  0.189271432669  0.089736802707
 CC30A   HCP1     1  0.189271432669  0.089736802707
 CC30A  HCP1M     1  0.189271432669  0.089736802707
 CC30A   HCR1     1  0.240542653898  0.089736802707
 CC30A     HE     1  0.301123766731  0.061020452073
 CC30A    HE1     1  0.280633096214  0.073666921749
 CC30A    HE2     1  0.281523994932  0.067464972838
 CC30A   HEL1     1  0.280633096214  0.073666921749
 CC30A   HEL2     1  0.281523994932  0.067464972838
 CC30A    HF1     1  0.286869387241  0.070011711020
 CC30A    HF2     1  0.285087589805  0.072469005789
 CC30A   HG2P     1  0.274557166956  0.189623385225
 CC30A   HGA1     1  0.288651184677  0.088756043175
 CC30A   HGA2     1  0.288651184677  0.078275472531
 CC30A   HGA3     1  0.288651184677  0.064818249282
 CC30A   HGA4     1  0.280633096214  0.073666921749
 CC30A   HGA5     1  0.281523994932  0.067464972838
 CC30A   HGA6     1  0.286869387241  0.070011711020
 CC30A   HGA7     1  0.285087589805  0.072469005789
 CC30A HGAAM0     1  0.283305792369  0.070011711020
 CC30A HGAAM1     1  0.283305792369  0.070011711020
 CC30A HGAAM2     1  0.281523994932  0.083680000000
 CC30A   HGP1     1  0.189271432669  0.089736802707
 CC30A   HGP2     1  0.189271432669  0.089736802707
 CC30A   HGP3     1  0.209361198763  0.132309697301
 CC30A   HGP4     1  0.189271432669  0.089736802707
 CC30A   HGP5     1  0.231633666716  0.089736802707
 CC30A HGPAM1     1  0.247224394284  0.039692909190
 CC30A HGPAM2     1  0.247224394284  0.041840000000
 CC30A HGPAM3     1  0.246778944925  0.045833423612
 CC30A  HGR51     1  0.290272620344  0.072469005789
 CC30A  HGR52     1  0.249451641079  0.089736802707
 CC30A  HGR53     1  0.231633666716  0.089736802707
 CC30A  HGR61     1  0.290272620344  0.072469005789
 CC30A  HGR62     1  0.267269615442  0.089736802707
 CC30A  HGR63     1  0.249451641079  0.089736802707
 CC30A  HGR71     1  0.290272620344  0.072469005789
 CC30A     HL     1  0.231633666716  0.089736802707
 CC30A  HLGA1     1  0.288651184677  0.088756043175
 CC30A  HLGA2     1  0.288651184677  0.078275472531
 CC30A  HLGA3     1  0.288651184677  0.064818249282
 CC30A  HLGA4     1  0.280633096214  0.073666921749
 CC30A  HLGP1     1  0.189271432669  0.089736802707
 CC30A HLGR52     1  0.249451641079  0.089736802707
 CC30A HLGR61     1  0.290272620344  0.072469005789
 CC30A HLGR62     1  0.267269615442  0.089736802707
 CC30A    HN1     1  0.189271432669  0.089736802707
 CC30A    HN2     1  0.189271432669  0.089736802707
 CC30A    HN3     1  0.267269615442  0.089736802707
 CC30A   HN3B     1  0.249451641079  0.089736802707
 CC30A    HN4     1  0.189271432669  0.089736802707
 CC30A    HN5     1  0.189271432669  0.089736802707
 CC30A    HN6     1  0.286869387241  0.062058748940
 CC30A    HN7     1  0.286869387241  0.062058748940
 CC30A    HN8     1  0.288651184677  0.070011711020
 CC30A    HN9     1  0.288651184677  0.064818249282
 CC30A   HNE1     1  0.280633096214  0.073666921749
 CC30A   HNE2     1  0.281523994932  0.067464972838
 CC30A    HNP     1  0.290272620344  0.072469005789
 CC30A   HO3P     1  0.293168041178  0.170263611896
 CC30A    HOL     1  0.189271432669  0.089736802707
 CC30A     HP     1  0.290272620344  0.072469005789
 CC30A   HPER     1  0.189271432669  0.089736802707
 CC30A    HR1     1  0.249451641079  0.089736802707
 CC30A    HR2     1  0.231633666716  0.089736802707
 CC30A    HR3     1  0.300054688270  0.036952087465
 CC30A   HRA3     1  0.288651184677  0.064818249282
 CC30A   HRM1     1  0.247224394284  0.039692909190
 CC30A   HRM2     1  0.247224394284  0.041840000000
 CC30A   HRP2     1  0.189271432669  0.089736802707
 CC30A     HS     1  0.209361198763  0.132309697301
 CC30A   HSIA     1  0.286869387241  0.062058748940
 CC30A   HSIO     1  0.189271432669  0.089736802707
 CC30A     HT     1  0.189271432669  0.089736802707
 CC30A     HX     1  0.189271432669  0.089736802707
 CC30A   IGR1     1  0.368832069310  0.301712530731
 CC30A   IN3P     1  0.246449312399  0.160580590010
 CC30A   LA3P     1  0.327200372211  0.182184255566
 CC30A    LIT     1  0.284864865125  0.020196198771
 CC30A    LPH     1  0.169270756447  0.000000000000
 CC30A   LU3P     1  0.289648991242  0.166731218816
 CC30A     MG     1  0.274842254546  0.051243325419
 CC30A   MN2P     1  0.276508235149  0.171747976291
 CC30A   MN3P     1  0.203516903172  0.148045032716
 CC30A      N     1  0.334087019303  0.004184000000
 CC30A     NC     1  0.334087019303  0.324091246411
 CC30A    NC2     1  0.334087019303  0.187114168357
 CC30A  NC2D1     1  0.307360057758  0.187114168357
 CC30A  NC311     1  0.347450500075  0.088756043175
 CC30A   ND3P     1  0.313587439798  0.177117175768
 CC30A     NE     1  0.305578260322  0.122698965603
 CC30A  NG1T1     1  0.328741626994  0.177512086349
 CC30A  NG2D1     1  0.334087019303  0.187114168357
 CC30A  NG2O1     1  0.334087019303  0.187114168357
 CC30A  NG2P1     1  0.334087019303  0.187114168357
 CC30A NG2R43     1  0.334087019303  0.187114168357
 CC30A NG2R50     1  0.334087019303  0.187114168357
 CC30A NG2R51     1  0.334087019303  0.187114168357
 CC30A NG2R52     1  0.334087019303  0.187114168357
 CC30A NG2R53     1  0.334087019303  0.187114168357
 CC30A NG2R57     1  0.334087019303  0.187114168357
 CC30A NG2R60     1  0.337650614175  0.102486650838
 CC30A NG2R61     1  0.334087019303  0.187114168357
 CC30A NG2R62     1  0.352795892384  0.093557084179
 CC30A NG2R67     1  0.334087019303  0.187114168357
 CC30A NG2RC0     1  0.334087019303  0.187114168357
 CC30A  NG2S0     1  0.334087019303  0.004184000000
 CC30A  NG2S1     1  0.307360057758  0.187114168357
 CC30A  NG2S2     1  0.334087019303  0.187114168357
 CC30A  NG2S3     1  0.334087019303  0.187114168357
 CC30A  NG301     1  0.347450500075  0.078275472531
 CC30A  NG311     1  0.347450500075  0.088756043175
 CC30A  NG321     1  0.346559601357  0.102486650838
 CC30A  NG331     1  0.345668702638  0.110698234855
 CC30A NG3C51     1  0.334087019303  0.187114168357
 CC30A  NG3N1     1  0.351904993665  0.102486650838
 CC30A  NG3P0     1  0.334087019303  0.187114168357
 CC30A  NG3P1     1  0.334087019303  0.187114168357
 CC30A  NG3P2     1  0.334087019303  0.187114168357
 CC30A  NG3P3     1  0.334087019303  0.187114168357
 CC30A    NH1     1  0.307360057758  0.187114168357
 CC30A    NH2     1  0.334087019303  0.187114168357
 CC30A    NH3     1  0.334087019303  0.187114168357
 CC30A   NH3L     1  0.334087019303  0.187114168357
 CC30A    NHL     1  0.307360057758  0.187114168357
 CC30A     NI     1  0.282949432881  0.994525446633
 CC30A   NI2P     1  0.238787583423  0.158440517242
 CC30A    NN1     1  0.334087019303  0.187114168357
 CC30A   NN1C     1  0.334087019303  0.187114168357
 CC30A    NN2     1  0.334087019303  0.187114168357
 CC30A   NN2B     1  0.334087019303  0.187114168357
 CC30A   NN2C     1  0.334087019303  0.187114168357
 CC30A   NN2G     1  0.334087019303  0.187114168357
 CC30A   NN2U     1  0.334087019303  0.187114168357
 CC30A    NN3     1  0.334087019303  0.187114168357
 CC30A   NN3A     1  0.334087019303  0.187114168357
 CC30A   NN3G     1  0.334087019303  0.187114168357
 CC30A   NN3I     1  0.334087019303  0.187114168357
 CC30A    NN4     1  0.334087019303  0.187114168357
 CC30A    NN6     1  0.334087019303  0.187114168357
 CC30A    NNG     1  0.334087019303  0.187114168357
 CC30A     NP     1  0.334087019303  0.187114168357
 CC30A    NPH     1  0.334087019303  0.187114168357
 CC30A    NR1     1  0.334087019303  0.187114168357
 CC30A    NR2     1  0.334087019303  0.187114168357
 CC30A    NR3     1  0.334087019303  0.187114168357
 CC30A   NRC4     1  0.334087019303  0.187114168357
 CC30A   NRN1     1  0.347450500075  0.280671252536
 CC30A   NRN2     1  0.346559601357  0.102486650838
 CC30A    NS1     1  0.334087019303  0.187114168357
 CC30A    NS2     1  0.334087019303  0.187114168357
 CC30A    NTL     1  0.334087019303  0.187114168357
 CC30A     NY     1  0.334087019303  0.187114168357
 CC30A      O     1  0.293996576986  0.144938011577
 CC30A    O2L     1  0.320723538531  0.144938011577
 CC30A    OAL     1  0.326959829558  0.163176000000
 CC30A     OB     1  0.293996576986  0.144938011577
 CC30A    OBL     1  0.293996576986  0.144938011577
 CC30A     OC     1  0.320723538531  0.144938011577
 CC30A  OC2D1     1  0.293996576986  0.144938011577
 CC30A  OC2D2     1  0.320723538531  0.144938011577
 CC30A  OC2D3     1  0.293996576986  0.144938011577
 CC30A  OC2D4     1  0.293996576986  0.144938011577
 CC30A  OC2DP     1  0.320723538531  0.144938011577
 CC30A  OC301     1  0.316269044940  0.132309697301
 CC30A  OC302     1  0.316269044940  0.132309697301
 CC30A  OC303     1  0.316269044940  0.132309697301
 CC30A OC305A     1  0.316269044940  0.132309697301
 CC30A  OC30A     1  0.316269044940  0.132309697301
 CC30A  OC30P     1  0.326959829558  0.163176000000
 CC30A  OC311     1  0.326514380198  0.183381431383
 CC30A OC311M     1  0.326514380198  0.183381431383
 CC30A  OC312     1  0.326959829558  0.163176000000
 CC30A OC3C51     1  0.316269044940  0.132309697301
 CC30A OC3C5M     1  0.316269044940  0.132309697301
 CC30A OC3C61     1  0.316269044940  0.132309697301
 CC30A    OCA     1  0.293996576986  0.144938011577
 CC30A    OCL     1  0.320723538531  0.144938011577
 CC30A  OG2D1     1  0.293996576986  0.144938011577
 CC30A  OG2D2     1  0.320723538531  0.144938011577
 CC30A  OG2D3     1  0.293996576986  0.144938011577
 CC30A  OG2D4     1  0.320723538531  0.144938011577
 CC30A  OG2D5     1  0.320010819556  0.169954883425
 CC30A  OG2N1     1  0.320723538531  0.144938011577
 CC30A  OG2P1     1  0.320723538531  0.144938011577
 CC30A OG2R50     1  0.320723538531  0.144938011577
 CC30A  OG2S1     1  0.318906105146  0.157831660601
 CC30A  OG301     1  0.316269044940  0.132309697301
 CC30A  OG302     1  0.316269044940  0.132309697301
 CC30A  OG303     1  0.316269044940  0.132309697301
 CC30A  OG304     1  0.316269044940  0.132309697301
 CC30A  OG311     1  0.326514380198  0.183381431383
 CC30A  OG312     1  0.325178032121  0.144938011577
 CC30A OG3C31     1  0.316269044940  0.132309697301
 CC30A OG3C51     1  0.316269044940  0.132309697301
 CC30A OG3C61     1  0.316269044940  0.132309697301
 CC30A OG3R60     1  0.316269044940  0.132309697301
 CC30A    OH1     1  0.326959829558  0.163176000000
 CC30A    OHL     1  0.326959829558  0.163176000000
 CC30A   OLG1     1  0.293996576986  0.144938011577
 CC30A   OLG2     1  0.320723538531  0.144938011577
 CC30A   OLG3     1  0.320723538531  0.144938011577
 CC30A   OLG4     1  0.316269044940  0.132309697301
 CC30A   OLG5     1  0.316269044940  0.132309697301
 CC30A   OLG6     1  0.326514380198  0.183381431383
 CC30A   OLG7     1  0.316269044940  0.132309697301
 CC30A   OLG8     1  0.316269044940  0.132309697301
 CC30A     OM     1  0.320723538531  0.144938011577
 CC30A    ON1     1  0.320723538531  0.144938011577
 CC30A   ON1C     1  0.320723538531  0.144938011577
 CC30A    ON2     1  0.326959829558  0.163176000000
 CC30A   ON2B     1  0.326959829558  0.163176000000
 CC30A   ON2M     1  0.316269044940  0.132309697301
 CC30A    ON3     1  0.320723538531  0.144938011577
 CC30A    ON4     1  0.326959829558  0.163176000000
 CC30A    ON5     1  0.326959829558  0.163176000000
 CC30A    ON6     1  0.326959829558  0.163176000000
 CC30A   ON6B     1  0.326959829558  0.163176000000
 CC30A   OPER     1  0.318427692534  0.188901923946
 CC30A     OS     1  0.326959829558  0.163176000000
 CC30A   OSIA     1  0.326959829558  0.163176000000
 CC30A   OSIE     1  0.326959829558  0.163176000000
 CC30A   OSIH     1  0.326959829558  0.163176000000
 CC30A    OSL     1  0.316269044940  0.132309697301
 CC30A   OSLP     1  0.316269044940  0.132309697301
 CC30A    OST     1  0.320010819556  0.169954883425
 CC30A     OT     1  0.326799467788  0.163176000000
 CC30A     OX     1  0.320723538531  0.144938011577
 CC30A      P     1  0.360813980847  0.320014464673
 CC30A     P2     1  0.360813980847  0.320014464673
 CC30A     P3     1  0.360813980847  0.320014464673
 CC30A     P4     1  0.360813980847  0.320014464673
 CC30A     PB     1  0.328073452955  0.716185437439
 CC30A   PB2P     1  0.325890751096  0.204716924713
 CC30A     PC     1  0.360813980847  0.320014464673
 CC30A     PD     1  0.294842930769  1.037598257516
 CC30A   PD2P     1  0.251865976605  0.174628752363
 CC30A    PG0     1  0.360813980847  0.320014464673
 CC30A    PG1     1  0.360813980847  0.320014464673
 CC30A    PG2     1  0.360813980847  0.320014464673
 CC30A     PL     1  0.360813980847  0.320014464673
 CC30A   PM3P     1  0.316910492017  0.176275053255
 CC30A    POT     1  0.326403017859  0.123410269913
 CC30A   PR3P     1  0.317079762773  0.178642591472
 CC30A     PT     1  0.296001099102  1.168527606863
 CC30A   PT2P     1  0.240284293270  0.168973521997
 CC30A   PU3P     1  0.318024115415  0.179522368790
 CC30A   RA2P     1  0.355459679551  0.229891668540
 CC30A   RH3P     1  0.210367914314  0.149983415617
 CC30A    RUB     1  0.338541512893  0.162045623205
 CC30A      S     1  0.347450500075  0.280671252536
 CC30A     SC     1  0.356359487256  0.286840588481
 CC30A   SC3P     1  0.266993436839  0.157109060719
 CC30A  SEGD1     1  0.363041227642  0.330244580395
 CC30A  SG2D1     1  0.351904993665  0.314496560236
 CC30A  SG2P1     1  0.355798221064  0.332305491450
 CC30A  SG2P2     1  0.352314807076  0.329421919951
 CC30A SG2R50     1  0.347450500075  0.280671252536
 CC30A  SG301     1  0.345223253279  0.257919081884
 CC30A  SG302     1  0.365268474438  0.286840588481
 CC30A  SG311     1  0.347450500075  0.280671252536
 CC30A  SG3O1     1  0.356359487256  0.286840588481
 CC30A  SG3O2     1  0.347450500075  0.247528778125
 CC30A  SG3O3     1  0.347450500075  0.247528778125
 CC30A     SI     1  0.365268474438  0.324091246411
 CC30A   SIH3     1  0.365268474438  0.324091246411
 CC30A     SL     1  0.356359487256  0.286840588481
 CC30A     SM     1  0.345223253279  0.257919081884
 CC30A   SM2P     1  0.334666103469  0.207012887251
 CC30A   SM3P     1  0.308847858618  0.175378986746
 CC30A   SN2P     1  0.316981763914  0.181365662197
 CC30A    SOD     1  0.294954293108  0.090610410351
 CC30A     SP     1  0.365268474438  0.280671252536
 CC30A   SR2P     1  0.334612649546  0.200133451797
 CC30A     SS     1  0.365268474438  0.286840588481
 CC30A   TB3P     1  0.300678317372  0.172155203837
 CC30A   TI1P     1  0.341276571958  0.266826378666
 CC30A   TI3P     1  0.243117351193  0.149983415617
 CC30A   TL3P     1  0.246716582015  0.168869889039
 CC30A   TM3P     1  0.289417357575  0.168402751521
 CC30A    U3P     1  0.320830446377  0.182184255566
 CC30A    V2P     1  0.267599247968  0.167830039933
 CC30A    V3P     1  0.223989755715  0.147096016316
 CC30A    Y3P     1  0.295190381269  0.170263611896
 CC30A   YB2P     1  0.312616360195  0.189623385225
 CC30A   YB3P     1  0.284659958420  0.167569069413
 CC30A     ZN     1  0.266378716724  0.209200000000
 CC311  CC311     1  0.338541512893  0.041840000000
 CC311 CC311C     1  0.338541512893  0.041840000000
 CC311 CC311D     1  0.338541512893  0.041840000000
 CC311  CC312     1  0.338541512893  0.041840000000
 CC311 CC312C     1  0.338541512893  0.041840000000
 CC311 CC312D     1  0.338541512893  0.041840000000
 CC311 CC3151     1  0.338541512893  0.041840000000
 CC311 CC3152     1  0.338541512893  0.041840000000
 CC311 CC3153     1  0.338541512893  0.041840000000
 CC311 CC3161     1  0.338541512893  0.041840000000
 CC311 CC3162     1  0.338541512893  0.041840000000
 CC311 CC3163     1  0.338541512893  0.041840000000
 CC311  CC31A     1  0.338541512893  0.041840000000
 CC311  CC321     1  0.338541512893  0.041840000000
 CC311 CC321C     1  0.338541512893  0.041840000000
 CC311 CC321D     1  0.338541512893  0.041840000000
 CC311  CC322     1  0.338541512893  0.041840000000
 CC311 CC322C     1  0.338541512893  0.041840000000
 CC311 CC3251     1  0.338541512893  0.041840000000
 CC311 CC325A     1  0.338541512893  0.041840000000
 CC311 CC325B     1  0.338541512893  0.041840000000
 CC311 CC3261     1  0.338541512893  0.041840000000
 CC311 CC3263     1  0.338541512893  0.041840000000
 CC311 CC326A     1  0.338541512893  0.041840000000
 CC311  CC32A     1  0.338541512893  0.041840000000
 CC311  CC331     1  0.338541512893  0.041840000000
 CC311  CC33A     1  0.338541512893  0.041840000000
 CC311    CCL     1  0.347450500075  0.110698234855
 CC311     CD     1  0.347450500075  0.110698234855
 CC311    CE1     1  0.355468588538  0.109105371453
 CC311    CE2     1  0.354577689820  0.105847757841
 CC311   CE3P     1  0.321748072056  0.179522368790
 CC311   CEL1     1  0.355468588538  0.109105371453
 CC311   CEL2     1  0.354577689820  0.105847757841
 CC311   CEL3     1  0.355468588538  0.109105371453
 CC311    CES     1  0.356359487256  0.182376331798
 CC311    CF1     1  0.338541512893  0.102486650838
 CC311    CF2     1  0.351904993665  0.085746484010
 CC311    CF3     1  0.374177461619  0.059170695450
 CC311  CG1N1     1  0.335868816739  0.177512086349
 CC311  CG1T1     1  0.333196120584  0.170981810495
 CC311  CG1T2     1  0.346782326036  0.134409982486
 CC311 CG251O     1  0.355468588538  0.109105371453
 CC311 CG252O     1  0.355468588538  0.109105371453
 CC311 CG25C1     1  0.355468588538  0.109105371453
 CC311 CG25C2     1  0.355468588538  0.109105371453
 CC311  CG2D1     1  0.355468588538  0.109105371453
 CC311 CG2D1O     1  0.355468588538  0.109105371453
 CC311  CG2D2     1  0.354577689820  0.105847757841
 CC311 CG2D2O     1  0.355468588538  0.109105371453
 CC311 CG2DC1     1  0.355468588538  0.109105371453
 CC311 CG2DC2     1  0.355468588538  0.109105371453
 CC311 CG2DC3     1  0.354577689820  0.105847757841
 CC311  CG2N1     1  0.347450500075  0.138767581228
 CC311  CG2N2     1  0.347450500075  0.138767581228
 CC311  CG2O1     1  0.347450500075  0.138767581228
 CC311  CG2O2     1  0.320723538531  0.130979917850
 CC311  CG2O3     1  0.347450500075  0.110698234855
 CC311  CG2O4     1  0.329632525712  0.102486650838
 CC311  CG2O5     1  0.347450500075  0.125520000000
 CC311  CG2O6     1  0.347450500075  0.110698234855
 CC311  CG2O7     1  0.308518226092  0.100764063435
 CC311 CG2R51     1  0.356359487256  0.093557084179
 CC311 CG2R52     1  0.365268474438  0.059170695450
 CC311 CG2R53     1  0.365268474438  0.059170695450
 CC311 CG2R57     1  0.356359487256  0.093557084179
 CC311 CG2R61     1  0.346773417049  0.110698234855
 CC311 CG2R62     1  0.338541512893  0.125520000000
 CC311 CG2R63     1  0.338541512893  0.132309697301
 CC311 CG2R64     1  0.356359487256  0.083680000000
 CC311 CG2R66     1  0.338541512893  0.110698234855
 CC311 CG2R67     1  0.346773417049  0.110698234855
 CC311 CG2R71     1  0.346987232741  0.108300154755
 CC311 CG2RC0     1  0.334977918021  0.131646486622
 CC311 CG2RC7     1  0.334977918021  0.131646486622
 CC311  CG301     1  0.338541512893  0.041840000000
 CC311  CG302     1  0.374177461619  0.059170695450
 CC311  CG311     1  0.338541512893  0.041840000000
 CC311  CG312     1  0.351904993665  0.085746484010
 CC311  CG314     1  0.338541512893  0.041840000000
 CC311  CG321     1  0.338541512893  0.041840000000
 CC311  CG322     1  0.338541512893  0.102486650838
 CC311  CG323     1  0.365268474438  0.138767581228
 CC311  CG324     1  0.338541512893  0.041840000000
 CC311  CG331     1  0.338541512893  0.041840000000
 CC311  CG334     1  0.338541512893  0.041840000000
 CC311 CG3AM0     1  0.344777803920  0.110698234855
 CC311 CG3AM1     1  0.345668702638  0.116852760686
 CC311 CG3AM2     1  0.346559601357  0.118341390899
 CC311 CG3C31     1  0.338541512893  0.041840000000
 CC311 CG3C41     1  0.338541512893  0.041840000000
 CC311 CG3C50     1  0.338541512893  0.041840000000
 CC311 CG3C51     1  0.338541512893  0.041840000000
 CC311 CG3C52     1  0.338541512893  0.041840000000
 CC311 CG3C53     1  0.338541512893  0.041840000000
 CC311 CG3C54     1  0.338541512893  0.041840000000
 CC311 CG3RC1     1  0.338541512893  0.041840000000
 CC311     CL     1  0.347450500075  0.110698234855
 CC311    CLA     1  0.371504765465  0.162045623205
 CC311   CLAL     1  0.339272049842  0.072469005789
 CC311  CLG01     1  0.355468588538  0.109105371453
 CC311  CLG02     1  0.355468588538  0.109105371453
 CC311  CLG03     1  0.320723538531  0.130979917850
 CC311  CLG04     1  0.347450500075  0.110698234855
 CC311  CLG05     1  0.329632525712  0.102486650838
 CC311  CLG06     1  0.346773417049  0.110698234855
 CC311 CLG06A     1  0.346773417049  0.110698234855
 CC311 CLG06B     1  0.346773417049  0.110698234855
 CC311  CLG07     1  0.338541512893  0.125520000000
 CC311  CLG08     1  0.338541512893  0.132309697301
 CC311  CLG09     1  0.346773417049  0.110698234855
 CC311  CLG10     1  0.334977918021  0.131646486622
 CC311  CLG11     1  0.338541512893  0.041840000000
 CC311  CLG12     1  0.338541512893  0.041840000000
 CC311  CLG13     1  0.338541512893  0.041840000000
 CC311  CLG14     1  0.338541512893  0.041840000000
 CC311  CLG15     1  0.338541512893  0.041840000000
 CC311  CLG16     1  0.338541512893  0.041840000000
 CC311  CLGA1     1  0.339432411611  0.245040988571
 CC311  CLGA3     1  0.339432411611  0.232955260941
 CC311  CLGR1     1  0.334977918021  0.200657590935
 CC311     CM     1  0.356359487256  0.138767581228
 CC311     CN     1  0.325178032121  0.187114168357
 CC311    CN1     1  0.338541512893  0.132309697301
 CC311   CN1A     1  0.347450500075  0.110698234855
 CC311   CN1T     1  0.338541512893  0.132309697301
 CC311    CN2     1  0.338541512893  0.132309697301
 CC311    CN3     1  0.338541512893  0.125520000000
 CC311   CN3A     1  0.329632525712  0.177512086349
 CC311   CN3B     1  0.329632525712  0.177512086349
 CC311   CN3C     1  0.329632525712  0.177512086349
 CC311   CN3D     1  0.338541512893  0.125520000000
 CC311   CN3T     1  0.338541512893  0.125520000000
 CC311    CN4     1  0.338541512893  0.114583559030
 CC311    CN5     1  0.338541512893  0.114583559030
 CC311   CN5G     1  0.338541512893  0.114583559030
 CC311    CN6     1  0.338541512893  0.041840000000
 CC311    CN7     1  0.338541512893  0.041840000000
 CC311   CN7B     1  0.338541512893  0.041840000000
 CC311   CN7E     1  0.338541512893  0.041840000000
 CC311    CN8     1  0.338541512893  0.041840000000
 CC311   CN8B     1  0.338541512893  0.041840000000
 CC311    CN9     1  0.338541512893  0.041840000000
 CC311    CNA     1  0.346773417049  0.110698234855
 CC311   CNA2     1  0.338541512893  0.110698234855
 CC311   CNE1     1  0.355468588538  0.109105371453
 CC311   CNE2     1  0.354577689820  0.105847757841
 CC311    CNG     1  0.347450500075  0.138767581228
 CC311   CO2P     1  0.251910521541  0.164138698618
 CC311   CO3P     1  0.192264852362  0.144393471099
 CC311    COA     1  0.347450500075  0.138767581228
 CC311    CP1     1  0.338541512893  0.041840000000
 CC311    CP2     1  0.338541512893  0.041840000000
 CC311    CP3     1  0.338541512893  0.041840000000
 CC311    CPA     1  0.329632525712  0.125520000000
 CC311    CPB     1  0.329632525712  0.125520000000
 CC311   CPD1     1  0.338541512893  0.041840000000
 CC311   CPH1     1  0.329632525712  0.093557084179
 CC311   CPH2     1  0.329632525712  0.093557084179
 CC311    CPM     1  0.329632525712  0.125520000000
 CC311    CPT     1  0.334977918021  0.131646486622
 CC311   CR2P     1  0.263634748672  0.170828164985
 CC311   CR33     1  0.338541512893  0.041840000000
 CC311   CR3P     1  0.244382427373  0.145299904804
 CC311   CRL1     1  0.338541512893  0.041840000000
 CC311   CRL2     1  0.338541512893  0.041840000000
 CC311   CRN1     1  0.347450500075  0.138767581228
 CC311     CS     1  0.365268474438  0.138767581228
 CC311    CST     1  0.308518226092  0.100764063435
 CC311     CT     1  0.338541512893  0.041840000000
 CC311    CT1     1  0.338541512893  0.041840000000
 CC311   CT1X     1  0.338541512893  0.041840000000
 CC311    CT2     1  0.338541512893  0.041840000000
 CC311   CT2A     1  0.338541512893  0.041840000000
 CC311   CT2P     1  0.338541512893  0.041840000000
 CC311   CT2X     1  0.338541512893  0.041840000000
 CC311    CT3     1  0.338541512893  0.041840000000
 CC311   CT3X     1  0.338541512893  0.041840000000
 CC311   CTD1     1  0.338541512893  0.041840000000
 CC311   CTL1     1  0.338541512893  0.041840000000
 CC311   CTL2     1  0.338541512893  0.041840000000
 CC311   CTL3     1  0.338541512893  0.041840000000
 CC311   CTL5     1  0.338541512893  0.041840000000
 CC311   CTO1     1  0.338541512893  0.041840000000
 CC311   CTO2     1  0.338541512893  0.041840000000
 CC311     CU     1  0.285800308779  0.908997471504
 CC311   CU1P     1  0.246066225950  0.180057894334
 CC311   CU2P     1  0.233869822499  0.162315474555
 CC311     CY     1  0.346559601357  0.113045454929
 CC311    DUM     1  0.169270756447  0.000000000000
 CC311   DY3P     1  0.297952167295  0.171135318061
 CC311   ER3P     1  0.291083338178  0.169232326746
 CC311   EU2P     1  0.333231756533  0.203602227414
 CC311   EU3P     1  0.304954631219  0.174528477447
 CC311     F1     1  0.314487247504  0.153729976257
 CC311     F2     1  0.314487247504  0.135577095411
 CC311     F3     1  0.311814551349  0.130309939452
 CC311     FA     1  0.320723538531  0.144938011577
 CC311     FE     1  0.227179173126  0.000000000000
 CC311   FE2P     1  0.265496726993  0.167098295383
 CC311   FE3P     1  0.219722350855  0.148045032716
 CC311   FGA1     1  0.314487247504  0.153729976257
 CC311   FGA2     1  0.314487247504  0.135577095411
 CC311   FGA3     1  0.311814551349  0.130309939452
 CC311   FGP1     1  0.311814551349  0.130309939452
 CC311   FGR1     1  0.320723538531  0.144938011577
 CC311    FNA     1  0.320723538531  0.144938011577
 CC311   GA3P     1  0.189485248361  0.145299904804
 CC311   GD3P     1  0.303351013527  0.173673803114
 CC311      H     1  0.189271432669  0.089736802707
 CC311     HA     1  0.286869387241  0.062058748940
 CC311    HA1     1  0.288651184677  0.088756043175
 CC311    HA2     1  0.288651184677  0.077149148019
 CC311    HA3     1  0.288651184677  0.064818249282
 CC311    HAL     1  0.286869387241  0.062058748940
 CC311   HAL1     1  0.286869387241  0.062058748940
 CC311   HAL2     1  0.288651184677  0.070011711020
 CC311   HAL3     1  0.288651184677  0.064818249282
 CC311     HB     1  0.286869387241  0.062058748940
 CC311    HB1     1  0.286869387241  0.062058748940
 CC311    HB2     1  0.288651184677  0.070011711020
 CC311    HBL     1  0.286869387241  0.062058748940
 CC311     HC     1  0.189271432669  0.089736802707
 CC311   HCA1     1  0.288651184677  0.088756043175
 CC311  HCA1A     1  0.288651184677  0.088756043175
 CC311 HCA1C2     1  0.288651184677  0.088756043175
 CC311   HCA2     1  0.288651184677  0.078275472531
 CC311 HCA25A     1  0.285087589805  0.078275472531
 CC311  HCA2A     1  0.288651184677  0.078275472531
 CC311 HCA2C2     1  0.285087589805  0.078275472531
 CC311   HCA3     1  0.288651184677  0.064818249282
 CC311  HCA3A     1  0.288651184677  0.064818249282
 CC311  HCA3M     1  0.288651184677  0.064818249282
 CC311    HCL     1  0.189271432669  0.089736802707
 CC311   HCP1     1  0.189271432669  0.089736802707
 CC311  HCP1M     1  0.189271432669  0.089736802707
 CC311   HCR1     1  0.240542653898  0.089736802707
 CC311     HE     1  0.301123766731  0.061020452073
 CC311    HE1     1  0.280633096214  0.073666921749
 CC311    HE2     1  0.281523994932  0.067464972838
 CC311   HEL1     1  0.280633096214  0.073666921749
 CC311   HEL2     1  0.281523994932  0.067464972838
 CC311    HF1     1  0.286869387241  0.070011711020
 CC311    HF2     1  0.285087589805  0.072469005789
 CC311   HG2P     1  0.274557166956  0.189623385225
 CC311   HGA1     1  0.288651184677  0.088756043175
 CC311   HGA2     1  0.288651184677  0.078275472531
 CC311   HGA3     1  0.288651184677  0.064818249282
 CC311   HGA4     1  0.280633096214  0.073666921749
 CC311   HGA5     1  0.281523994932  0.067464972838
 CC311   HGA6     1  0.286869387241  0.070011711020
 CC311   HGA7     1  0.285087589805  0.072469005789
 CC311 HGAAM0     1  0.283305792369  0.070011711020
 CC311 HGAAM1     1  0.283305792369  0.070011711020
 CC311 HGAAM2     1  0.281523994932  0.083680000000
 CC311   HGP1     1  0.189271432669  0.089736802707
 CC311   HGP2     1  0.189271432669  0.089736802707
 CC311   HGP3     1  0.209361198763  0.132309697301
 CC311   HGP4     1  0.189271432669  0.089736802707
 CC311   HGP5     1  0.231633666716  0.089736802707
 CC311 HGPAM1     1  0.247224394284  0.039692909190
 CC311 HGPAM2     1  0.247224394284  0.041840000000
 CC311 HGPAM3     1  0.246778944925  0.045833423612
 CC311  HGR51     1  0.290272620344  0.072469005789
 CC311  HGR52     1  0.249451641079  0.089736802707
 CC311  HGR53     1  0.231633666716  0.089736802707
 CC311  HGR61     1  0.290272620344  0.072469005789
 CC311  HGR62     1  0.267269615442  0.089736802707
 CC311  HGR63     1  0.249451641079  0.089736802707
 CC311  HGR71     1  0.290272620344  0.072469005789
 CC311     HL     1  0.231633666716  0.089736802707
 CC311  HLGA1     1  0.288651184677  0.088756043175
 CC311  HLGA2     1  0.288651184677  0.078275472531
 CC311  HLGA3     1  0.288651184677  0.064818249282
 CC311  HLGA4     1  0.280633096214  0.073666921749
 CC311  HLGP1     1  0.189271432669  0.089736802707
 CC311 HLGR52     1  0.249451641079  0.089736802707
 CC311 HLGR61     1  0.290272620344  0.072469005789
 CC311 HLGR62     1  0.267269615442  0.089736802707
 CC311    HN1     1  0.189271432669  0.089736802707
 CC311    HN2     1  0.189271432669  0.089736802707
 CC311    HN3     1  0.267269615442  0.089736802707
 CC311   HN3B     1  0.249451641079  0.089736802707
 CC311    HN4     1  0.189271432669  0.089736802707
 CC311    HN5     1  0.189271432669  0.089736802707
 CC311    HN6     1  0.286869387241  0.062058748940
 CC311    HN7     1  0.286869387241  0.062058748940
 CC311    HN8     1  0.288651184677  0.070011711020
 CC311    HN9     1  0.288651184677  0.064818249282
 CC311   HNE1     1  0.280633096214  0.073666921749
 CC311   HNE2     1  0.281523994932  0.067464972838
 CC311    HNP     1  0.290272620344  0.072469005789
 CC311   HO3P     1  0.293168041178  0.170263611896
 CC311    HOL     1  0.189271432669  0.089736802707
 CC311     HP     1  0.290272620344  0.072469005789
 CC311   HPER     1  0.189271432669  0.089736802707
 CC311    HR1     1  0.249451641079  0.089736802707
 CC311    HR2     1  0.231633666716  0.089736802707
 CC311    HR3     1  0.300054688270  0.036952087465
 CC311   HRA3     1  0.288651184677  0.064818249282
 CC311   HRM1     1  0.247224394284  0.039692909190
 CC311   HRM2     1  0.247224394284  0.041840000000
 CC311   HRP2     1  0.189271432669  0.089736802707
 CC311     HS     1  0.209361198763  0.132309697301
 CC311   HSIA     1  0.286869387241  0.062058748940
 CC311   HSIO     1  0.189271432669  0.089736802707
 CC311     HT     1  0.189271432669  0.089736802707
 CC311     HX     1  0.189271432669  0.089736802707
 CC311   IGR1     1  0.368832069310  0.301712530731
 CC311   IN3P     1  0.246449312399  0.160580590010
 CC311   LA3P     1  0.327200372211  0.182184255566
 CC311    LIT     1  0.284864865125  0.020196198771
 CC311    LPH     1  0.169270756447  0.000000000000
 CC311   LU3P     1  0.289648991242  0.166731218816
 CC311     MG     1  0.274842254546  0.051243325419
 CC311   MN2P     1  0.276508235149  0.171747976291
 CC311   MN3P     1  0.203516903172  0.148045032716
 CC311      N     1  0.334087019303  0.004184000000
 CC311     NC     1  0.334087019303  0.324091246411
 CC311    NC2     1  0.334087019303  0.187114168357
 CC311  NC2D1     1  0.307360057758  0.187114168357
 CC311  NC311     1  0.347450500075  0.088756043175
 CC311   ND3P     1  0.313587439798  0.177117175768
 CC311     NE     1  0.305578260322  0.122698965603
 CC311  NG1T1     1  0.328741626994  0.177512086349
 CC311  NG2D1     1  0.334087019303  0.187114168357
 CC311  NG2O1     1  0.334087019303  0.187114168357
 CC311  NG2P1     1  0.334087019303  0.187114168357
 CC311 NG2R43     1  0.334087019303  0.187114168357
 CC311 NG2R50     1  0.334087019303  0.187114168357
 CC311 NG2R51     1  0.334087019303  0.187114168357
 CC311 NG2R52     1  0.334087019303  0.187114168357
 CC311 NG2R53     1  0.334087019303  0.187114168357
 CC311 NG2R57     1  0.334087019303  0.187114168357
 CC311 NG2R60     1  0.337650614175  0.102486650838
 CC311 NG2R61     1  0.334087019303  0.187114168357
 CC311 NG2R62     1  0.352795892384  0.093557084179
 CC311 NG2R67     1  0.334087019303  0.187114168357
 CC311 NG2RC0     1  0.334087019303  0.187114168357
 CC311  NG2S0     1  0.334087019303  0.004184000000
 CC311  NG2S1     1  0.307360057758  0.187114168357
 CC311  NG2S2     1  0.334087019303  0.187114168357
 CC311  NG2S3     1  0.334087019303  0.187114168357
 CC311  NG301     1  0.347450500075  0.078275472531
 CC311  NG311     1  0.347450500075  0.088756043175
 CC311  NG321     1  0.346559601357  0.102486650838
 CC311  NG331     1  0.345668702638  0.110698234855
 CC311 NG3C51     1  0.334087019303  0.187114168357
 CC311  NG3N1     1  0.351904993665  0.102486650838
 CC311  NG3P0     1  0.334087019303  0.187114168357
 CC311  NG3P1     1  0.334087019303  0.187114168357
 CC311  NG3P2     1  0.334087019303  0.187114168357
 CC311  NG3P3     1  0.334087019303  0.187114168357
 CC311    NH1     1  0.307360057758  0.187114168357
 CC311    NH2     1  0.334087019303  0.187114168357
 CC311    NH3     1  0.334087019303  0.187114168357
 CC311   NH3L     1  0.334087019303  0.187114168357
 CC311    NHL     1  0.307360057758  0.187114168357
 CC311     NI     1  0.282949432881  0.994525446633
 CC311   NI2P     1  0.238787583423  0.158440517242
 CC311    NN1     1  0.334087019303  0.187114168357
 CC311   NN1C     1  0.334087019303  0.187114168357
 CC311    NN2     1  0.334087019303  0.187114168357
 CC311   NN2B     1  0.334087019303  0.187114168357
 CC311   NN2C     1  0.334087019303  0.187114168357
 CC311   NN2G     1  0.334087019303  0.187114168357
 CC311   NN2U     1  0.334087019303  0.187114168357
 CC311    NN3     1  0.334087019303  0.187114168357
 CC311   NN3A     1  0.334087019303  0.187114168357
 CC311   NN3G     1  0.334087019303  0.187114168357
 CC311   NN3I     1  0.334087019303  0.187114168357
 CC311    NN4     1  0.334087019303  0.187114168357
 CC311    NN6     1  0.334087019303  0.187114168357
 CC311    NNG     1  0.334087019303  0.187114168357
 CC311     NP     1  0.334087019303  0.187114168357
 CC311    NPH     1  0.334087019303  0.187114168357
 CC311    NR1     1  0.334087019303  0.187114168357
 CC311    NR2     1  0.334087019303  0.187114168357
 CC311    NR3     1  0.334087019303  0.187114168357
 CC311   NRC4     1  0.334087019303  0.187114168357
 CC311   NRN1     1  0.347450500075  0.280671252536
 CC311   NRN2     1  0.346559601357  0.102486650838
 CC311    NS1     1  0.334087019303  0.187114168357
 CC311    NS2     1  0.334087019303  0.187114168357
 CC311    NTL     1  0.334087019303  0.187114168357
 CC311     NY     1  0.334087019303  0.187114168357
 CC311      O     1  0.293996576986  0.144938011577
 CC311    O2L     1  0.320723538531  0.144938011577
 CC311    OAL     1  0.326959829558  0.163176000000
 CC311     OB     1  0.293996576986  0.144938011577
 CC311    OBL     1  0.293996576986  0.144938011577
 CC311     OC     1  0.320723538531  0.144938011577
 CC311  OC2D1     1  0.293996576986  0.144938011577
 CC311  OC2D2     1  0.320723538531  0.144938011577
 CC311  OC2D3     1  0.293996576986  0.144938011577
 CC311  OC2D4     1  0.293996576986  0.144938011577
 CC311  OC2DP     1  0.320723538531  0.144938011577
 CC311  OC301     1  0.316269044940  0.132309697301
 CC311  OC302     1  0.316269044940  0.132309697301
 CC311  OC303     1  0.316269044940  0.132309697301
 CC311 OC305A     1  0.316269044940  0.132309697301
 CC311  OC30A     1  0.316269044940  0.132309697301
 CC311  OC30P     1  0.326959829558  0.163176000000
 CC311  OC311     1  0.326514380198  0.183381431383
 CC311 OC311M     1  0.326514380198  0.183381431383
 CC311  OC312     1  0.326959829558  0.163176000000
 CC311 OC3C51     1  0.316269044940  0.132309697301
 CC311 OC3C5M     1  0.316269044940  0.132309697301
 CC311 OC3C61     1  0.316269044940  0.132309697301
 CC311    OCA     1  0.293996576986  0.144938011577
 CC311    OCL     1  0.320723538531  0.144938011577
 CC311  OG2D1     1  0.293996576986  0.144938011577
 CC311  OG2D2     1  0.320723538531  0.144938011577
 CC311  OG2D3     1  0.293996576986  0.144938011577
 CC311  OG2D4     1  0.320723538531  0.144938011577
 CC311  OG2D5     1  0.320010819556  0.169954883425
 CC311  OG2N1     1  0.320723538531  0.144938011577
 CC311  OG2P1     1  0.320723538531  0.144938011577
 CC311 OG2R50     1  0.320723538531  0.144938011577
 CC311  OG2S1     1  0.318906105146  0.157831660601
 CC311  OG301     1  0.316269044940  0.132309697301
 CC311  OG302     1  0.316269044940  0.132309697301
 CC311  OG303     1  0.316269044940  0.132309697301
 CC311  OG304     1  0.316269044940  0.132309697301
 CC311  OG311     1  0.326514380198  0.183381431383
 CC311  OG312     1  0.325178032121  0.144938011577
 CC311 OG3C31     1  0.316269044940  0.132309697301
 CC311 OG3C51     1  0.316269044940  0.132309697301
 CC311 OG3C61     1  0.316269044940  0.132309697301
 CC311 OG3R60     1  0.316269044940  0.132309697301
 CC311    OH1     1  0.326959829558  0.163176000000
 CC311    OHL     1  0.326959829558  0.163176000000
 CC311   OLG1     1  0.293996576986  0.144938011577
 CC311   OLG2     1  0.320723538531  0.144938011577
 CC311   OLG3     1  0.320723538531  0.144938011577
 CC311   OLG4     1  0.316269044940  0.132309697301
 CC311   OLG5     1  0.316269044940  0.132309697301
 CC311   OLG6     1  0.326514380198  0.183381431383
 CC311   OLG7     1  0.316269044940  0.132309697301
 CC311   OLG8     1  0.316269044940  0.132309697301
 CC311     OM     1  0.320723538531  0.144938011577
 CC311    ON1     1  0.320723538531  0.144938011577
 CC311   ON1C     1  0.320723538531  0.144938011577
 CC311    ON2     1  0.326959829558  0.163176000000
 CC311   ON2B     1  0.326959829558  0.163176000000
 CC311   ON2M     1  0.316269044940  0.132309697301
 CC311    ON3     1  0.320723538531  0.144938011577
 CC311    ON4     1  0.326959829558  0.163176000000
 CC311    ON5     1  0.326959829558  0.163176000000
 CC311    ON6     1  0.326959829558  0.163176000000
 CC311   ON6B     1  0.326959829558  0.163176000000
 CC311   OPER     1  0.318427692534  0.188901923946
 CC311     OS     1  0.326959829558  0.163176000000
 CC311   OSIA     1  0.326959829558  0.163176000000
 CC311   OSIE     1  0.326959829558  0.163176000000
 CC311   OSIH     1  0.326959829558  0.163176000000
 CC311    OSL     1  0.316269044940  0.132309697301
 CC311   OSLP     1  0.316269044940  0.132309697301
 CC311    OST     1  0.320010819556  0.169954883425
 CC311     OT     1  0.326799467788  0.163176000000
 CC311     OX     1  0.320723538531  0.144938011577
 CC311      P     1  0.360813980847  0.320014464673
 CC311     P2     1  0.360813980847  0.320014464673
 CC311     P3     1  0.360813980847  0.320014464673
 CC311     P4     1  0.360813980847  0.320014464673
 CC311     PB     1  0.328073452955  0.716185437439
 CC311   PB2P     1  0.325890751096  0.204716924713
 CC311     PC     1  0.360813980847  0.320014464673
 CC311     PD     1  0.294842930769  1.037598257516
 CC311   PD2P     1  0.251865976605  0.174628752363
 CC311    PG0     1  0.360813980847  0.320014464673
 CC311    PG1     1  0.360813980847  0.320014464673
 CC311    PG2     1  0.360813980847  0.320014464673
 CC311     PL     1  0.360813980847  0.320014464673
 CC311   PM3P     1  0.316910492017  0.176275053255
 CC311    POT     1  0.326403017859  0.123410269913
 CC311   PR3P     1  0.317079762773  0.178642591472
 CC311     PT     1  0.296001099102  1.168527606863
 CC311   PT2P     1  0.240284293270  0.168973521997
 CC311   PU3P     1  0.318024115415  0.179522368790
 CC311   RA2P     1  0.355459679551  0.229891668540
 CC311   RH3P     1  0.210367914314  0.149983415617
 CC311    RUB     1  0.338541512893  0.162045623205
 CC311      S     1  0.347450500075  0.280671252536
 CC311     SC     1  0.356359487256  0.286840588481
 CC311   SC3P     1  0.266993436839  0.157109060719
 CC311  SEGD1     1  0.363041227642  0.330244580395
 CC311  SG2D1     1  0.351904993665  0.314496560236
 CC311  SG2P1     1  0.355798221064  0.332305491450
 CC311  SG2P2     1  0.352314807076  0.329421919951
 CC311 SG2R50     1  0.347450500075  0.280671252536
 CC311  SG301     1  0.345223253279  0.257919081884
 CC311  SG302     1  0.365268474438  0.286840588481
 CC311  SG311     1  0.347450500075  0.280671252536
 CC311  SG3O1     1  0.356359487256  0.286840588481
 CC311  SG3O2     1  0.347450500075  0.247528778125
 CC311  SG3O3     1  0.347450500075  0.247528778125
 CC311     SI     1  0.365268474438  0.324091246411
 CC311   SIH3     1  0.365268474438  0.324091246411
 CC311     SL     1  0.356359487256  0.286840588481
 CC311     SM     1  0.345223253279  0.257919081884
 CC311   SM2P     1  0.334666103469  0.207012887251
 CC311   SM3P     1  0.308847858618  0.175378986746
 CC311   SN2P     1  0.316981763914  0.181365662197
 CC311    SOD     1  0.294954293108  0.090610410351
 CC311     SP     1  0.365268474438  0.280671252536
 CC311   SR2P     1  0.334612649546  0.200133451797
 CC311     SS     1  0.365268474438  0.286840588481
 CC311   TB3P     1  0.300678317372  0.172155203837
 CC311   TI1P     1  0.341276571958  0.266826378666
 CC311   TI3P     1  0.243117351193  0.149983415617
 CC311   TL3P     1  0.246716582015  0.168869889039
 CC311   TM3P     1  0.289417357575  0.168402751521
 CC311    U3P     1  0.320830446377  0.182184255566
 CC311    V2P     1  0.267599247968  0.167830039933
 CC311    V3P     1  0.223989755715  0.147096016316
 CC311    Y3P     1  0.295190381269  0.170263611896
 CC311   YB2P     1  0.312616360195  0.189623385225
 CC311   YB3P     1  0.284659958420  0.167569069413
 CC311     ZN     1  0.266378716724  0.209200000000
CC311C CC311C     1  0.338541512893  0.041840000000
CC311C CC311D     1  0.338541512893  0.041840000000
CC311C  CC312     1  0.338541512893  0.041840000000
CC311C CC312C     1  0.338541512893  0.041840000000
CC311C CC312D     1  0.338541512893  0.041840000000
CC311C CC3151     1  0.338541512893  0.041840000000
CC311C CC3152     1  0.338541512893  0.041840000000
CC311C CC3153     1  0.338541512893  0.041840000000
CC311C CC3161     1  0.338541512893  0.041840000000
CC311C CC3162     1  0.338541512893  0.041840000000
CC311C CC3163     1  0.338541512893  0.041840000000
CC311C  CC31A     1  0.338541512893  0.041840000000
CC311C  CC321     1  0.338541512893  0.041840000000
CC311C CC321C     1  0.338541512893  0.041840000000
CC311C CC321D     1  0.338541512893  0.041840000000
CC311C  CC322     1  0.338541512893  0.041840000000
CC311C CC322C     1  0.338541512893  0.041840000000
CC311C CC3251     1  0.338541512893  0.041840000000
CC311C CC325A     1  0.338541512893  0.041840000000
CC311C CC325B     1  0.338541512893  0.041840000000
CC311C CC3261     1  0.338541512893  0.041840000000
CC311C CC3263     1  0.338541512893  0.041840000000
CC311C CC326A     1  0.338541512893  0.041840000000
CC311C  CC32A     1  0.338541512893  0.041840000000
CC311C  CC331     1  0.338541512893  0.041840000000
CC311C  CC33A     1  0.338541512893  0.041840000000
CC311C    CCL     1  0.347450500075  0.110698234855
CC311C     CD     1  0.347450500075  0.110698234855
CC311C    CE1     1  0.355468588538  0.109105371453
CC311C    CE2     1  0.354577689820  0.105847757841
CC311C   CE3P     1  0.321748072056  0.179522368790
CC311C   CEL1     1  0.355468588538  0.109105371453
CC311C   CEL2     1  0.354577689820  0.105847757841
CC311C   CEL3     1  0.355468588538  0.109105371453
CC311C    CES     1  0.356359487256  0.182376331798
CC311C    CF1     1  0.338541512893  0.102486650838
CC311C    CF2     1  0.351904993665  0.085746484010
CC311C    CF3     1  0.374177461619  0.059170695450
CC311C  CG1N1     1  0.335868816739  0.177512086349
CC311C  CG1T1     1  0.333196120584  0.170981810495
CC311C  CG1T2     1  0.346782326036  0.134409982486
CC311C CG251O     1  0.355468588538  0.109105371453
CC311C CG252O     1  0.355468588538  0.109105371453
CC311C CG25C1     1  0.355468588538  0.109105371453
CC311C CG25C2     1  0.355468588538  0.109105371453
CC311C  CG2D1     1  0.355468588538  0.109105371453
CC311C CG2D1O     1  0.355468588538  0.109105371453
CC311C  CG2D2     1  0.354577689820  0.105847757841
CC311C CG2D2O     1  0.355468588538  0.109105371453
CC311C CG2DC1     1  0.355468588538  0.109105371453
CC311C CG2DC2     1  0.355468588538  0.109105371453
CC311C CG2DC3     1  0.354577689820  0.105847757841
CC311C  CG2N1     1  0.347450500075  0.138767581228
CC311C  CG2N2     1  0.347450500075  0.138767581228
CC311C  CG2O1     1  0.347450500075  0.138767581228
CC311C  CG2O2     1  0.320723538531  0.130979917850
CC311C  CG2O3     1  0.347450500075  0.110698234855
CC311C  CG2O4     1  0.329632525712  0.102486650838
CC311C  CG2O5     1  0.347450500075  0.125520000000
CC311C  CG2O6     1  0.347450500075  0.110698234855
CC311C  CG2O7     1  0.308518226092  0.100764063435
CC311C CG2R51     1  0.356359487256  0.093557084179
CC311C CG2R52     1  0.365268474438  0.059170695450
CC311C CG2R53     1  0.365268474438  0.059170695450
CC311C CG2R57     1  0.356359487256  0.093557084179
CC311C CG2R61     1  0.346773417049  0.110698234855
CC311C CG2R62     1  0.338541512893  0.125520000000
CC311C CG2R63     1  0.338541512893  0.132309697301
CC311C CG2R64     1  0.356359487256  0.083680000000
CC311C CG2R66     1  0.338541512893  0.110698234855
CC311C CG2R67     1  0.346773417049  0.110698234855
CC311C CG2R71     1  0.346987232741  0.108300154755
CC311C CG2RC0     1  0.334977918021  0.131646486622
CC311C CG2RC7     1  0.334977918021  0.131646486622
CC311C  CG301     1  0.338541512893  0.041840000000
CC311C  CG302     1  0.374177461619  0.059170695450
CC311C  CG311     1  0.338541512893  0.041840000000
CC311C  CG312     1  0.351904993665  0.085746484010
CC311C  CG314     1  0.338541512893  0.041840000000
CC311C  CG321     1  0.338541512893  0.041840000000
CC311C  CG322     1  0.338541512893  0.102486650838
CC311C  CG323     1  0.365268474438  0.138767581228
CC311C  CG324     1  0.338541512893  0.041840000000
CC311C  CG331     1  0.338541512893  0.041840000000
CC311C  CG334     1  0.338541512893  0.041840000000
CC311C CG3AM0     1  0.344777803920  0.110698234855
CC311C CG3AM1     1  0.345668702638  0.116852760686
CC311C CG3AM2     1  0.346559601357  0.118341390899
CC311C CG3C31     1  0.338541512893  0.041840000000
CC311C CG3C41     1  0.338541512893  0.041840000000
CC311C CG3C50     1  0.338541512893  0.041840000000
CC311C CG3C51     1  0.338541512893  0.041840000000
CC311C CG3C52     1  0.338541512893  0.041840000000
CC311C CG3C53     1  0.338541512893  0.041840000000
CC311C CG3C54     1  0.338541512893  0.041840000000
CC311C CG3RC1     1  0.338541512893  0.041840000000
CC311C     CL     1  0.347450500075  0.110698234855
CC311C    CLA     1  0.371504765465  0.162045623205
CC311C   CLAL     1  0.339272049842  0.072469005789
CC311C  CLG01     1  0.355468588538  0.109105371453
CC311C  CLG02     1  0.355468588538  0.109105371453
CC311C  CLG03     1  0.320723538531  0.130979917850
CC311C  CLG04     1  0.347450500075  0.110698234855
CC311C  CLG05     1  0.329632525712  0.102486650838
CC311C  CLG06     1  0.346773417049  0.110698234855
CC311C CLG06A     1  0.346773417049  0.110698234855
CC311C CLG06B     1  0.346773417049  0.110698234855
CC311C  CLG07     1  0.338541512893  0.125520000000
CC311C  CLG08     1  0.338541512893  0.132309697301
CC311C  CLG09     1  0.346773417049  0.110698234855
CC311C  CLG10     1  0.334977918021  0.131646486622
CC311C  CLG11     1  0.338541512893  0.041840000000
CC311C  CLG12     1  0.338541512893  0.041840000000
CC311C  CLG13     1  0.338541512893  0.041840000000
CC311C  CLG14     1  0.338541512893  0.041840000000
CC311C  CLG15     1  0.338541512893  0.041840000000
CC311C  CLG16     1  0.338541512893  0.041840000000
CC311C  CLGA1     1  0.339432411611  0.245040988571
CC311C  CLGA3     1  0.339432411611  0.232955260941
CC311C  CLGR1     1  0.334977918021  0.200657590935
CC311C     CM     1  0.356359487256  0.138767581228
CC311C     CN     1  0.325178032121  0.187114168357
CC311C    CN1     1  0.338541512893  0.132309697301
CC311C   CN1A     1  0.347450500075  0.110698234855
CC311C   CN1T     1  0.338541512893  0.132309697301
CC311C    CN2     1  0.338541512893  0.132309697301
CC311C    CN3     1  0.338541512893  0.125520000000
CC311C   CN3A     1  0.329632525712  0.177512086349
CC311C   CN3B     1  0.329632525712  0.177512086349
CC311C   CN3C     1  0.329632525712  0.177512086349
CC311C   CN3D     1  0.338541512893  0.125520000000
CC311C   CN3T     1  0.338541512893  0.125520000000
CC311C    CN4     1  0.338541512893  0.114583559030
CC311C    CN5     1  0.338541512893  0.114583559030
CC311C   CN5G     1  0.338541512893  0.114583559030
CC311C    CN6     1  0.338541512893  0.041840000000
CC311C    CN7     1  0.338541512893  0.041840000000
CC311C   CN7B     1  0.338541512893  0.041840000000
CC311C   CN7E     1  0.338541512893  0.041840000000
CC311C    CN8     1  0.338541512893  0.041840000000
CC311C   CN8B     1  0.338541512893  0.041840000000
CC311C    CN9     1  0.338541512893  0.041840000000
CC311C    CNA     1  0.346773417049  0.110698234855
CC311C   CNA2     1  0.338541512893  0.110698234855
CC311C   CNE1     1  0.355468588538  0.109105371453
CC311C   CNE2     1  0.354577689820  0.105847757841
CC311C    CNG     1  0.347450500075  0.138767581228
CC311C   CO2P     1  0.251910521541  0.164138698618
CC311C   CO3P     1  0.192264852362  0.144393471099
CC311C    COA     1  0.347450500075  0.138767581228
CC311C    CP1     1  0.338541512893  0.041840000000
CC311C    CP2     1  0.338541512893  0.041840000000
CC311C    CP3     1  0.338541512893  0.041840000000
CC311C    CPA     1  0.329632525712  0.125520000000
CC311C    CPB     1  0.329632525712  0.125520000000
CC311C   CPD1     1  0.338541512893  0.041840000000
CC311C   CPH1     1  0.329632525712  0.093557084179
CC311C   CPH2     1  0.329632525712  0.093557084179
CC311C    CPM     1  0.329632525712  0.125520000000
CC311C    CPT     1  0.334977918021  0.131646486622
CC311C   CR2P     1  0.263634748672  0.170828164985
CC311C   CR33     1  0.338541512893  0.041840000000
CC311C   CR3P     1  0.244382427373  0.145299904804
CC311C   CRL1     1  0.338541512893  0.041840000000
CC311C   CRL2     1  0.338541512893  0.041840000000
CC311C   CRN1     1  0.347450500075  0.138767581228
CC311C     CS     1  0.365268474438  0.138767581228
CC311C    CST     1  0.308518226092  0.100764063435
CC311C     CT     1  0.338541512893  0.041840000000
CC311C    CT1     1  0.338541512893  0.041840000000
CC311C   CT1X     1  0.338541512893  0.041840000000
CC311C    CT2     1  0.338541512893  0.041840000000
CC311C   CT2A     1  0.338541512893  0.041840000000
CC311C   CT2P     1  0.338541512893  0.041840000000
CC311C   CT2X     1  0.338541512893  0.041840000000
CC311C    CT3     1  0.338541512893  0.041840000000
CC311C   CT3X     1  0.338541512893  0.041840000000
CC311C   CTD1     1  0.338541512893  0.041840000000
CC311C   CTL1     1  0.338541512893  0.041840000000
CC311C   CTL2     1  0.338541512893  0.041840000000
CC311C   CTL3     1  0.338541512893  0.041840000000
CC311C   CTL5     1  0.338541512893  0.041840000000
CC311C   CTO1     1  0.338541512893  0.041840000000
CC311C   CTO2     1  0.338541512893  0.041840000000
CC311C     CU     1  0.285800308779  0.908997471504
CC311C   CU1P     1  0.246066225950  0.180057894334
CC311C   CU2P     1  0.233869822499  0.162315474555
CC311C     CY     1  0.346559601357  0.113045454929
CC311C    DUM     1  0.169270756447  0.000000000000
CC311C   DY3P     1  0.297952167295  0.171135318061
CC311C   ER3P     1  0.291083338178  0.169232326746
CC311C   EU2P     1  0.333231756533  0.203602227414
CC311C   EU3P     1  0.304954631219  0.174528477447
CC311C     F1     1  0.314487247504  0.153729976257
CC311C     F2     1  0.314487247504  0.135577095411
CC311C     F3     1  0.311814551349  0.130309939452
CC311C     FA     1  0.320723538531  0.144938011577
CC311C     FE     1  0.227179173126  0.000000000000
CC311C   FE2P     1  0.265496726993  0.167098295383
CC311C   FE3P     1  0.219722350855  0.148045032716
CC311C   FGA1     1  0.314487247504  0.153729976257
CC311C   FGA2     1  0.314487247504  0.135577095411
CC311C   FGA3     1  0.311814551349  0.130309939452
CC311C   FGP1     1  0.311814551349  0.130309939452
CC311C   FGR1     1  0.320723538531  0.144938011577
CC311C    FNA     1  0.320723538531  0.144938011577
CC311C   GA3P     1  0.189485248361  0.145299904804
CC311C   GD3P     1  0.303351013527  0.173673803114
CC311C      H     1  0.189271432669  0.089736802707
CC311C     HA     1  0.286869387241  0.062058748940
CC311C    HA1     1  0.288651184677  0.088756043175
CC311C    HA2     1  0.288651184677  0.077149148019
CC311C    HA3     1  0.288651184677  0.064818249282
CC311C    HAL     1  0.286869387241  0.062058748940
CC311C   HAL1     1  0.286869387241  0.062058748940
CC311C   HAL2     1  0.288651184677  0.070011711020
CC311C   HAL3     1  0.288651184677  0.064818249282
CC311C     HB     1  0.286869387241  0.062058748940
CC311C    HB1     1  0.286869387241  0.062058748940
CC311C    HB2     1  0.288651184677  0.070011711020
CC311C    HBL     1  0.286869387241  0.062058748940
CC311C     HC     1  0.189271432669  0.089736802707
CC311C   HCA1     1  0.288651184677  0.088756043175
CC311C  HCA1A     1  0.288651184677  0.088756043175
CC311C HCA1C2     1  0.288651184677  0.088756043175
CC311C   HCA2     1  0.288651184677  0.078275472531
CC311C HCA25A     1  0.285087589805  0.078275472531
CC311C  HCA2A     1  0.288651184677  0.078275472531
CC311C HCA2C2     1  0.285087589805  0.078275472531
CC311C   HCA3     1  0.288651184677  0.064818249282
CC311C  HCA3A     1  0.288651184677  0.064818249282
CC311C  HCA3M     1  0.288651184677  0.064818249282
CC311C    HCL     1  0.189271432669  0.089736802707
CC311C   HCP1     1  0.189271432669  0.089736802707
CC311C  HCP1M     1  0.189271432669  0.089736802707
CC311C   HCR1     1  0.240542653898  0.089736802707
CC311C     HE     1  0.301123766731  0.061020452073
CC311C    HE1     1  0.280633096214  0.073666921749
CC311C    HE2     1  0.281523994932  0.067464972838
CC311C   HEL1     1  0.280633096214  0.073666921749
CC311C   HEL2     1  0.281523994932  0.067464972838
CC311C    HF1     1  0.286869387241  0.070011711020
CC311C    HF2     1  0.285087589805  0.072469005789
CC311C   HG2P     1  0.274557166956  0.189623385225
CC311C   HGA1     1  0.288651184677  0.088756043175
CC311C   HGA2     1  0.288651184677  0.078275472531
CC311C   HGA3     1  0.288651184677  0.064818249282
CC311C   HGA4     1  0.280633096214  0.073666921749
CC311C   HGA5     1  0.281523994932  0.067464972838
CC311C   HGA6     1  0.286869387241  0.070011711020
CC311C   HGA7     1  0.285087589805  0.072469005789
CC311C HGAAM0     1  0.283305792369  0.070011711020
CC311C HGAAM1     1  0.283305792369  0.070011711020
CC311C HGAAM2     1  0.281523994932  0.083680000000
CC311C   HGP1     1  0.189271432669  0.089736802707
CC311C   HGP2     1  0.189271432669  0.089736802707
CC311C   HGP3     1  0.209361198763  0.132309697301
CC311C   HGP4     1  0.189271432669  0.089736802707
CC311C   HGP5     1  0.231633666716  0.089736802707
CC311C HGPAM1     1  0.247224394284  0.039692909190
CC311C HGPAM2     1  0.247224394284  0.041840000000
CC311C HGPAM3     1  0.246778944925  0.045833423612
CC311C  HGR51     1  0.290272620344  0.072469005789
CC311C  HGR52     1  0.249451641079  0.089736802707
CC311C  HGR53     1  0.231633666716  0.089736802707
CC311C  HGR61     1  0.290272620344  0.072469005789
CC311C  HGR62     1  0.267269615442  0.089736802707
CC311C  HGR63     1  0.249451641079  0.089736802707
CC311C  HGR71     1  0.290272620344  0.072469005789
CC311C     HL     1  0.231633666716  0.089736802707
CC311C  HLGA1     1  0.288651184677  0.088756043175
CC311C  HLGA2     1  0.288651184677  0.078275472531
CC311C  HLGA3     1  0.288651184677  0.064818249282
CC311C  HLGA4     1  0.280633096214  0.073666921749
CC311C  HLGP1     1  0.189271432669  0.089736802707
CC311C HLGR52     1  0.249451641079  0.089736802707
CC311C HLGR61     1  0.290272620344  0.072469005789
CC311C HLGR62     1  0.267269615442  0.089736802707
CC311C    HN1     1  0.189271432669  0.089736802707
CC311C    HN2     1  0.189271432669  0.089736802707
CC311C    HN3     1  0.267269615442  0.089736802707
CC311C   HN3B     1  0.249451641079  0.089736802707
CC311C    HN4     1  0.189271432669  0.089736802707
CC311C    HN5     1  0.189271432669  0.089736802707
CC311C    HN6     1  0.286869387241  0.062058748940
CC311C    HN7     1  0.286869387241  0.062058748940
CC311C    HN8     1  0.288651184677  0.070011711020
CC311C    HN9     1  0.288651184677  0.064818249282
CC311C   HNE1     1  0.280633096214  0.073666921749
CC311C   HNE2     1  0.281523994932  0.067464972838
CC311C    HNP     1  0.290272620344  0.072469005789
CC311C   HO3P     1  0.293168041178  0.170263611896
CC311C    HOL     1  0.189271432669  0.089736802707
CC311C     HP     1  0.290272620344  0.072469005789
CC311C   HPER     1  0.189271432669  0.089736802707
CC311C    HR1     1  0.249451641079  0.089736802707
CC311C    HR2     1  0.231633666716  0.089736802707
CC311C    HR3     1  0.300054688270  0.036952087465
CC311C   HRA3     1  0.288651184677  0.064818249282
CC311C   HRM1     1  0.247224394284  0.039692909190
CC311C   HRM2     1  0.247224394284  0.041840000000
CC311C   HRP2     1  0.189271432669  0.089736802707
CC311C     HS     1  0.209361198763  0.132309697301
CC311C   HSIA     1  0.286869387241  0.062058748940
CC311C   HSIO     1  0.189271432669  0.089736802707
CC311C     HT     1  0.189271432669  0.089736802707
CC311C     HX     1  0.189271432669  0.089736802707
CC311C   IGR1     1  0.368832069310  0.301712530731
CC311C   IN3P     1  0.246449312399  0.160580590010
CC311C   LA3P     1  0.327200372211  0.182184255566
CC311C    LIT     1  0.284864865125  0.020196198771
CC311C    LPH     1  0.169270756447  0.000000000000
CC311C   LU3P     1  0.289648991242  0.166731218816
CC311C     MG     1  0.274842254546  0.051243325419
CC311C   MN2P     1  0.276508235149  0.171747976291
CC311C   MN3P     1  0.203516903172  0.148045032716
CC311C      N     1  0.334087019303  0.004184000000
CC311C     NC     1  0.334087019303  0.324091246411
CC311C    NC2     1  0.334087019303  0.187114168357
CC311C  NC2D1     1  0.307360057758  0.187114168357
CC311C  NC311     1  0.347450500075  0.088756043175
CC311C   ND3P     1  0.313587439798  0.177117175768
CC311C     NE     1  0.305578260322  0.122698965603
CC311C  NG1T1     1  0.328741626994  0.177512086349
CC311C  NG2D1     1  0.334087019303  0.187114168357
CC311C  NG2O1     1  0.334087019303  0.187114168357
CC311C  NG2P1     1  0.334087019303  0.187114168357
CC311C NG2R43     1  0.334087019303  0.187114168357
CC311C NG2R50     1  0.334087019303  0.187114168357
CC311C NG2R51     1  0.334087019303  0.187114168357
CC311C NG2R52     1  0.334087019303  0.187114168357
CC311C NG2R53     1  0.334087019303  0.187114168357
CC311C NG2R57     1  0.334087019303  0.187114168357
CC311C NG2R60     1  0.337650614175  0.102486650838
CC311C NG2R61     1  0.334087019303  0.187114168357
CC311C NG2R62     1  0.352795892384  0.093557084179
CC311C NG2R67     1  0.334087019303  0.187114168357
CC311C NG2RC0     1  0.334087019303  0.187114168357
CC311C  NG2S0     1  0.334087019303  0.004184000000
CC311C  NG2S1     1  0.307360057758  0.187114168357
CC311C  NG2S2     1  0.334087019303  0.187114168357
CC311C  NG2S3     1  0.334087019303  0.187114168357
CC311C  NG301     1  0.347450500075  0.078275472531
CC311C  NG311     1  0.347450500075  0.088756043175
CC311C  NG321     1  0.346559601357  0.102486650838
CC311C  NG331     1  0.345668702638  0.110698234855
CC311C NG3C51     1  0.334087019303  0.187114168357
CC311C  NG3N1     1  0.351904993665  0.102486650838
CC311C  NG3P0     1  0.334087019303  0.187114168357
CC311C  NG3P1     1  0.334087019303  0.187114168357
CC311C  NG3P2     1  0.334087019303  0.187114168357
CC311C  NG3P3     1  0.334087019303  0.187114168357
CC311C    NH1     1  0.307360057758  0.187114168357
CC311C    NH2     1  0.334087019303  0.187114168357
CC311C    NH3     1  0.334087019303  0.187114168357
CC311C   NH3L     1  0.334087019303  0.187114168357
CC311C    NHL     1  0.307360057758  0.187114168357
CC311C     NI     1  0.282949432881  0.994525446633
CC311C   NI2P     1  0.238787583423  0.158440517242
CC311C    NN1     1  0.334087019303  0.187114168357
CC311C   NN1C     1  0.334087019303  0.187114168357
CC311C    NN2     1  0.334087019303  0.187114168357
CC311C   NN2B     1  0.334087019303  0.187114168357
CC311C   NN2C     1  0.334087019303  0.187114168357
CC311C   NN2G     1  0.334087019303  0.187114168357
CC311C   NN2U     1  0.334087019303  0.187114168357
CC311C    NN3     1  0.334087019303  0.187114168357
CC311C   NN3A     1  0.334087019303  0.187114168357
CC311C   NN3G     1  0.334087019303  0.187114168357
CC311C   NN3I     1  0.334087019303  0.187114168357
CC311C    NN4     1  0.334087019303  0.187114168357
CC311C    NN6     1  0.334087019303  0.187114168357
CC311C    NNG     1  0.334087019303  0.187114168357
CC311C     NP     1  0.334087019303  0.187114168357
CC311C    NPH     1  0.334087019303  0.187114168357
CC311C    NR1     1  0.334087019303  0.187114168357
CC311C    NR2     1  0.334087019303  0.187114168357
CC311C    NR3     1  0.334087019303  0.187114168357
CC311C   NRC4     1  0.334087019303  0.187114168357
CC311C   NRN1     1  0.347450500075  0.280671252536
CC311C   NRN2     1  0.346559601357  0.102486650838
CC311C    NS1     1  0.334087019303  0.187114168357
CC311C    NS2     1  0.334087019303  0.187114168357
CC311C    NTL     1  0.334087019303  0.187114168357
CC311C     NY     1  0.334087019303  0.187114168357
CC311C      O     1  0.293996576986  0.144938011577
CC311C    O2L     1  0.320723538531  0.144938011577
CC311C    OAL     1  0.326959829558  0.163176000000
CC311C     OB     1  0.293996576986  0.144938011577
CC311C    OBL     1  0.293996576986  0.144938011577
CC311C     OC     1  0.320723538531  0.144938011577
CC311C  OC2D1     1  0.293996576986  0.144938011577
CC311C  OC2D2     1  0.320723538531  0.144938011577
CC311C  OC2D3     1  0.293996576986  0.144938011577
CC311C  OC2D4     1  0.293996576986  0.144938011577
CC311C  OC2DP     1  0.320723538531  0.144938011577
CC311C  OC301     1  0.316269044940  0.132309697301
CC311C  OC302     1  0.316269044940  0.132309697301
CC311C  OC303     1  0.316269044940  0.132309697301
CC311C OC305A     1  0.316269044940  0.132309697301
CC311C  OC30A     1  0.316269044940  0.132309697301
CC311C  OC30P     1  0.326959829558  0.163176000000
CC311C  OC311     1  0.326514380198  0.183381431383
CC311C OC311M     1  0.326514380198  0.183381431383
CC311C  OC312     1  0.326959829558  0.163176000000
CC311C OC3C51     1  0.316269044940  0.132309697301
CC311C OC3C5M     1  0.316269044940  0.132309697301
CC311C OC3C61     1  0.316269044940  0.132309697301
CC311C    OCA     1  0.293996576986  0.144938011577
CC311C    OCL     1  0.320723538531  0.144938011577
CC311C  OG2D1     1  0.293996576986  0.144938011577
CC311C  OG2D2     1  0.320723538531  0.144938011577
CC311C  OG2D3     1  0.293996576986  0.144938011577
CC311C  OG2D4     1  0.320723538531  0.144938011577
CC311C  OG2D5     1  0.320010819556  0.169954883425
CC311C  OG2N1     1  0.320723538531  0.144938011577
CC311C  OG2P1     1  0.320723538531  0.144938011577
CC311C OG2R50     1  0.320723538531  0.144938011577
CC311C  OG2S1     1  0.318906105146  0.157831660601
CC311C  OG301     1  0.316269044940  0.132309697301
CC311C  OG302     1  0.316269044940  0.132309697301
CC311C  OG303     1  0.316269044940  0.132309697301
CC311C  OG304     1  0.316269044940  0.132309697301
CC311C  OG311     1  0.326514380198  0.183381431383
CC311C  OG312     1  0.325178032121  0.144938011577
CC311C OG3C31     1  0.316269044940  0.132309697301
CC311C OG3C51     1  0.316269044940  0.132309697301
CC311C OG3C61     1  0.316269044940  0.132309697301
CC311C OG3R60     1  0.316269044940  0.132309697301
CC311C    OH1     1  0.326959829558  0.163176000000
CC311C    OHL     1  0.326959829558  0.163176000000
CC311C   OLG1     1  0.293996576986  0.144938011577
CC311C   OLG2     1  0.320723538531  0.144938011577
CC311C   OLG3     1  0.320723538531  0.144938011577
CC311C   OLG4     1  0.316269044940  0.132309697301
CC311C   OLG5     1  0.316269044940  0.132309697301
CC311C   OLG6     1  0.326514380198  0.183381431383
CC311C   OLG7     1  0.316269044940  0.132309697301
CC311C   OLG8     1  0.316269044940  0.132309697301
CC311C     OM     1  0.320723538531  0.144938011577
CC311C    ON1     1  0.320723538531  0.144938011577
CC311C   ON1C     1  0.320723538531  0.144938011577
CC311C    ON2     1  0.326959829558  0.163176000000
CC311C   ON2B     1  0.326959829558  0.163176000000
CC311C   ON2M     1  0.316269044940  0.132309697301
CC311C    ON3     1  0.320723538531  0.144938011577
CC311C    ON4     1  0.326959829558  0.163176000000
CC311C    ON5     1  0.326959829558  0.163176000000
CC311C    ON6     1  0.326959829558  0.163176000000
CC311C   ON6B     1  0.326959829558  0.163176000000
CC311C   OPER     1  0.318427692534  0.188901923946
CC311C     OS     1  0.326959829558  0.163176000000
CC311C   OSIA     1  0.326959829558  0.163176000000
CC311C   OSIE     1  0.326959829558  0.163176000000
CC311C   OSIH     1  0.326959829558  0.163176000000
CC311C    OSL     1  0.316269044940  0.132309697301
CC311C   OSLP     1  0.316269044940  0.132309697301
CC311C    OST     1  0.320010819556  0.169954883425
CC311C     OT     1  0.326799467788  0.163176000000
CC311C     OX     1  0.320723538531  0.144938011577
CC311C      P     1  0.360813980847  0.320014464673
CC311C     P2     1  0.360813980847  0.320014464673
CC311C     P3     1  0.360813980847  0.320014464673
CC311C     P4     1  0.360813980847  0.320014464673
CC311C     PB     1  0.328073452955  0.716185437439
CC311C   PB2P     1  0.325890751096  0.204716924713
CC311C     PC     1  0.360813980847  0.320014464673
CC311C     PD     1  0.294842930769  1.037598257516
CC311C   PD2P     1  0.251865976605  0.174628752363
CC311C    PG0     1  0.360813980847  0.320014464673
CC311C    PG1     1  0.360813980847  0.320014464673
CC311C    PG2     1  0.360813980847  0.320014464673
CC311C     PL     1  0.360813980847  0.320014464673
CC311C   PM3P     1  0.316910492017  0.176275053255
CC311C    POT     1  0.326403017859  0.123410269913
CC311C   PR3P     1  0.317079762773  0.178642591472
CC311C     PT     1  0.296001099102  1.168527606863
CC311C   PT2P     1  0.240284293270  0.168973521997
CC311C   PU3P     1  0.318024115415  0.179522368790
CC311C   RA2P     1  0.355459679551  0.229891668540
CC311C   RH3P     1  0.210367914314  0.149983415617
CC311C    RUB     1  0.338541512893  0.162045623205
CC311C      S     1  0.347450500075  0.280671252536
CC311C     SC     1  0.356359487256  0.286840588481
CC311C   SC3P     1  0.266993436839  0.157109060719
CC311C  SEGD1     1  0.363041227642  0.330244580395
CC311C  SG2D1     1  0.351904993665  0.314496560236
CC311C  SG2P1     1  0.355798221064  0.332305491450
CC311C  SG2P2     1  0.352314807076  0.329421919951
CC311C SG2R50     1  0.347450500075  0.280671252536
CC311C  SG301     1  0.345223253279  0.257919081884
CC311C  SG302     1  0.365268474438  0.286840588481
CC311C  SG311     1  0.347450500075  0.280671252536
CC311C  SG3O1     1  0.356359487256  0.286840588481
CC311C  SG3O2     1  0.347450500075  0.247528778125
CC311C  SG3O3     1  0.347450500075  0.247528778125
CC311C     SI     1  0.365268474438  0.324091246411
CC311C   SIH3     1  0.365268474438  0.324091246411
CC311C     SL     1  0.356359487256  0.286840588481
CC311C     SM     1  0.345223253279  0.257919081884
CC311C   SM2P     1  0.334666103469  0.207012887251
CC311C   SM3P     1  0.308847858618  0.175378986746
CC311C   SN2P     1  0.316981763914  0.181365662197
CC311C    SOD     1  0.294954293108  0.090610410351
CC311C     SP     1  0.365268474438  0.280671252536
CC311C   SR2P     1  0.334612649546  0.200133451797
CC311C     SS     1  0.365268474438  0.286840588481
CC311C   TB3P     1  0.300678317372  0.172155203837
CC311C   TI1P     1  0.341276571958  0.266826378666
CC311C   TI3P     1  0.243117351193  0.149983415617
CC311C   TL3P     1  0.246716582015  0.168869889039
CC311C   TM3P     1  0.289417357575  0.168402751521
CC311C    U3P     1  0.320830446377  0.182184255566
CC311C    V2P     1  0.267599247968  0.167830039933
CC311C    V3P     1  0.223989755715  0.147096016316
CC311C    Y3P     1  0.295190381269  0.170263611896
CC311C   YB2P     1  0.312616360195  0.189623385225
CC311C   YB3P     1  0.284659958420  0.167569069413
CC311C     ZN     1  0.266378716724  0.209200000000
CC311D CC311D     1  0.338541512893  0.041840000000
CC311D  CC312     1  0.338541512893  0.041840000000
CC311D CC312C     1  0.338541512893  0.041840000000
CC311D CC312D     1  0.338541512893  0.041840000000
CC311D CC3151     1  0.338541512893  0.041840000000
CC311D CC3152     1  0.338541512893  0.041840000000
CC311D CC3153     1  0.338541512893  0.041840000000
CC311D CC3161     1  0.338541512893  0.041840000000
CC311D CC3162     1  0.338541512893  0.041840000000
CC311D CC3163     1  0.338541512893  0.041840000000
CC311D  CC31A     1  0.338541512893  0.041840000000
CC311D  CC321     1  0.338541512893  0.041840000000
CC311D CC321C     1  0.338541512893  0.041840000000
CC311D CC321D     1  0.338541512893  0.041840000000
CC311D  CC322     1  0.338541512893  0.041840000000
CC311D CC322C     1  0.338541512893  0.041840000000
CC311D CC3251     1  0.338541512893  0.041840000000
CC311D CC325A     1  0.338541512893  0.041840000000
CC311D CC325B     1  0.338541512893  0.041840000000
CC311D CC3261     1  0.338541512893  0.041840000000
CC311D CC3263     1  0.338541512893  0.041840000000
CC311D CC326A     1  0.338541512893  0.041840000000
CC311D  CC32A     1  0.338541512893  0.041840000000
CC311D  CC331     1  0.338541512893  0.041840000000
CC311D  CC33A     1  0.338541512893  0.041840000000
CC311D    CCL     1  0.347450500075  0.110698234855
CC311D     CD     1  0.347450500075  0.110698234855
CC311D    CE1     1  0.355468588538  0.109105371453
CC311D    CE2     1  0.354577689820  0.105847757841
CC311D   CE3P     1  0.321748072056  0.179522368790
CC311D   CEL1     1  0.355468588538  0.109105371453
CC311D   CEL2     1  0.354577689820  0.105847757841
CC311D   CEL3     1  0.355468588538  0.109105371453
CC311D    CES     1  0.356359487256  0.182376331798
CC311D    CF1     1  0.338541512893  0.102486650838
CC311D    CF2     1  0.351904993665  0.085746484010
CC311D    CF3     1  0.374177461619  0.059170695450
CC311D  CG1N1     1  0.335868816739  0.177512086349
CC311D  CG1T1     1  0.333196120584  0.170981810495
CC311D  CG1T2     1  0.346782326036  0.134409982486
CC311D CG251O     1  0.355468588538  0.109105371453
CC311D CG252O     1  0.355468588538  0.109105371453
CC311D CG25C1     1  0.355468588538  0.109105371453
CC311D CG25C2     1  0.355468588538  0.109105371453
CC311D  CG2D1     1  0.355468588538  0.109105371453
CC311D CG2D1O     1  0.355468588538  0.109105371453
CC311D  CG2D2     1  0.354577689820  0.105847757841
CC311D CG2D2O     1  0.355468588538  0.109105371453
CC311D CG2DC1     1  0.355468588538  0.109105371453
CC311D CG2DC2     1  0.355468588538  0.109105371453
CC311D CG2DC3     1  0.354577689820  0.105847757841
CC311D  CG2N1     1  0.347450500075  0.138767581228
CC311D  CG2N2     1  0.347450500075  0.138767581228
CC311D  CG2O1     1  0.347450500075  0.138767581228
CC311D  CG2O2     1  0.320723538531  0.130979917850
CC311D  CG2O3     1  0.347450500075  0.110698234855
CC311D  CG2O4     1  0.329632525712  0.102486650838
CC311D  CG2O5     1  0.347450500075  0.125520000000
CC311D  CG2O6     1  0.347450500075  0.110698234855
CC311D  CG2O7     1  0.308518226092  0.100764063435
CC311D CG2R51     1  0.356359487256  0.093557084179
CC311D CG2R52     1  0.365268474438  0.059170695450
CC311D CG2R53     1  0.365268474438  0.059170695450
CC311D CG2R57     1  0.356359487256  0.093557084179
CC311D CG2R61     1  0.346773417049  0.110698234855
CC311D CG2R62     1  0.338541512893  0.125520000000
CC311D CG2R63     1  0.338541512893  0.132309697301
CC311D CG2R64     1  0.356359487256  0.083680000000
CC311D CG2R66     1  0.338541512893  0.110698234855
CC311D CG2R67     1  0.346773417049  0.110698234855
CC311D CG2R71     1  0.346987232741  0.108300154755
CC311D CG2RC0     1  0.334977918021  0.131646486622
CC311D CG2RC7     1  0.334977918021  0.131646486622
CC311D  CG301     1  0.338541512893  0.041840000000
CC311D  CG302     1  0.374177461619  0.059170695450
CC311D  CG311     1  0.338541512893  0.041840000000
CC311D  CG312     1  0.351904993665  0.085746484010
CC311D  CG314     1  0.338541512893  0.041840000000
CC311D  CG321     1  0.338541512893  0.041840000000
CC311D  CG322     1  0.338541512893  0.102486650838
CC311D  CG323     1  0.365268474438  0.138767581228
CC311D  CG324     1  0.338541512893  0.041840000000
CC311D  CG331     1  0.338541512893  0.041840000000
CC311D  CG334     1  0.338541512893  0.041840000000
CC311D CG3AM0     1  0.344777803920  0.110698234855
CC311D CG3AM1     1  0.345668702638  0.116852760686
CC311D CG3AM2     1  0.346559601357  0.118341390899
CC311D CG3C31     1  0.338541512893  0.041840000000
CC311D CG3C41     1  0.338541512893  0.041840000000
CC311D CG3C50     1  0.338541512893  0.041840000000
CC311D CG3C51     1  0.338541512893  0.041840000000
CC311D CG3C52     1  0.338541512893  0.041840000000
CC311D CG3C53     1  0.338541512893  0.041840000000
CC311D CG3C54     1  0.338541512893  0.041840000000
CC311D CG3RC1     1  0.338541512893  0.041840000000
CC311D     CL     1  0.347450500075  0.110698234855
CC311D    CLA     1  0.371504765465  0.162045623205
CC311D   CLAL     1  0.339272049842  0.072469005789
CC311D  CLG01     1  0.355468588538  0.109105371453
CC311D  CLG02     1  0.355468588538  0.109105371453
CC311D  CLG03     1  0.320723538531  0.130979917850
CC311D  CLG04     1  0.347450500075  0.110698234855
CC311D  CLG05     1  0.329632525712  0.102486650838
CC311D  CLG06     1  0.346773417049  0.110698234855
CC311D CLG06A     1  0.346773417049  0.110698234855
CC311D CLG06B     1  0.346773417049  0.110698234855
CC311D  CLG07     1  0.338541512893  0.125520000000
CC311D  CLG08     1  0.338541512893  0.132309697301
CC311D  CLG09     1  0.346773417049  0.110698234855
CC311D  CLG10     1  0.334977918021  0.131646486622
CC311D  CLG11     1  0.338541512893  0.041840000000
CC311D  CLG12     1  0.338541512893  0.041840000000
CC311D  CLG13     1  0.338541512893  0.041840000000
CC311D  CLG14     1  0.338541512893  0.041840000000
CC311D  CLG15     1  0.338541512893  0.041840000000
CC311D  CLG16     1  0.338541512893  0.041840000000
CC311D  CLGA1     1  0.339432411611  0.245040988571
CC311D  CLGA3     1  0.339432411611  0.232955260941
CC311D  CLGR1     1  0.334977918021  0.200657590935
CC311D     CM     1  0.356359487256  0.138767581228
CC311D     CN     1  0.325178032121  0.187114168357
CC311D    CN1     1  0.338541512893  0.132309697301
CC311D   CN1A     1  0.347450500075  0.110698234855
CC311D   CN1T     1  0.338541512893  0.132309697301
CC311D    CN2     1  0.338541512893  0.132309697301
CC311D    CN3     1  0.338541512893  0.125520000000
CC311D   CN3A     1  0.329632525712  0.177512086349
CC311D   CN3B     1  0.329632525712  0.177512086349
CC311D   CN3C     1  0.329632525712  0.177512086349
CC311D   CN3D     1  0.338541512893  0.125520000000
CC311D   CN3T     1  0.338541512893  0.125520000000
CC311D    CN4     1  0.338541512893  0.114583559030
CC311D    CN5     1  0.338541512893  0.114583559030
CC311D   CN5G     1  0.338541512893  0.114583559030
CC311D    CN6     1  0.338541512893  0.041840000000
CC311D    CN7     1  0.338541512893  0.041840000000
CC311D   CN7B     1  0.338541512893  0.041840000000
CC311D   CN7E     1  0.338541512893  0.041840000000
CC311D    CN8     1  0.338541512893  0.041840000000
CC311D   CN8B     1  0.338541512893  0.041840000000
CC311D    CN9     1  0.338541512893  0.041840000000
CC311D    CNA     1  0.346773417049  0.110698234855
CC311D   CNA2     1  0.338541512893  0.110698234855
CC311D   CNE1     1  0.355468588538  0.109105371453
CC311D   CNE2     1  0.354577689820  0.105847757841
CC311D    CNG     1  0.347450500075  0.138767581228
CC311D   CO2P     1  0.251910521541  0.164138698618
CC311D   CO3P     1  0.192264852362  0.144393471099
CC311D    COA     1  0.347450500075  0.138767581228
CC311D    CP1     1  0.338541512893  0.041840000000
CC311D    CP2     1  0.338541512893  0.041840000000
CC311D    CP3     1  0.338541512893  0.041840000000
CC311D    CPA     1  0.329632525712  0.125520000000
CC311D    CPB     1  0.329632525712  0.125520000000
CC311D   CPD1     1  0.338541512893  0.041840000000
CC311D   CPH1     1  0.329632525712  0.093557084179
CC311D   CPH2     1  0.329632525712  0.093557084179
CC311D    CPM     1  0.329632525712  0.125520000000
CC311D    CPT     1  0.334977918021  0.131646486622
CC311D   CR2P     1  0.263634748672  0.170828164985
CC311D   CR33     1  0.338541512893  0.041840000000
CC311D   CR3P     1  0.244382427373  0.145299904804
CC311D   CRL1     1  0.338541512893  0.041840000000
CC311D   CRL2     1  0.338541512893  0.041840000000
CC311D   CRN1     1  0.347450500075  0.138767581228
CC311D     CS     1  0.365268474438  0.138767581228
CC311D    CST     1  0.308518226092  0.100764063435
CC311D     CT     1  0.338541512893  0.041840000000
CC311D    CT1     1  0.338541512893  0.041840000000
CC311D   CT1X     1  0.338541512893  0.041840000000
CC311D    CT2     1  0.338541512893  0.041840000000
CC311D   CT2A     1  0.338541512893  0.041840000000
CC311D   CT2P     1  0.338541512893  0.041840000000
CC311D   CT2X     1  0.338541512893  0.041840000000
CC311D    CT3     1  0.338541512893  0.041840000000
CC311D   CT3X     1  0.338541512893  0.041840000000
CC311D   CTD1     1  0.338541512893  0.041840000000
CC311D   CTL1     1  0.338541512893  0.041840000000
CC311D   CTL2     1  0.338541512893  0.041840000000
CC311D   CTL3     1  0.338541512893  0.041840000000
CC311D   CTL5     1  0.338541512893  0.041840000000
CC311D   CTO1     1  0.338541512893  0.041840000000
CC311D   CTO2     1  0.338541512893  0.041840000000
CC311D     CU     1  0.285800308779  0.908997471504
CC311D   CU1P     1  0.246066225950  0.180057894334
CC311D   CU2P     1  0.233869822499  0.162315474555
CC311D     CY     1  0.346559601357  0.113045454929
CC311D    DUM     1  0.169270756447  0.000000000000
CC311D   DY3P     1  0.297952167295  0.171135318061
CC311D   ER3P     1  0.291083338178  0.169232326746
CC311D   EU2P     1  0.333231756533  0.203602227414
CC311D   EU3P     1  0.304954631219  0.174528477447
CC311D     F1     1  0.314487247504  0.153729976257
CC311D     F2     1  0.314487247504  0.135577095411
CC311D     F3     1  0.311814551349  0.130309939452
CC311D     FA     1  0.320723538531  0.144938011577
CC311D     FE     1  0.227179173126  0.000000000000
CC311D   FE2P     1  0.265496726993  0.167098295383
CC311D   FE3P     1  0.219722350855  0.148045032716
CC311D   FGA1     1  0.314487247504  0.153729976257
CC311D   FGA2     1  0.314487247504  0.135577095411
CC311D   FGA3     1  0.311814551349  0.130309939452
CC311D   FGP1     1  0.311814551349  0.130309939452
CC311D   FGR1     1  0.320723538531  0.144938011577
CC311D    FNA     1  0.320723538531  0.144938011577
CC311D   GA3P     1  0.189485248361  0.145299904804
CC311D   GD3P     1  0.303351013527  0.173673803114
CC311D      H     1  0.189271432669  0.089736802707
CC311D     HA     1  0.286869387241  0.062058748940
CC311D    HA1     1  0.288651184677  0.088756043175
CC311D    HA2     1  0.288651184677  0.077149148019
CC311D    HA3     1  0.288651184677  0.064818249282
CC311D    HAL     1  0.286869387241  0.062058748940
CC311D   HAL1     1  0.286869387241  0.062058748940
CC311D   HAL2     1  0.288651184677  0.070011711020
CC311D   HAL3     1  0.288651184677  0.064818249282
CC311D     HB     1  0.286869387241  0.062058748940
CC311D    HB1     1  0.286869387241  0.062058748940
CC311D    HB2     1  0.288651184677  0.070011711020
CC311D    HBL     1  0.286869387241  0.062058748940
CC311D     HC     1  0.189271432669  0.089736802707
CC311D   HCA1     1  0.288651184677  0.088756043175
CC311D  HCA1A     1  0.288651184677  0.088756043175
CC311D HCA1C2     1  0.288651184677  0.088756043175
CC311D   HCA2     1  0.288651184677  0.078275472531
CC311D HCA25A     1  0.285087589805  0.078275472531
CC311D  HCA2A     1  0.288651184677  0.078275472531
CC311D HCA2C2     1  0.285087589805  0.078275472531
CC311D   HCA3     1  0.288651184677  0.064818249282
CC311D  HCA3A     1  0.288651184677  0.064818249282
CC311D  HCA3M     1  0.288651184677  0.064818249282
CC311D    HCL     1  0.189271432669  0.089736802707
CC311D   HCP1     1  0.189271432669  0.089736802707
CC311D  HCP1M     1  0.189271432669  0.089736802707
CC311D   HCR1     1  0.240542653898  0.089736802707
CC311D     HE     1  0.301123766731  0.061020452073
CC311D    HE1     1  0.280633096214  0.073666921749
CC311D    HE2     1  0.281523994932  0.067464972838
CC311D   HEL1     1  0.280633096214  0.073666921749
CC311D   HEL2     1  0.281523994932  0.067464972838
CC311D    HF1     1  0.286869387241  0.070011711020
CC311D    HF2     1  0.285087589805  0.072469005789
CC311D   HG2P     1  0.274557166956  0.189623385225
CC311D   HGA1     1  0.288651184677  0.088756043175
CC311D   HGA2     1  0.288651184677  0.078275472531
CC311D   HGA3     1  0.288651184677  0.064818249282
CC311D   HGA4     1  0.280633096214  0.073666921749
CC311D   HGA5     1  0.281523994932  0.067464972838
CC311D   HGA6     1  0.286869387241  0.070011711020
CC311D   HGA7     1  0.285087589805  0.072469005789
CC311D HGAAM0     1  0.283305792369  0.070011711020
CC311D HGAAM1     1  0.283305792369  0.070011711020
CC311D HGAAM2     1  0.281523994932  0.083680000000
CC311D   HGP1     1  0.189271432669  0.089736802707
CC311D   HGP2     1  0.189271432669  0.089736802707
CC311D   HGP3     1  0.209361198763  0.132309697301
CC311D   HGP4     1  0.189271432669  0.089736802707
CC311D   HGP5     1  0.231633666716  0.089736802707
CC311D HGPAM1     1  0.247224394284  0.039692909190
CC311D HGPAM2     1  0.247224394284  0.041840000000
CC311D HGPAM3     1  0.246778944925  0.045833423612
CC311D  HGR51     1  0.290272620344  0.072469005789
CC311D  HGR52     1  0.249451641079  0.089736802707
CC311D  HGR53     1  0.231633666716  0.089736802707
CC311D  HGR61     1  0.290272620344  0.072469005789
CC311D  HGR62     1  0.267269615442  0.089736802707
CC311D  HGR63     1  0.249451641079  0.089736802707
CC311D  HGR71     1  0.290272620344  0.072469005789
CC311D     HL     1  0.231633666716  0.089736802707
CC311D  HLGA1     1  0.288651184677  0.088756043175
CC311D  HLGA2     1  0.288651184677  0.078275472531
CC311D  HLGA3     1  0.288651184677  0.064818249282
CC311D  HLGA4     1  0.280633096214  0.073666921749
CC311D  HLGP1     1  0.189271432669  0.089736802707
CC311D HLGR52     1  0.249451641079  0.089736802707
CC311D HLGR61     1  0.290272620344  0.072469005789
CC311D HLGR62     1  0.267269615442  0.089736802707
CC311D    HN1     1  0.189271432669  0.089736802707
CC311D    HN2     1  0.189271432669  0.089736802707
CC311D    HN3     1  0.267269615442  0.089736802707
CC311D   HN3B     1  0.249451641079  0.089736802707
CC311D    HN4     1  0.189271432669  0.089736802707
CC311D    HN5     1  0.189271432669  0.089736802707
CC311D    HN6     1  0.286869387241  0.062058748940
CC311D    HN7     1  0.286869387241  0.062058748940
CC311D    HN8     1  0.288651184677  0.070011711020
CC311D    HN9     1  0.288651184677  0.064818249282
CC311D   HNE1     1  0.280633096214  0.073666921749
CC311D   HNE2     1  0.281523994932  0.067464972838
CC311D    HNP     1  0.290272620344  0.072469005789
CC311D   HO3P     1  0.293168041178  0.170263611896
CC311D    HOL     1  0.189271432669  0.089736802707
CC311D     HP     1  0.290272620344  0.072469005789
CC311D   HPER     1  0.189271432669  0.089736802707
CC311D    HR1     1  0.249451641079  0.089736802707
CC311D    HR2     1  0.231633666716  0.089736802707
CC311D    HR3     1  0.300054688270  0.036952087465
CC311D   HRA3     1  0.288651184677  0.064818249282
CC311D   HRM1     1  0.247224394284  0.039692909190
CC311D   HRM2     1  0.247224394284  0.041840000000
CC311D   HRP2     1  0.189271432669  0.089736802707
CC311D     HS     1  0.209361198763  0.132309697301
CC311D   HSIA     1  0.286869387241  0.062058748940
CC311D   HSIO     1  0.189271432669  0.089736802707
CC311D     HT     1  0.189271432669  0.089736802707
CC311D     HX     1  0.189271432669  0.089736802707
CC311D   IGR1     1  0.368832069310  0.301712530731
CC311D   IN3P     1  0.246449312399  0.160580590010
CC311D   LA3P     1  0.327200372211  0.182184255566
CC311D    LIT     1  0.284864865125  0.020196198771
CC311D    LPH     1  0.169270756447  0.000000000000
CC311D   LU3P     1  0.289648991242  0.166731218816
CC311D     MG     1  0.274842254546  0.051243325419
CC311D   MN2P     1  0.276508235149  0.171747976291
CC311D   MN3P     1  0.203516903172  0.148045032716
CC311D      N     1  0.334087019303  0.004184000000
CC311D     NC     1  0.334087019303  0.324091246411
CC311D    NC2     1  0.334087019303  0.187114168357
CC311D  NC2D1     1  0.307360057758  0.187114168357
CC311D  NC311     1  0.347450500075  0.088756043175
CC311D   ND3P     1  0.313587439798  0.177117175768
CC311D     NE     1  0.305578260322  0.122698965603
CC311D  NG1T1     1  0.328741626994  0.177512086349
CC311D  NG2D1     1  0.334087019303  0.187114168357
CC311D  NG2O1     1  0.334087019303  0.187114168357
CC311D  NG2P1     1  0.334087019303  0.187114168357
CC311D NG2R43     1  0.334087019303  0.187114168357
CC311D NG2R50     1  0.334087019303  0.187114168357
CC311D NG2R51     1  0.334087019303  0.187114168357
CC311D NG2R52     1  0.334087019303  0.187114168357
CC311D NG2R53     1  0.334087019303  0.187114168357
CC311D NG2R57     1  0.334087019303  0.187114168357
CC311D NG2R60     1  0.337650614175  0.102486650838
CC311D NG2R61     1  0.334087019303  0.187114168357
CC311D NG2R62     1  0.352795892384  0.093557084179
CC311D NG2R67     1  0.334087019303  0.187114168357
CC311D NG2RC0     1  0.334087019303  0.187114168357
CC311D  NG2S0     1  0.334087019303  0.004184000000
CC311D  NG2S1     1  0.307360057758  0.187114168357
CC311D  NG2S2     1  0.334087019303  0.187114168357
CC311D  NG2S3     1  0.334087019303  0.187114168357
CC311D  NG301     1  0.347450500075  0.078275472531
CC311D  NG311     1  0.347450500075  0.088756043175
CC311D  NG321     1  0.346559601357  0.102486650838
CC311D  NG331     1  0.345668702638  0.110698234855
CC311D NG3C51     1  0.334087019303  0.187114168357
CC311D  NG3N1     1  0.351904993665  0.102486650838
CC311D  NG3P0     1  0.334087019303  0.187114168357
CC311D  NG3P1     1  0.334087019303  0.187114168357
CC311D  NG3P2     1  0.334087019303  0.187114168357
CC311D  NG3P3     1  0.334087019303  0.187114168357
CC311D    NH1     1  0.307360057758  0.187114168357
CC311D    NH2     1  0.334087019303  0.187114168357
CC311D    NH3     1  0.334087019303  0.187114168357
CC311D   NH3L     1  0.334087019303  0.187114168357
CC311D    NHL     1  0.307360057758  0.187114168357
CC311D     NI     1  0.282949432881  0.994525446633
CC311D   NI2P     1  0.238787583423  0.158440517242
CC311D    NN1     1  0.334087019303  0.187114168357
CC311D   NN1C     1  0.334087019303  0.187114168357
CC311D    NN2     1  0.334087019303  0.187114168357
CC311D   NN2B     1  0.334087019303  0.187114168357
CC311D   NN2C     1  0.334087019303  0.187114168357
CC311D   NN2G     1  0.334087019303  0.187114168357
CC311D   NN2U     1  0.334087019303  0.187114168357
CC311D    NN3     1  0.334087019303  0.187114168357
CC311D   NN3A     1  0.334087019303  0.187114168357
CC311D   NN3G     1  0.334087019303  0.187114168357
CC311D   NN3I     1  0.334087019303  0.187114168357
CC311D    NN4     1  0.334087019303  0.187114168357
CC311D    NN6     1  0.334087019303  0.187114168357
CC311D    NNG     1  0.334087019303  0.187114168357
CC311D     NP     1  0.334087019303  0.187114168357
CC311D    NPH     1  0.334087019303  0.187114168357
CC311D    NR1     1  0.334087019303  0.187114168357
CC311D    NR2     1  0.334087019303  0.187114168357
CC311D    NR3     1  0.334087019303  0.187114168357
CC311D   NRC4     1  0.334087019303  0.187114168357
CC311D   NRN1     1  0.347450500075  0.280671252536
CC311D   NRN2     1  0.346559601357  0.102486650838
CC311D    NS1     1  0.334087019303  0.187114168357
CC311D    NS2     1  0.334087019303  0.187114168357
CC311D    NTL     1  0.334087019303  0.187114168357
CC311D     NY     1  0.334087019303  0.187114168357
CC311D      O     1  0.293996576986  0.144938011577
CC311D    O2L     1  0.320723538531  0.144938011577
CC311D    OAL     1  0.326959829558  0.163176000000
CC311D     OB     1  0.293996576986  0.144938011577
CC311D    OBL     1  0.293996576986  0.144938011577
CC311D     OC     1  0.320723538531  0.144938011577
CC311D  OC2D1     1  0.293996576986  0.144938011577
CC311D  OC2D2     1  0.320723538531  0.144938011577
CC311D  OC2D3     1  0.293996576986  0.144938011577
CC311D  OC2D4     1  0.293996576986  0.144938011577
CC311D  OC2DP     1  0.320723538531  0.144938011577
CC311D  OC301     1  0.316269044940  0.132309697301
CC311D  OC302     1  0.316269044940  0.132309697301
CC311D  OC303     1  0.316269044940  0.132309697301
CC311D OC305A     1  0.316269044940  0.132309697301
CC311D  OC30A     1  0.316269044940  0.132309697301
CC311D  OC30P     1  0.326959829558  0.163176000000
CC311D  OC311     1  0.326514380198  0.183381431383
CC311D OC311M     1  0.326514380198  0.183381431383
CC311D  OC312     1  0.326959829558  0.163176000000
CC311D OC3C51     1  0.316269044940  0.132309697301
CC311D OC3C5M     1  0.316269044940  0.132309697301
CC311D OC3C61     1  0.316269044940  0.132309697301
CC311D    OCA     1  0.293996576986  0.144938011577
CC311D    OCL     1  0.320723538531  0.144938011577
CC311D  OG2D1     1  0.293996576986  0.144938011577
CC311D  OG2D2     1  0.320723538531  0.144938011577
CC311D  OG2D3     1  0.293996576986  0.144938011577
CC311D  OG2D4     1  0.320723538531  0.144938011577
CC311D  OG2D5     1  0.320010819556  0.169954883425
CC311D  OG2N1     1  0.320723538531  0.144938011577
CC311D  OG2P1     1  0.320723538531  0.144938011577
CC311D OG2R50     1  0.320723538531  0.144938011577
CC311D  OG2S1     1  0.318906105146  0.157831660601
CC311D  OG301     1  0.316269044940  0.132309697301
CC311D  OG302     1  0.316269044940  0.132309697301
CC311D  OG303     1  0.316269044940  0.132309697301
CC311D  OG304     1  0.316269044940  0.132309697301
CC311D  OG311     1  0.326514380198  0.183381431383
CC311D  OG312     1  0.325178032121  0.144938011577
CC311D OG3C31     1  0.316269044940  0.132309697301
CC311D OG3C51     1  0.316269044940  0.132309697301
CC311D OG3C61     1  0.316269044940  0.132309697301
CC311D OG3R60     1  0.316269044940  0.132309697301
CC311D    OH1     1  0.326959829558  0.163176000000
CC311D    OHL     1  0.326959829558  0.163176000000
CC311D   OLG1     1  0.293996576986  0.144938011577
CC311D   OLG2     1  0.320723538531  0.144938011577
CC311D   OLG3     1  0.320723538531  0.144938011577
CC311D   OLG4     1  0.316269044940  0.132309697301
CC311D   OLG5     1  0.316269044940  0.132309697301
CC311D   OLG6     1  0.326514380198  0.183381431383
CC311D   OLG7     1  0.316269044940  0.132309697301
CC311D   OLG8     1  0.316269044940  0.132309697301
CC311D     OM     1  0.320723538531  0.144938011577
CC311D    ON1     1  0.320723538531  0.144938011577
CC311D   ON1C     1  0.320723538531  0.144938011577
CC311D    ON2     1  0.326959829558  0.163176000000
CC311D   ON2B     1  0.326959829558  0.163176000000
CC311D   ON2M     1  0.316269044940  0.132309697301
CC311D    ON3     1  0.320723538531  0.144938011577
CC311D    ON4     1  0.326959829558  0.163176000000
CC311D    ON5     1  0.326959829558  0.163176000000
CC311D    ON6     1  0.326959829558  0.163176000000
CC311D   ON6B     1  0.326959829558  0.163176000000
CC311D   OPER     1  0.318427692534  0.188901923946
CC311D     OS     1  0.326959829558  0.163176000000
CC311D   OSIA     1  0.326959829558  0.163176000000
CC311D   OSIE     1  0.326959829558  0.163176000000
CC311D   OSIH     1  0.326959829558  0.163176000000
CC311D    OSL     1  0.316269044940  0.132309697301
CC311D   OSLP     1  0.316269044940  0.132309697301
CC311D    OST     1  0.320010819556  0.169954883425
CC311D     OT     1  0.326799467788  0.163176000000
CC311D     OX     1  0.320723538531  0.144938011577
CC311D      P     1  0.360813980847  0.320014464673
CC311D     P2     1  0.360813980847  0.320014464673
CC311D     P3     1  0.360813980847  0.320014464673
CC311D     P4     1  0.360813980847  0.320014464673
CC311D     PB     1  0.328073452955  0.716185437439
CC311D   PB2P     1  0.325890751096  0.204716924713
CC311D     PC     1  0.360813980847  0.320014464673
CC311D     PD     1  0.294842930769  1.037598257516
CC311D   PD2P     1  0.251865976605  0.174628752363
CC311D    PG0     1  0.360813980847  0.320014464673
CC311D    PG1     1  0.360813980847  0.320014464673
CC311D    PG2     1  0.360813980847  0.320014464673
CC311D     PL     1  0.360813980847  0.320014464673
CC311D   PM3P     1  0.316910492017  0.176275053255
CC311D    POT     1  0.326403017859  0.123410269913
CC311D   PR3P     1  0.317079762773  0.178642591472
CC311D     PT     1  0.296001099102  1.168527606863
CC311D   PT2P     1  0.240284293270  0.168973521997
CC311D   PU3P     1  0.318024115415  0.179522368790
CC311D   RA2P     1  0.355459679551  0.229891668540
CC311D   RH3P     1  0.210367914314  0.149983415617
CC311D    RUB     1  0.338541512893  0.162045623205
CC311D      S     1  0.347450500075  0.280671252536
CC311D     SC     1  0.356359487256  0.286840588481
CC311D   SC3P     1  0.266993436839  0.157109060719
CC311D  SEGD1     1  0.363041227642  0.330244580395
CC311D  SG2D1     1  0.351904993665  0.314496560236
CC311D  SG2P1     1  0.355798221064  0.332305491450
CC311D  SG2P2     1  0.352314807076  0.329421919951
CC311D SG2R50     1  0.347450500075  0.280671252536
CC311D  SG301     1  0.345223253279  0.257919081884
CC311D  SG302     1  0.365268474438  0.286840588481
CC311D  SG311     1  0.347450500075  0.280671252536
CC311D  SG3O1     1  0.356359487256  0.286840588481
CC311D  SG3O2     1  0.347450500075  0.247528778125
CC311D  SG3O3     1  0.347450500075  0.247528778125
CC311D     SI     1  0.365268474438  0.324091246411
CC311D   SIH3     1  0.365268474438  0.324091246411
CC311D     SL     1  0.356359487256  0.286840588481
CC311D     SM     1  0.345223253279  0.257919081884
CC311D   SM2P     1  0.334666103469  0.207012887251
CC311D   SM3P     1  0.308847858618  0.175378986746
CC311D   SN2P     1  0.316981763914  0.181365662197
CC311D    SOD     1  0.294954293108  0.090610410351
CC311D     SP     1  0.365268474438  0.280671252536
CC311D   SR2P     1  0.334612649546  0.200133451797
CC311D     SS     1  0.365268474438  0.286840588481
CC311D   TB3P     1  0.300678317372  0.172155203837
CC311D   TI1P     1  0.341276571958  0.266826378666
CC311D   TI3P     1  0.243117351193  0.149983415617
CC311D   TL3P     1  0.246716582015  0.168869889039
CC311D   TM3P     1  0.289417357575  0.168402751521
CC311D    U3P     1  0.320830446377  0.182184255566
CC311D    V2P     1  0.267599247968  0.167830039933
CC311D    V3P     1  0.223989755715  0.147096016316
CC311D    Y3P     1  0.295190381269  0.170263611896
CC311D   YB2P     1  0.312616360195  0.189623385225
CC311D   YB3P     1  0.284659958420  0.167569069413
CC311D     ZN     1  0.266378716724  0.209200000000
 CC312  CC312     1  0.338541512893  0.041840000000
 CC312 CC312C     1  0.338541512893  0.041840000000
 CC312 CC312D     1  0.338541512893  0.041840000000
 CC312 CC3151     1  0.338541512893  0.041840000000
 CC312 CC3152     1  0.338541512893  0.041840000000
 CC312 CC3153     1  0.338541512893  0.041840000000
 CC312 CC3161     1  0.338541512893  0.041840000000
 CC312 CC3162     1  0.338541512893  0.041840000000
 CC312 CC3163     1  0.338541512893  0.041840000000
 CC312  CC31A     1  0.338541512893  0.041840000000
 CC312  CC321     1  0.338541512893  0.041840000000
 CC312 CC321C     1  0.338541512893  0.041840000000
 CC312 CC321D     1  0.338541512893  0.041840000000
 CC312  CC322     1  0.338541512893  0.041840000000
 CC312 CC322C     1  0.338541512893  0.041840000000
 CC312 CC3251     1  0.338541512893  0.041840000000
 CC312 CC325A     1  0.338541512893  0.041840000000
 CC312 CC325B     1  0.338541512893  0.041840000000
 CC312 CC3261     1  0.338541512893  0.041840000000
 CC312 CC3263     1  0.338541512893  0.041840000000
 CC312 CC326A     1  0.338541512893  0.041840000000
 CC312  CC32A     1  0.338541512893  0.041840000000
 CC312  CC331     1  0.338541512893  0.041840000000
 CC312  CC33A     1  0.338541512893  0.041840000000
 CC312    CCL     1  0.347450500075  0.110698234855
 CC312     CD     1  0.347450500075  0.110698234855
 CC312    CE1     1  0.355468588538  0.109105371453
 CC312    CE2     1  0.354577689820  0.105847757841
 CC312   CE3P     1  0.321748072056  0.179522368790
 CC312   CEL1     1  0.355468588538  0.109105371453
 CC312   CEL2     1  0.354577689820  0.105847757841
 CC312   CEL3     1  0.355468588538  0.109105371453
 CC312    CES     1  0.356359487256  0.182376331798
 CC312    CF1     1  0.338541512893  0.102486650838
 CC312    CF2     1  0.351904993665  0.085746484010
 CC312    CF3     1  0.374177461619  0.059170695450
 CC312  CG1N1     1  0.335868816739  0.177512086349
 CC312  CG1T1     1  0.333196120584  0.170981810495
 CC312  CG1T2     1  0.346782326036  0.134409982486
 CC312 CG251O     1  0.355468588538  0.109105371453
 CC312 CG252O     1  0.355468588538  0.109105371453
 CC312 CG25C1     1  0.355468588538  0.109105371453
 CC312 CG25C2     1  0.355468588538  0.109105371453
 CC312  CG2D1     1  0.355468588538  0.109105371453
 CC312 CG2D1O     1  0.355468588538  0.109105371453
 CC312  CG2D2     1  0.354577689820  0.105847757841
 CC312 CG2D2O     1  0.355468588538  0.109105371453
 CC312 CG2DC1     1  0.355468588538  0.109105371453
 CC312 CG2DC2     1  0.355468588538  0.109105371453
 CC312 CG2DC3     1  0.354577689820  0.105847757841
 CC312  CG2N1     1  0.347450500075  0.138767581228
 CC312  CG2N2     1  0.347450500075  0.138767581228
 CC312  CG2O1     1  0.347450500075  0.138767581228
 CC312  CG2O2     1  0.320723538531  0.130979917850
 CC312  CG2O3     1  0.347450500075  0.110698234855
 CC312  CG2O4     1  0.329632525712  0.102486650838
 CC312  CG2O5     1  0.347450500075  0.125520000000
 CC312  CG2O6     1  0.347450500075  0.110698234855
 CC312  CG2O7     1  0.308518226092  0.100764063435
 CC312 CG2R51     1  0.356359487256  0.093557084179
 CC312 CG2R52     1  0.365268474438  0.059170695450
 CC312 CG2R53     1  0.365268474438  0.059170695450
 CC312 CG2R57     1  0.356359487256  0.093557084179
 CC312 CG2R61     1  0.346773417049  0.110698234855
 CC312 CG2R62     1  0.338541512893  0.125520000000
 CC312 CG2R63     1  0.338541512893  0.132309697301
 CC312 CG2R64     1  0.356359487256  0.083680000000
 CC312 CG2R66     1  0.338541512893  0.110698234855
 CC312 CG2R67     1  0.346773417049  0.110698234855
 CC312 CG2R71     1  0.346987232741  0.108300154755
 CC312 CG2RC0     1  0.334977918021  0.131646486622
 CC312 CG2RC7     1  0.334977918021  0.131646486622
 CC312  CG301     1  0.338541512893  0.041840000000
 CC312  CG302     1  0.374177461619  0.059170695450
 CC312  CG311     1  0.338541512893  0.041840000000
 CC312  CG312     1  0.351904993665  0.085746484010
 CC312  CG314     1  0.338541512893  0.041840000000
 CC312  CG321     1  0.338541512893  0.041840000000
 CC312  CG322     1  0.338541512893  0.102486650838
 CC312  CG323     1  0.365268474438  0.138767581228
 CC312  CG324     1  0.338541512893  0.041840000000
 CC312  CG331     1  0.338541512893  0.041840000000
 CC312  CG334     1  0.338541512893  0.041840000000
 CC312 CG3AM0     1  0.344777803920  0.110698234855
 CC312 CG3AM1     1  0.345668702638  0.116852760686
 CC312 CG3AM2     1  0.346559601357  0.118341390899
 CC312 CG3C31     1  0.338541512893  0.041840000000
 CC312 CG3C41     1  0.338541512893  0.041840000000
 CC312 CG3C50     1  0.338541512893  0.041840000000
 CC312 CG3C51     1  0.338541512893  0.041840000000
 CC312 CG3C52     1  0.338541512893  0.041840000000
 CC312 CG3C53     1  0.338541512893  0.041840000000
 CC312 CG3C54     1  0.338541512893  0.041840000000
 CC312 CG3RC1     1  0.338541512893  0.041840000000
 CC312     CL     1  0.347450500075  0.110698234855
 CC312    CLA     1  0.371504765465  0.162045623205
 CC312   CLAL     1  0.339272049842  0.072469005789
 CC312  CLG01     1  0.355468588538  0.109105371453
 CC312  CLG02     1  0.355468588538  0.109105371453
 CC312  CLG03     1  0.320723538531  0.130979917850
 CC312  CLG04     1  0.347450500075  0.110698234855
 CC312  CLG05     1  0.329632525712  0.102486650838
 CC312  CLG06     1  0.346773417049  0.110698234855
 CC312 CLG06A     1  0.346773417049  0.110698234855
 CC312 CLG06B     1  0.346773417049  0.110698234855
 CC312  CLG07     1  0.338541512893  0.125520000000
 CC312  CLG08     1  0.338541512893  0.132309697301
 CC312  CLG09     1  0.346773417049  0.110698234855
 CC312  CLG10     1  0.334977918021  0.131646486622
 CC312  CLG11     1  0.338541512893  0.041840000000
 CC312  CLG12     1  0.338541512893  0.041840000000
 CC312  CLG13     1  0.338541512893  0.041840000000
 CC312  CLG14     1  0.338541512893  0.041840000000
 CC312  CLG15     1  0.338541512893  0.041840000000
 CC312  CLG16     1  0.338541512893  0.041840000000
 CC312  CLGA1     1  0.339432411611  0.245040988571
 CC312  CLGA3     1  0.339432411611  0.232955260941
 CC312  CLGR1     1  0.334977918021  0.200657590935
 CC312     CM     1  0.356359487256  0.138767581228
 CC312     CN     1  0.325178032121  0.187114168357
 CC312    CN1     1  0.338541512893  0.132309697301
 CC312   CN1A     1  0.347450500075  0.110698234855
 CC312   CN1T     1  0.338541512893  0.132309697301
 CC312    CN2     1  0.338541512893  0.132309697301
 CC312    CN3     1  0.338541512893  0.125520000000
 CC312   CN3A     1  0.329632525712  0.177512086349
 CC312   CN3B     1  0.329632525712  0.177512086349
 CC312   CN3C     1  0.329632525712  0.177512086349
 CC312   CN3D     1  0.338541512893  0.125520000000
 CC312   CN3T     1  0.338541512893  0.125520000000
 CC312    CN4     1  0.338541512893  0.114583559030
 CC312    CN5     1  0.338541512893  0.114583559030
 CC312   CN5G     1  0.338541512893  0.114583559030
 CC312    CN6     1  0.338541512893  0.041840000000
 CC312    CN7     1  0.338541512893  0.041840000000
 CC312   CN7B     1  0.338541512893  0.041840000000
 CC312   CN7E     1  0.338541512893  0.041840000000
 CC312    CN8     1  0.338541512893  0.041840000000
 CC312   CN8B     1  0.338541512893  0.041840000000
 CC312    CN9     1  0.338541512893  0.041840000000
 CC312    CNA     1  0.346773417049  0.110698234855
 CC312   CNA2     1  0.338541512893  0.110698234855
 CC312   CNE1     1  0.355468588538  0.109105371453
 CC312   CNE2     1  0.354577689820  0.105847757841
 CC312    CNG     1  0.347450500075  0.138767581228
 CC312   CO2P     1  0.251910521541  0.164138698618
 CC312   CO3P     1  0.192264852362  0.144393471099
 CC312    COA     1  0.347450500075  0.138767581228
 CC312    CP1     1  0.338541512893  0.041840000000
 CC312    CP2     1  0.338541512893  0.041840000000
 CC312    CP3     1  0.338541512893  0.041840000000
 CC312    CPA     1  0.329632525712  0.125520000000
 CC312    CPB     1  0.329632525712  0.125520000000
 CC312   CPD1     1  0.338541512893  0.041840000000
 CC312   CPH1     1  0.329632525712  0.093557084179
 CC312   CPH2     1  0.329632525712  0.093557084179
 CC312    CPM     1  0.329632525712  0.125520000000
 CC312    CPT     1  0.334977918021  0.131646486622
 CC312   CR2P     1  0.263634748672  0.170828164985
 CC312   CR33     1  0.338541512893  0.041840000000
 CC312   CR3P     1  0.244382427373  0.145299904804
 CC312   CRL1     1  0.338541512893  0.041840000000
 CC312   CRL2     1  0.338541512893  0.041840000000
 CC312   CRN1     1  0.347450500075  0.138767581228
 CC312     CS     1  0.365268474438  0.138767581228
 CC312    CST     1  0.308518226092  0.100764063435
 CC312     CT     1  0.338541512893  0.041840000000
 CC312    CT1     1  0.338541512893  0.041840000000
 CC312   CT1X     1  0.338541512893  0.041840000000
 CC312    CT2     1  0.338541512893  0.041840000000
 CC312   CT2A     1  0.338541512893  0.041840000000
 CC312   CT2P     1  0.338541512893  0.041840000000
 CC312   CT2X     1  0.338541512893  0.041840000000
 CC312    CT3     1  0.338541512893  0.041840000000
 CC312   CT3X     1  0.338541512893  0.041840000000
 CC312   CTD1     1  0.338541512893  0.041840000000
 CC312   CTL1     1  0.338541512893  0.041840000000
 CC312   CTL2     1  0.338541512893  0.041840000000
 CC312   CTL3     1  0.338541512893  0.041840000000
 CC312   CTL5     1  0.338541512893  0.041840000000
 CC312   CTO1     1  0.338541512893  0.041840000000
 CC312   CTO2     1  0.338541512893  0.041840000000
 CC312     CU     1  0.285800308779  0.908997471504
 CC312   CU1P     1  0.246066225950  0.180057894334
 CC312   CU2P     1  0.233869822499  0.162315474555
 CC312     CY     1  0.346559601357  0.113045454929
 CC312    DUM     1  0.169270756447  0.000000000000
 CC312   DY3P     1  0.297952167295  0.171135318061
 CC312   ER3P     1  0.291083338178  0.169232326746
 CC312   EU2P     1  0.333231756533  0.203602227414
 CC312   EU3P     1  0.304954631219  0.174528477447
 CC312     F1     1  0.314487247504  0.153729976257
 CC312     F2     1  0.314487247504  0.135577095411
 CC312     F3     1  0.311814551349  0.130309939452
 CC312     FA     1  0.320723538531  0.144938011577
 CC312     FE     1  0.227179173126  0.000000000000
 CC312   FE2P     1  0.265496726993  0.167098295383
 CC312   FE3P     1  0.219722350855  0.148045032716
 CC312   FGA1     1  0.314487247504  0.153729976257
 CC312   FGA2     1  0.314487247504  0.135577095411
 CC312   FGA3     1  0.311814551349  0.130309939452
 CC312   FGP1     1  0.311814551349  0.130309939452
 CC312   FGR1     1  0.320723538531  0.144938011577
 CC312    FNA     1  0.320723538531  0.144938011577
 CC312   GA3P     1  0.189485248361  0.145299904804
 CC312   GD3P     1  0.303351013527  0.173673803114
 CC312      H     1  0.189271432669  0.089736802707
 CC312     HA     1  0.286869387241  0.062058748940
 CC312    HA1     1  0.288651184677  0.088756043175
 CC312    HA2     1  0.288651184677  0.077149148019
 CC312    HA3     1  0.288651184677  0.064818249282
 CC312    HAL     1  0.286869387241  0.062058748940
 CC312   HAL1     1  0.286869387241  0.062058748940
 CC312   HAL2     1  0.288651184677  0.070011711020
 CC312   HAL3     1  0.288651184677  0.064818249282
 CC312     HB     1  0.286869387241  0.062058748940
 CC312    HB1     1  0.286869387241  0.062058748940
 CC312    HB2     1  0.288651184677  0.070011711020
 CC312    HBL     1  0.286869387241  0.062058748940
 CC312     HC     1  0.189271432669  0.089736802707
 CC312   HCA1     1  0.288651184677  0.088756043175
 CC312  HCA1A     1  0.288651184677  0.088756043175
 CC312 HCA1C2     1  0.288651184677  0.088756043175
 CC312   HCA2     1  0.288651184677  0.078275472531
 CC312 HCA25A     1  0.285087589805  0.078275472531
 CC312  HCA2A     1  0.288651184677  0.078275472531
 CC312 HCA2C2     1  0.285087589805  0.078275472531
 CC312   HCA3     1  0.288651184677  0.064818249282
 CC312  HCA3A     1  0.288651184677  0.064818249282
 CC312  HCA3M     1  0.288651184677  0.064818249282
 CC312    HCL     1  0.189271432669  0.089736802707
 CC312   HCP1     1  0.189271432669  0.089736802707
 CC312  HCP1M     1  0.189271432669  0.089736802707
 CC312   HCR1     1  0.240542653898  0.089736802707
 CC312     HE     1  0.301123766731  0.061020452073
 CC312    HE1     1  0.280633096214  0.073666921749
 CC312    HE2     1  0.281523994932  0.067464972838
 CC312   HEL1     1  0.280633096214  0.073666921749
 CC312   HEL2     1  0.281523994932  0.067464972838
 CC312    HF1     1  0.286869387241  0.070011711020
 CC312    HF2     1  0.285087589805  0.072469005789
 CC312   HG2P     1  0.274557166956  0.189623385225
 CC312   HGA1     1  0.288651184677  0.088756043175
 CC312   HGA2     1  0.288651184677  0.078275472531
 CC312   HGA3     1  0.288651184677  0.064818249282
 CC312   HGA4     1  0.280633096214  0.073666921749
 CC312   HGA5     1  0.281523994932  0.067464972838
 CC312   HGA6     1  0.286869387241  0.070011711020
 CC312   HGA7     1  0.285087589805  0.072469005789
 CC312 HGAAM0     1  0.283305792369  0.070011711020
 CC312 HGAAM1     1  0.283305792369  0.070011711020
 CC312 HGAAM2     1  0.281523994932  0.083680000000
 CC312   HGP1     1  0.189271432669  0.089736802707
 CC312   HGP2     1  0.189271432669  0.089736802707
 CC312   HGP3     1  0.209361198763  0.132309697301
 CC312   HGP4     1  0.189271432669  0.089736802707
 CC312   HGP5     1  0.231633666716  0.089736802707
 CC312 HGPAM1     1  0.247224394284  0.039692909190
 CC312 HGPAM2     1  0.247224394284  0.041840000000
 CC312 HGPAM3     1  0.246778944925  0.045833423612
 CC312  HGR51     1  0.290272620344  0.072469005789
 CC312  HGR52     1  0.249451641079  0.089736802707
 CC312  HGR53     1  0.231633666716  0.089736802707
 CC312  HGR61     1  0.290272620344  0.072469005789
 CC312  HGR62     1  0.267269615442  0.089736802707
 CC312  HGR63     1  0.249451641079  0.089736802707
 CC312  HGR71     1  0.290272620344  0.072469005789
 CC312     HL     1  0.231633666716  0.089736802707
 CC312  HLGA1     1  0.288651184677  0.088756043175
 CC312  HLGA2     1  0.288651184677  0.078275472531
 CC312  HLGA3     1  0.288651184677  0.064818249282
 CC312  HLGA4     1  0.280633096214  0.073666921749
 CC312  HLGP1     1  0.189271432669  0.089736802707
 CC312 HLGR52     1  0.249451641079  0.089736802707
 CC312 HLGR61     1  0.290272620344  0.072469005789
 CC312 HLGR62     1  0.267269615442  0.089736802707
 CC312    HN1     1  0.189271432669  0.089736802707
 CC312    HN2     1  0.189271432669  0.089736802707
 CC312    HN3     1  0.267269615442  0.089736802707
 CC312   HN3B     1  0.249451641079  0.089736802707
 CC312    HN4     1  0.189271432669  0.089736802707
 CC312    HN5     1  0.189271432669  0.089736802707
 CC312    HN6     1  0.286869387241  0.062058748940
 CC312    HN7     1  0.286869387241  0.062058748940
 CC312    HN8     1  0.288651184677  0.070011711020
 CC312    HN9     1  0.288651184677  0.064818249282
 CC312   HNE1     1  0.280633096214  0.073666921749
 CC312   HNE2     1  0.281523994932  0.067464972838
 CC312    HNP     1  0.290272620344  0.072469005789
 CC312   HO3P     1  0.293168041178  0.170263611896
 CC312    HOL     1  0.189271432669  0.089736802707
 CC312     HP     1  0.290272620344  0.072469005789
 CC312   HPER     1  0.189271432669  0.089736802707
 CC312    HR1     1  0.249451641079  0.089736802707
 CC312    HR2     1  0.231633666716  0.089736802707
 CC312    HR3     1  0.300054688270  0.036952087465
 CC312   HRA3     1  0.288651184677  0.064818249282
 CC312   HRM1     1  0.247224394284  0.039692909190
 CC312   HRM2     1  0.247224394284  0.041840000000
 CC312   HRP2     1  0.189271432669  0.089736802707
 CC312     HS     1  0.209361198763  0.132309697301
 CC312   HSIA     1  0.286869387241  0.062058748940
 CC312   HSIO     1  0.189271432669  0.089736802707
 CC312     HT     1  0.189271432669  0.089736802707
 CC312     HX     1  0.189271432669  0.089736802707
 CC312   IGR1     1  0.368832069310  0.301712530731
 CC312   IN3P     1  0.246449312399  0.160580590010
 CC312   LA3P     1  0.327200372211  0.182184255566
 CC312    LIT     1  0.284864865125  0.020196198771
 CC312    LPH     1  0.169270756447  0.000000000000
 CC312   LU3P     1  0.289648991242  0.166731218816
 CC312     MG     1  0.274842254546  0.051243325419
 CC312   MN2P     1  0.276508235149  0.171747976291
 CC312   MN3P     1  0.203516903172  0.148045032716
 CC312      N     1  0.334087019303  0.004184000000
 CC312     NC     1  0.334087019303  0.324091246411
 CC312    NC2     1  0.334087019303  0.187114168357
 CC312  NC2D1     1  0.307360057758  0.187114168357
 CC312  NC311     1  0.347450500075  0.088756043175
 CC312   ND3P     1  0.313587439798  0.177117175768
 CC312     NE     1  0.305578260322  0.122698965603
 CC312  NG1T1     1  0.328741626994  0.177512086349
 CC312  NG2D1     1  0.334087019303  0.187114168357
 CC312  NG2O1     1  0.334087019303  0.187114168357
 CC312  NG2P1     1  0.334087019303  0.187114168357
 CC312 NG2R43     1  0.334087019303  0.187114168357
 CC312 NG2R50     1  0.334087019303  0.187114168357
 CC312 NG2R51     1  0.334087019303  0.187114168357
 CC312 NG2R52     1  0.334087019303  0.187114168357
 CC312 NG2R53     1  0.334087019303  0.187114168357
 CC312 NG2R57     1  0.334087019303  0.187114168357
 CC312 NG2R60     1  0.337650614175  0.102486650838
 CC312 NG2R61     1  0.334087019303  0.187114168357
 CC312 NG2R62     1  0.352795892384  0.093557084179
 CC312 NG2R67     1  0.334087019303  0.187114168357
 CC312 NG2RC0     1  0.334087019303  0.187114168357
 CC312  NG2S0     1  0.334087019303  0.004184000000
 CC312  NG2S1     1  0.307360057758  0.187114168357
 CC312  NG2S2     1  0.334087019303  0.187114168357
 CC312  NG2S3     1  0.334087019303  0.187114168357
 CC312  NG301     1  0.347450500075  0.078275472531
 CC312  NG311     1  0.347450500075  0.088756043175
 CC312  NG321     1  0.346559601357  0.102486650838
 CC312  NG331     1  0.345668702638  0.110698234855
 CC312 NG3C51     1  0.334087019303  0.187114168357
 CC312  NG3N1     1  0.351904993665  0.102486650838
 CC312  NG3P0     1  0.334087019303  0.187114168357
 CC312  NG3P1     1  0.334087019303  0.187114168357
 CC312  NG3P2     1  0.334087019303  0.187114168357
 CC312  NG3P3     1  0.334087019303  0.187114168357
 CC312    NH1     1  0.307360057758  0.187114168357
 CC312    NH2     1  0.334087019303  0.187114168357
 CC312    NH3     1  0.334087019303  0.187114168357
 CC312   NH3L     1  0.334087019303  0.187114168357
 CC312    NHL     1  0.307360057758  0.187114168357
 CC312     NI     1  0.282949432881  0.994525446633
 CC312   NI2P     1  0.238787583423  0.158440517242
 CC312    NN1     1  0.334087019303  0.187114168357
 CC312   NN1C     1  0.334087019303  0.187114168357
 CC312    NN2     1  0.334087019303  0.187114168357
 CC312   NN2B     1  0.334087019303  0.187114168357
 CC312   NN2C     1  0.334087019303  0.187114168357
 CC312   NN2G     1  0.334087019303  0.187114168357
 CC312   NN2U     1  0.334087019303  0.187114168357
 CC312    NN3     1  0.334087019303  0.187114168357
 CC312   NN3A     1  0.334087019303  0.187114168357
 CC312   NN3G     1  0.334087019303  0.187114168357
 CC312   NN3I     1  0.334087019303  0.187114168357
 CC312    NN4     1  0.334087019303  0.187114168357
 CC312    NN6     1  0.334087019303  0.187114168357
 CC312    NNG     1  0.334087019303  0.187114168357
 CC312     NP     1  0.334087019303  0.187114168357
 CC312    NPH     1  0.334087019303  0.187114168357
 CC312    NR1     1  0.334087019303  0.187114168357
 CC312    NR2     1  0.334087019303  0.187114168357
 CC312    NR3     1  0.334087019303  0.187114168357
 CC312   NRC4     1  0.334087019303  0.187114168357
 CC312   NRN1     1  0.347450500075  0.280671252536
 CC312   NRN2     1  0.346559601357  0.102486650838
 CC312    NS1     1  0.334087019303  0.187114168357
 CC312    NS2     1  0.334087019303  0.187114168357
 CC312    NTL     1  0.334087019303  0.187114168357
 CC312     NY     1  0.334087019303  0.187114168357
 CC312      O     1  0.293996576986  0.144938011577
 CC312    O2L     1  0.320723538531  0.144938011577
 CC312    OAL     1  0.326959829558  0.163176000000
 CC312     OB     1  0.293996576986  0.144938011577
 CC312    OBL     1  0.293996576986  0.144938011577
 CC312     OC     1  0.320723538531  0.144938011577
 CC312  OC2D1     1  0.293996576986  0.144938011577
 CC312  OC2D2     1  0.320723538531  0.144938011577
 CC312  OC2D3     1  0.293996576986  0.144938011577
 CC312  OC2D4     1  0.293996576986  0.144938011577
 CC312  OC2DP     1  0.320723538531  0.144938011577
 CC312  OC301     1  0.316269044940  0.132309697301
 CC312  OC302     1  0.316269044940  0.132309697301
 CC312  OC303     1  0.316269044940  0.132309697301
 CC312 OC305A     1  0.316269044940  0.132309697301
 CC312  OC30A     1  0.316269044940  0.132309697301
 CC312  OC30P     1  0.326959829558  0.163176000000
 CC312  OC311     1  0.326514380198  0.183381431383
 CC312 OC311M     1  0.326514380198  0.183381431383
 CC312  OC312     1  0.326959829558  0.163176000000
 CC312 OC3C51     1  0.316269044940  0.132309697301
 CC312 OC3C5M     1  0.316269044940  0.132309697301
 CC312 OC3C61     1  0.316269044940  0.132309697301
 CC312    OCA     1  0.293996576986  0.144938011577
 CC312    OCL     1  0.320723538531  0.144938011577
 CC312  OG2D1     1  0.293996576986  0.144938011577
 CC312  OG2D2     1  0.320723538531  0.144938011577
 CC312  OG2D3     1  0.293996576986  0.144938011577
 CC312  OG2D4     1  0.320723538531  0.144938011577
 CC312  OG2D5     1  0.320010819556  0.169954883425
 CC312  OG2N1     1  0.320723538531  0.144938011577
 CC312  OG2P1     1  0.320723538531  0.144938011577
 CC312 OG2R50     1  0.320723538531  0.144938011577
 CC312  OG2S1     1  0.318906105146  0.157831660601
 CC312  OG301     1  0.316269044940  0.132309697301
 CC312  OG302     1  0.316269044940  0.132309697301
 CC312  OG303     1  0.316269044940  0.132309697301
 CC312  OG304     1  0.316269044940  0.132309697301
 CC312  OG311     1  0.326514380198  0.183381431383
 CC312  OG312     1  0.325178032121  0.144938011577
 CC312 OG3C31     1  0.316269044940  0.132309697301
 CC312 OG3C51     1  0.316269044940  0.132309697301
 CC312 OG3C61     1  0.316269044940  0.132309697301
 CC312 OG3R60     1  0.316269044940  0.132309697301
 CC312    OH1     1  0.326959829558  0.163176000000
 CC312    OHL     1  0.326959829558  0.163176000000
 CC312   OLG1     1  0.293996576986  0.144938011577
 CC312   OLG2     1  0.320723538531  0.144938011577
 CC312   OLG3     1  0.320723538531  0.144938011577
 CC312   OLG4     1  0.316269044940  0.132309697301
 CC312   OLG5     1  0.316269044940  0.132309697301
 CC312   OLG6     1  0.326514380198  0.183381431383
 CC312   OLG7     1  0.316269044940  0.132309697301
 CC312   OLG8     1  0.316269044940  0.132309697301
 CC312     OM     1  0.320723538531  0.144938011577
 CC312    ON1     1  0.320723538531  0.144938011577
 CC312   ON1C     1  0.320723538531  0.144938011577
 CC312    ON2     1  0.326959829558  0.163176000000
 CC312   ON2B     1  0.326959829558  0.163176000000
 CC312   ON2M     1  0.316269044940  0.132309697301
 CC312    ON3     1  0.320723538531  0.144938011577
 CC312    ON4     1  0.326959829558  0.163176000000
 CC312    ON5     1  0.326959829558  0.163176000000
 CC312    ON6     1  0.326959829558  0.163176000000
 CC312   ON6B     1  0.326959829558  0.163176000000
 CC312   OPER     1  0.318427692534  0.188901923946
 CC312     OS     1  0.326959829558  0.163176000000
 CC312   OSIA     1  0.326959829558  0.163176000000
 CC312   OSIE     1  0.326959829558  0.163176000000
 CC312   OSIH     1  0.326959829558  0.163176000000
 CC312    OSL     1  0.316269044940  0.132309697301
 CC312   OSLP     1  0.316269044940  0.132309697301
 CC312    OST     1  0.320010819556  0.169954883425
 CC312     OT     1  0.326799467788  0.163176000000
 CC312     OX     1  0.320723538531  0.144938011577
 CC312      P     1  0.360813980847  0.320014464673
 CC312     P2     1  0.360813980847  0.320014464673
 CC312     P3     1  0.360813980847  0.320014464673
 CC312     P4     1  0.360813980847  0.320014464673
 CC312     PB     1  0.328073452955  0.716185437439
 CC312   PB2P     1  0.325890751096  0.204716924713
 CC312     PC     1  0.360813980847  0.320014464673
 CC312     PD     1  0.294842930769  1.037598257516
 CC312   PD2P     1  0.251865976605  0.174628752363
 CC312    PG0     1  0.360813980847  0.320014464673
 CC312    PG1     1  0.360813980847  0.320014464673
 CC312    PG2     1  0.360813980847  0.320014464673
 CC312     PL     1  0.360813980847  0.320014464673
 CC312   PM3P     1  0.316910492017  0.176275053255
 CC312    POT     1  0.326403017859  0.123410269913
 CC312   PR3P     1  0.317079762773  0.178642591472
 CC312     PT     1  0.296001099102  1.168527606863
 CC312   PT2P     1  0.240284293270  0.168973521997
 CC312   PU3P     1  0.318024115415  0.179522368790
 CC312   RA2P     1  0.355459679551  0.229891668540
 CC312   RH3P     1  0.210367914314  0.149983415617
 CC312    RUB     1  0.338541512893  0.162045623205
 CC312      S     1  0.347450500075  0.280671252536
 CC312     SC     1  0.356359487256  0.286840588481
 CC312   SC3P     1  0.266993436839  0.157109060719
 CC312  SEGD1     1  0.363041227642  0.330244580395
 CC312  SG2D1     1  0.351904993665  0.314496560236
 CC312  SG2P1     1  0.355798221064  0.332305491450
 CC312  SG2P2     1  0.352314807076  0.329421919951
 CC312 SG2R50     1  0.347450500075  0.280671252536
 CC312  SG301     1  0.345223253279  0.257919081884
 CC312  SG302     1  0.365268474438  0.286840588481
 CC312  SG311     1  0.347450500075  0.280671252536
 CC312  SG3O1     1  0.356359487256  0.286840588481
 CC312  SG3O2     1  0.347450500075  0.247528778125
 CC312  SG3O3     1  0.347450500075  0.247528778125
 CC312     SI     1  0.365268474438  0.324091246411
 CC312   SIH3     1  0.365268474438  0.324091246411
 CC312     SL     1  0.356359487256  0.286840588481
 CC312     SM     1  0.345223253279  0.257919081884
 CC312   SM2P     1  0.334666103469  0.207012887251
 CC312   SM3P     1  0.308847858618  0.175378986746
 CC312   SN2P     1  0.316981763914  0.181365662197
 CC312    SOD     1  0.294954293108  0.090610410351
 CC312     SP     1  0.365268474438  0.280671252536
 CC312   SR2P     1  0.334612649546  0.200133451797
 CC312     SS     1  0.365268474438  0.286840588481
 CC312   TB3P     1  0.300678317372  0.172155203837
 CC312   TI1P     1  0.341276571958  0.266826378666
 CC312   TI3P     1  0.243117351193  0.149983415617
 CC312   TL3P     1  0.246716582015  0.168869889039
 CC312   TM3P     1  0.289417357575  0.168402751521
 CC312    U3P     1  0.320830446377  0.182184255566
 CC312    V2P     1  0.267599247968  0.167830039933
 CC312    V3P     1  0.223989755715  0.147096016316
 CC312    Y3P     1  0.295190381269  0.170263611896
 CC312   YB2P     1  0.312616360195  0.189623385225
 CC312   YB3P     1  0.284659958420  0.167569069413
 CC312     ZN     1  0.266378716724  0.209200000000
CC312C CC312C     1  0.338541512893  0.041840000000
CC312C CC312D     1  0.338541512893  0.041840000000
CC312C CC3151     1  0.338541512893  0.041840000000
CC312C CC3152     1  0.338541512893  0.041840000000
CC312C CC3153     1  0.338541512893  0.041840000000
CC312C CC3161     1  0.338541512893  0.041840000000
CC312C CC3162     1  0.338541512893  0.041840000000
CC312C CC3163     1  0.338541512893  0.041840000000
CC312C  CC31A     1  0.338541512893  0.041840000000
CC312C  CC321     1  0.338541512893  0.041840000000
CC312C CC321C     1  0.338541512893  0.041840000000
CC312C CC321D     1  0.338541512893  0.041840000000
CC312C  CC322     1  0.338541512893  0.041840000000
CC312C CC322C     1  0.338541512893  0.041840000000
CC312C CC3251     1  0.338541512893  0.041840000000
CC312C CC325A     1  0.338541512893  0.041840000000
CC312C CC325B     1  0.338541512893  0.041840000000
CC312C CC3261     1  0.338541512893  0.041840000000
CC312C CC3263     1  0.338541512893  0.041840000000
CC312C CC326A     1  0.338541512893  0.041840000000
CC312C  CC32A     1  0.338541512893  0.041840000000
CC312C  CC331     1  0.338541512893  0.041840000000
CC312C  CC33A     1  0.338541512893  0.041840000000
CC312C    CCL     1  0.347450500075  0.110698234855
CC312C     CD     1  0.347450500075  0.110698234855
CC312C    CE1     1  0.355468588538  0.109105371453
CC312C    CE2     1  0.354577689820  0.105847757841
CC312C   CE3P     1  0.321748072056  0.179522368790
CC312C   CEL1     1  0.355468588538  0.109105371453
CC312C   CEL2     1  0.354577689820  0.105847757841
CC312C   CEL3     1  0.355468588538  0.109105371453
CC312C    CES     1  0.356359487256  0.182376331798
CC312C    CF1     1  0.338541512893  0.102486650838
CC312C    CF2     1  0.351904993665  0.085746484010
CC312C    CF3     1  0.374177461619  0.059170695450
CC312C  CG1N1     1  0.335868816739  0.177512086349
CC312C  CG1T1     1  0.333196120584  0.170981810495
CC312C  CG1T2     1  0.346782326036  0.134409982486
CC312C CG251O     1  0.355468588538  0.109105371453
CC312C CG252O     1  0.355468588538  0.109105371453
CC312C CG25C1     1  0.355468588538  0.109105371453
CC312C CG25C2     1  0.355468588538  0.109105371453
CC312C  CG2D1     1  0.355468588538  0.109105371453
CC312C CG2D1O     1  0.355468588538  0.109105371453
CC312C  CG2D2     1  0.354577689820  0.105847757841
CC312C CG2D2O     1  0.355468588538  0.109105371453
CC312C CG2DC1     1  0.355468588538  0.109105371453
CC312C CG2DC2     1  0.355468588538  0.109105371453
CC312C CG2DC3     1  0.354577689820  0.105847757841
CC312C  CG2N1     1  0.347450500075  0.138767581228
CC312C  CG2N2     1  0.347450500075  0.138767581228
CC312C  CG2O1     1  0.347450500075  0.138767581228
CC312C  CG2O2     1  0.320723538531  0.130979917850
CC312C  CG2O3     1  0.347450500075  0.110698234855
CC312C  CG2O4     1  0.329632525712  0.102486650838
CC312C  CG2O5     1  0.347450500075  0.125520000000
CC312C  CG2O6     1  0.347450500075  0.110698234855
CC312C  CG2O7     1  0.308518226092  0.100764063435
CC312C CG2R51     1  0.356359487256  0.093557084179
CC312C CG2R52     1  0.365268474438  0.059170695450
CC312C CG2R53     1  0.365268474438  0.059170695450
CC312C CG2R57     1  0.356359487256  0.093557084179
CC312C CG2R61     1  0.346773417049  0.110698234855
CC312C CG2R62     1  0.338541512893  0.125520000000
CC312C CG2R63     1  0.338541512893  0.132309697301
CC312C CG2R64     1  0.356359487256  0.083680000000
CC312C CG2R66     1  0.338541512893  0.110698234855
CC312C CG2R67     1  0.346773417049  0.110698234855
CC312C CG2R71     1  0.346987232741  0.108300154755
CC312C CG2RC0     1  0.334977918021  0.131646486622
CC312C CG2RC7     1  0.334977918021  0.131646486622
CC312C  CG301     1  0.338541512893  0.041840000000
CC312C  CG302     1  0.374177461619  0.059170695450
CC312C  CG311     1  0.338541512893  0.041840000000
CC312C  CG312     1  0.351904993665  0.085746484010
CC312C  CG314     1  0.338541512893  0.041840000000
CC312C  CG321     1  0.338541512893  0.041840000000
CC312C  CG322     1  0.338541512893  0.102486650838
CC312C  CG323     1  0.365268474438  0.138767581228
CC312C  CG324     1  0.338541512893  0.041840000000
CC312C  CG331     1  0.338541512893  0.041840000000
CC312C  CG334     1  0.338541512893  0.041840000000
CC312C CG3AM0     1  0.344777803920  0.110698234855
CC312C CG3AM1     1  0.345668702638  0.116852760686
CC312C CG3AM2     1  0.346559601357  0.118341390899
CC312C CG3C31     1  0.338541512893  0.041840000000
CC312C CG3C41     1  0.338541512893  0.041840000000
CC312C CG3C50     1  0.338541512893  0.041840000000
CC312C CG3C51     1  0.338541512893  0.041840000000
CC312C CG3C52     1  0.338541512893  0.041840000000
CC312C CG3C53     1  0.338541512893  0.041840000000
CC312C CG3C54     1  0.338541512893  0.041840000000
CC312C CG3RC1     1  0.338541512893  0.041840000000
CC312C     CL     1  0.347450500075  0.110698234855
CC312C    CLA     1  0.371504765465  0.162045623205
CC312C   CLAL     1  0.339272049842  0.072469005789
CC312C  CLG01     1  0.355468588538  0.109105371453
CC312C  CLG02     1  0.355468588538  0.109105371453
CC312C  CLG03     1  0.320723538531  0.130979917850
CC312C  CLG04     1  0.347450500075  0.110698234855
CC312C  CLG05     1  0.329632525712  0.102486650838
CC312C  CLG06     1  0.346773417049  0.110698234855
CC312C CLG06A     1  0.346773417049  0.110698234855
CC312C CLG06B     1  0.346773417049  0.110698234855
CC312C  CLG07     1  0.338541512893  0.125520000000
CC312C  CLG08     1  0.338541512893  0.132309697301
CC312C  CLG09     1  0.346773417049  0.110698234855
CC312C  CLG10     1  0.334977918021  0.131646486622
CC312C  CLG11     1  0.338541512893  0.041840000000
CC312C  CLG12     1  0.338541512893  0.041840000000
CC312C  CLG13     1  0.338541512893  0.041840000000
CC312C  CLG14     1  0.338541512893  0.041840000000
CC312C  CLG15     1  0.338541512893  0.041840000000
CC312C  CLG16     1  0.338541512893  0.041840000000
CC312C  CLGA1     1  0.339432411611  0.245040988571
CC312C  CLGA3     1  0.339432411611  0.232955260941
CC312C  CLGR1     1  0.334977918021  0.200657590935
CC312C     CM     1  0.356359487256  0.138767581228
CC312C     CN     1  0.325178032121  0.187114168357
CC312C    CN1     1  0.338541512893  0.132309697301
CC312C   CN1A     1  0.347450500075  0.110698234855
CC312C   CN1T     1  0.338541512893  0.132309697301
CC312C    CN2     1  0.338541512893  0.132309697301
CC312C    CN3     1  0.338541512893  0.125520000000
CC312C   CN3A     1  0.329632525712  0.177512086349
CC312C   CN3B     1  0.329632525712  0.177512086349
CC312C   CN3C     1  0.329632525712  0.177512086349
CC312C   CN3D     1  0.338541512893  0.125520000000
CC312C   CN3T     1  0.338541512893  0.125520000000
CC312C    CN4     1  0.338541512893  0.114583559030
CC312C    CN5     1  0.338541512893  0.114583559030
CC312C   CN5G     1  0.338541512893  0.114583559030
CC312C    CN6     1  0.338541512893  0.041840000000
CC312C    CN7     1  0.338541512893  0.041840000000
CC312C   CN7B     1  0.338541512893  0.041840000000
CC312C   CN7E     1  0.338541512893  0.041840000000
CC312C    CN8     1  0.338541512893  0.041840000000
CC312C   CN8B     1  0.338541512893  0.041840000000
CC312C    CN9     1  0.338541512893  0.041840000000
CC312C    CNA     1  0.346773417049  0.110698234855
CC312C   CNA2     1  0.338541512893  0.110698234855
CC312C   CNE1     1  0.355468588538  0.109105371453
CC312C   CNE2     1  0.354577689820  0.105847757841
CC312C    CNG     1  0.347450500075  0.138767581228
CC312C   CO2P     1  0.251910521541  0.164138698618
CC312C   CO3P     1  0.192264852362  0.144393471099
CC312C    COA     1  0.347450500075  0.138767581228
CC312C    CP1     1  0.338541512893  0.041840000000
CC312C    CP2     1  0.338541512893  0.041840000000
CC312C    CP3     1  0.338541512893  0.041840000000
CC312C    CPA     1  0.329632525712  0.125520000000
CC312C    CPB     1  0.329632525712  0.125520000000
CC312C   CPD1     1  0.338541512893  0.041840000000
CC312C   CPH1     1  0.329632525712  0.093557084179
CC312C   CPH2     1  0.329632525712  0.093557084179
CC312C    CPM     1  0.329632525712  0.125520000000
CC312C    CPT     1  0.334977918021  0.131646486622
CC312C   CR2P     1  0.263634748672  0.170828164985
CC312C   CR33     1  0.338541512893  0.041840000000
CC312C   CR3P     1  0.244382427373  0.145299904804
CC312C   CRL1     1  0.338541512893  0.041840000000
CC312C   CRL2     1  0.338541512893  0.041840000000
CC312C   CRN1     1  0.347450500075  0.138767581228
CC312C     CS     1  0.365268474438  0.138767581228
CC312C    CST     1  0.308518226092  0.100764063435
CC312C     CT     1  0.338541512893  0.041840000000
CC312C    CT1     1  0.338541512893  0.041840000000
CC312C   CT1X     1  0.338541512893  0.041840000000
CC312C    CT2     1  0.338541512893  0.041840000000
CC312C   CT2A     1  0.338541512893  0.041840000000
CC312C   CT2P     1  0.338541512893  0.041840000000
CC312C   CT2X     1  0.338541512893  0.041840000000
CC312C    CT3     1  0.338541512893  0.041840000000
CC312C   CT3X     1  0.338541512893  0.041840000000
CC312C   CTD1     1  0.338541512893  0.041840000000
CC312C   CTL1     1  0.338541512893  0.041840000000
CC312C   CTL2     1  0.338541512893  0.041840000000
CC312C   CTL3     1  0.338541512893  0.041840000000
CC312C   CTL5     1  0.338541512893  0.041840000000
CC312C   CTO1     1  0.338541512893  0.041840000000
CC312C   CTO2     1  0.338541512893  0.041840000000
CC312C     CU     1  0.285800308779  0.908997471504
CC312C   CU1P     1  0.246066225950  0.180057894334
CC312C   CU2P     1  0.233869822499  0.162315474555
CC312C     CY     1  0.346559601357  0.113045454929
CC312C    DUM     1  0.169270756447  0.000000000000
CC312C   DY3P     1  0.297952167295  0.171135318061
CC312C   ER3P     1  0.291083338178  0.169232326746
CC312C   EU2P     1  0.333231756533  0.203602227414
CC312C   EU3P     1  0.304954631219  0.174528477447
CC312C     F1     1  0.314487247504  0.153729976257
CC312C     F2     1  0.314487247504  0.135577095411
CC312C     F3     1  0.311814551349  0.130309939452
CC312C     FA     1  0.320723538531  0.144938011577
CC312C     FE     1  0.227179173126  0.000000000000
CC312C   FE2P     1  0.265496726993  0.167098295383
CC312C   FE3P     1  0.219722350855  0.148045032716
CC312C   FGA1     1  0.314487247504  0.153729976257
CC312C   FGA2     1  0.314487247504  0.135577095411
CC312C   FGA3     1  0.311814551349  0.130309939452
CC312C   FGP1     1  0.311814551349  0.130309939452
CC312C   FGR1     1  0.320723538531  0.144938011577
CC312C    FNA     1  0.320723538531  0.144938011577
CC312C   GA3P     1  0.189485248361  0.145299904804
CC312C   GD3P     1  0.303351013527  0.173673803114
CC312C      H     1  0.189271432669  0.089736802707
CC312C     HA     1  0.286869387241  0.062058748940
CC312C    HA1     1  0.288651184677  0.088756043175
CC312C    HA2     1  0.288651184677  0.077149148019
CC312C    HA3     1  0.288651184677  0.064818249282
CC312C    HAL     1  0.286869387241  0.062058748940
CC312C   HAL1     1  0.286869387241  0.062058748940
CC312C   HAL2     1  0.288651184677  0.070011711020
CC312C   HAL3     1  0.288651184677  0.064818249282
CC312C     HB     1  0.286869387241  0.062058748940
CC312C    HB1     1  0.286869387241  0.062058748940
CC312C    HB2     1  0.288651184677  0.070011711020
CC312C    HBL     1  0.286869387241  0.062058748940
CC312C     HC     1  0.189271432669  0.089736802707
CC312C   HCA1     1  0.288651184677  0.088756043175
CC312C  HCA1A     1  0.288651184677  0.088756043175
CC312C HCA1C2     1  0.288651184677  0.088756043175
CC312C   HCA2     1  0.288651184677  0.078275472531
CC312C HCA25A     1  0.285087589805  0.078275472531
CC312C  HCA2A     1  0.288651184677  0.078275472531
CC312C HCA2C2     1  0.285087589805  0.078275472531
CC312C   HCA3     1  0.288651184677  0.064818249282
CC312C  HCA3A     1  0.288651184677  0.064818249282
CC312C  HCA3M     1  0.288651184677  0.064818249282
CC312C    HCL     1  0.189271432669  0.089736802707
CC312C   HCP1     1  0.189271432669  0.089736802707
CC312C  HCP1M     1  0.189271432669  0.089736802707
CC312C   HCR1     1  0.240542653898  0.089736802707
CC312C     HE     1  0.301123766731  0.061020452073
CC312C    HE1     1  0.280633096214  0.073666921749
CC312C    HE2     1  0.281523994932  0.067464972838
CC312C   HEL1     1  0.280633096214  0.073666921749
CC312C   HEL2     1  0.281523994932  0.067464972838
CC312C    HF1     1  0.286869387241  0.070011711020
CC312C    HF2     1  0.285087589805  0.072469005789
CC312C   HG2P     1  0.274557166956  0.189623385225
CC312C   HGA1     1  0.288651184677  0.088756043175
CC312C   HGA2     1  0.288651184677  0.078275472531
CC312C   HGA3     1  0.288651184677  0.064818249282
CC312C   HGA4     1  0.280633096214  0.073666921749
CC312C   HGA5     1  0.281523994932  0.067464972838
CC312C   HGA6     1  0.286869387241  0.070011711020
CC312C   HGA7     1  0.285087589805  0.072469005789
CC312C HGAAM0     1  0.283305792369  0.070011711020
CC312C HGAAM1     1  0.283305792369  0.070011711020
CC312C HGAAM2     1  0.281523994932  0.083680000000
CC312C   HGP1     1  0.189271432669  0.089736802707
CC312C   HGP2     1  0.189271432669  0.089736802707
CC312C   HGP3     1  0.209361198763  0.132309697301
CC312C   HGP4     1  0.189271432669  0.089736802707
CC312C   HGP5     1  0.231633666716  0.089736802707
CC312C HGPAM1     1  0.247224394284  0.039692909190
CC312C HGPAM2     1  0.247224394284  0.041840000000
CC312C HGPAM3     1  0.246778944925  0.045833423612
CC312C  HGR51     1  0.290272620344  0.072469005789
CC312C  HGR52     1  0.249451641079  0.089736802707
CC312C  HGR53     1  0.231633666716  0.089736802707
CC312C  HGR61     1  0.290272620344  0.072469005789
CC312C  HGR62     1  0.267269615442  0.089736802707
CC312C  HGR63     1  0.249451641079  0.089736802707
CC312C  HGR71     1  0.290272620344  0.072469005789
CC312C     HL     1  0.231633666716  0.089736802707
CC312C  HLGA1     1  0.288651184677  0.088756043175
CC312C  HLGA2     1  0.288651184677  0.078275472531
CC312C  HLGA3     1  0.288651184677  0.064818249282
CC312C  HLGA4     1  0.280633096214  0.073666921749
CC312C  HLGP1     1  0.189271432669  0.089736802707
CC312C HLGR52     1  0.249451641079  0.089736802707
CC312C HLGR61     1  0.290272620344  0.072469005789
CC312C HLGR62     1  0.267269615442  0.089736802707
CC312C    HN1     1  0.189271432669  0.089736802707
CC312C    HN2     1  0.189271432669  0.089736802707
CC312C    HN3     1  0.267269615442  0.089736802707
CC312C   HN3B     1  0.249451641079  0.089736802707
CC312C    HN4     1  0.189271432669  0.089736802707
CC312C    HN5     1  0.189271432669  0.089736802707
CC312C    HN6     1  0.286869387241  0.062058748940
CC312C    HN7     1  0.286869387241  0.062058748940
CC312C    HN8     1  0.288651184677  0.070011711020
CC312C    HN9     1  0.288651184677  0.064818249282
CC312C   HNE1     1  0.280633096214  0.073666921749
CC312C   HNE2     1  0.281523994932  0.067464972838
CC312C    HNP     1  0.290272620344  0.072469005789
CC312C   HO3P     1  0.293168041178  0.170263611896
CC312C    HOL     1  0.189271432669  0.089736802707
CC312C     HP     1  0.290272620344  0.072469005789
CC312C   HPER     1  0.189271432669  0.089736802707
CC312C    HR1     1  0.249451641079  0.089736802707
CC312C    HR2     1  0.231633666716  0.089736802707
CC312C    HR3     1  0.300054688270  0.036952087465
CC312C   HRA3     1  0.288651184677  0.064818249282
CC312C   HRM1     1  0.247224394284  0.039692909190
CC312C   HRM2     1  0.247224394284  0.041840000000
CC312C   HRP2     1  0.189271432669  0.089736802707
CC312C     HS     1  0.209361198763  0.132309697301
CC312C   HSIA     1  0.286869387241  0.062058748940
CC312C   HSIO     1  0.189271432669  0.089736802707
CC312C     HT     1  0.189271432669  0.089736802707
CC312C     HX     1  0.189271432669  0.089736802707
CC312C   IGR1     1  0.368832069310  0.301712530731
CC312C   IN3P     1  0.246449312399  0.160580590010
CC312C   LA3P     1  0.327200372211  0.182184255566
CC312C    LIT     1  0.284864865125  0.020196198771
CC312C    LPH     1  0.169270756447  0.000000000000
CC312C   LU3P     1  0.289648991242  0.166731218816
CC312C     MG     1  0.274842254546  0.051243325419
CC312C   MN2P     1  0.276508235149  0.171747976291
CC312C   MN3P     1  0.203516903172  0.148045032716
CC312C      N     1  0.334087019303  0.004184000000
CC312C     NC     1  0.334087019303  0.324091246411
CC312C    NC2     1  0.334087019303  0.187114168357
CC312C  NC2D1     1  0.307360057758  0.187114168357
CC312C  NC311     1  0.347450500075  0.088756043175
CC312C   ND3P     1  0.313587439798  0.177117175768
CC312C     NE     1  0.305578260322  0.122698965603
CC312C  NG1T1     1  0.328741626994  0.177512086349
CC312C  NG2D1     1  0.334087019303  0.187114168357
CC312C  NG2O1     1  0.334087019303  0.187114168357
CC312C  NG2P1     1  0.334087019303  0.187114168357
CC312C NG2R43     1  0.334087019303  0.187114168357
CC312C NG2R50     1  0.334087019303  0.187114168357
CC312C NG2R51     1  0.334087019303  0.187114168357
CC312C NG2R52     1  0.334087019303  0.187114168357
CC312C NG2R53     1  0.334087019303  0.187114168357
CC312C NG2R57     1  0.334087019303  0.187114168357
CC312C NG2R60     1  0.337650614175  0.102486650838
CC312C NG2R61     1  0.334087019303  0.187114168357
CC312C NG2R62     1  0.352795892384  0.093557084179
CC312C NG2R67     1  0.334087019303  0.187114168357
CC312C NG2RC0     1  0.334087019303  0.187114168357
CC312C  NG2S0     1  0.334087019303  0.004184000000
CC312C  NG2S1     1  0.307360057758  0.187114168357
CC312C  NG2S2     1  0.334087019303  0.187114168357
CC312C  NG2S3     1  0.334087019303  0.187114168357
CC312C  NG301     1  0.347450500075  0.078275472531
CC312C  NG311     1  0.347450500075  0.088756043175
CC312C  NG321     1  0.346559601357  0.102486650838
CC312C  NG331     1  0.345668702638  0.110698234855
CC312C NG3C51     1  0.334087019303  0.187114168357
CC312C  NG3N1     1  0.351904993665  0.102486650838
CC312C  NG3P0     1  0.334087019303  0.187114168357
CC312C  NG3P1     1  0.334087019303  0.187114168357
CC312C  NG3P2     1  0.334087019303  0.187114168357
CC312C  NG3P3     1  0.334087019303  0.187114168357
CC312C    NH1     1  0.307360057758  0.187114168357
CC312C    NH2     1  0.334087019303  0.187114168357
CC312C    NH3     1  0.334087019303  0.187114168357
CC312C   NH3L     1  0.334087019303  0.187114168357
CC312C    NHL     1  0.307360057758  0.187114168357
CC312C     NI     1  0.282949432881  0.994525446633
CC312C   NI2P     1  0.238787583423  0.158440517242
CC312C    NN1     1  0.334087019303  0.187114168357
CC312C   NN1C     1  0.334087019303  0.187114168357
CC312C    NN2     1  0.334087019303  0.187114168357
CC312C   NN2B     1  0.334087019303  0.187114168357
CC312C   NN2C     1  0.334087019303  0.187114168357
CC312C   NN2G     1  0.334087019303  0.187114168357
CC312C   NN2U     1  0.334087019303  0.187114168357
CC312C    NN3     1  0.334087019303  0.187114168357
CC312C   NN3A     1  0.334087019303  0.187114168357
CC312C   NN3G     1  0.334087019303  0.187114168357
CC312C   NN3I     1  0.334087019303  0.187114168357
CC312C    NN4     1  0.334087019303  0.187114168357
CC312C    NN6     1  0.334087019303  0.187114168357
CC312C    NNG     1  0.334087019303  0.187114168357
CC312C     NP     1  0.334087019303  0.187114168357
CC312C    NPH     1  0.334087019303  0.187114168357
CC312C    NR1     1  0.334087019303  0.187114168357
CC312C    NR2     1  0.334087019303  0.187114168357
CC312C    NR3     1  0.334087019303  0.187114168357
CC312C   NRC4     1  0.334087019303  0.187114168357
CC312C   NRN1     1  0.347450500075  0.280671252536
CC312C   NRN2     1  0.346559601357  0.102486650838
CC312C    NS1     1  0.334087019303  0.187114168357
CC312C    NS2     1  0.334087019303  0.187114168357
CC312C    NTL     1  0.334087019303  0.187114168357
CC312C     NY     1  0.334087019303  0.187114168357
CC312C      O     1  0.293996576986  0.144938011577
CC312C    O2L     1  0.320723538531  0.144938011577
CC312C    OAL     1  0.326959829558  0.163176000000
CC312C     OB     1  0.293996576986  0.144938011577
CC312C    OBL     1  0.293996576986  0.144938011577
CC312C     OC     1  0.320723538531  0.144938011577
CC312C  OC2D1     1  0.293996576986  0.144938011577
CC312C  OC2D2     1  0.320723538531  0.144938011577
CC312C  OC2D3     1  0.293996576986  0.144938011577
CC312C  OC2D4     1  0.293996576986  0.144938011577
CC312C  OC2DP     1  0.320723538531  0.144938011577
CC312C  OC301     1  0.316269044940  0.132309697301
CC312C  OC302     1  0.316269044940  0.132309697301
CC312C  OC303     1  0.316269044940  0.132309697301
CC312C OC305A     1  0.316269044940  0.132309697301
CC312C  OC30A     1  0.316269044940  0.132309697301
CC312C  OC30P     1  0.326959829558  0.163176000000
CC312C  OC311     1  0.326514380198  0.183381431383
CC312C OC311M     1  0.326514380198  0.183381431383
CC312C  OC312     1  0.326959829558  0.163176000000
CC312C OC3C51     1  0.316269044940  0.132309697301
CC312C OC3C5M     1  0.316269044940  0.132309697301
CC312C OC3C61     1  0.316269044940  0.132309697301
CC312C    OCA     1  0.293996576986  0.144938011577
CC312C    OCL     1  0.320723538531  0.144938011577
CC312C  OG2D1     1  0.293996576986  0.144938011577
CC312C  OG2D2     1  0.320723538531  0.144938011577
CC312C  OG2D3     1  0.293996576986  0.144938011577
CC312C  OG2D4     1  0.320723538531  0.144938011577
CC312C  OG2D5     1  0.320010819556  0.169954883425
CC312C  OG2N1     1  0.320723538531  0.144938011577
CC312C  OG2P1     1  0.320723538531  0.144938011577
CC312C OG2R50     1  0.320723538531  0.144938011577
CC312C  OG2S1     1  0.318906105146  0.157831660601
CC312C  OG301     1  0.316269044940  0.132309697301
CC312C  OG302     1  0.316269044940  0.132309697301
CC312C  OG303     1  0.316269044940  0.132309697301
CC312C  OG304     1  0.316269044940  0.132309697301
CC312C  OG311     1  0.326514380198  0.183381431383
CC312C  OG312     1  0.325178032121  0.144938011577
CC312C OG3C31     1  0.316269044940  0.132309697301
CC312C OG3C51     1  0.316269044940  0.132309697301
CC312C OG3C61     1  0.316269044940  0.132309697301
CC312C OG3R60     1  0.316269044940  0.132309697301
CC312C    OH1     1  0.326959829558  0.163176000000
CC312C    OHL     1  0.326959829558  0.163176000000
CC312C   OLG1     1  0.293996576986  0.144938011577
CC312C   OLG2     1  0.320723538531  0.144938011577
CC312C   OLG3     1  0.320723538531  0.144938011577
CC312C   OLG4     1  0.316269044940  0.132309697301
CC312C   OLG5     1  0.316269044940  0.132309697301
CC312C   OLG6     1  0.326514380198  0.183381431383
CC312C   OLG7     1  0.316269044940  0.132309697301
CC312C   OLG8     1  0.316269044940  0.132309697301
CC312C     OM     1  0.320723538531  0.144938011577
CC312C    ON1     1  0.320723538531  0.144938011577
CC312C   ON1C     1  0.320723538531  0.144938011577
CC312C    ON2     1  0.326959829558  0.163176000000
CC312C   ON2B     1  0.326959829558  0.163176000000
CC312C   ON2M     1  0.316269044940  0.132309697301
CC312C    ON3     1  0.320723538531  0.144938011577
CC312C    ON4     1  0.326959829558  0.163176000000
CC312C    ON5     1  0.326959829558  0.163176000000
CC312C    ON6     1  0.326959829558  0.163176000000
CC312C   ON6B     1  0.326959829558  0.163176000000
CC312C   OPER     1  0.318427692534  0.188901923946
CC312C     OS     1  0.326959829558  0.163176000000
CC312C   OSIA     1  0.326959829558  0.163176000000
CC312C   OSIE     1  0.326959829558  0.163176000000
CC312C   OSIH     1  0.326959829558  0.163176000000
CC312C    OSL     1  0.316269044940  0.132309697301
CC312C   OSLP     1  0.316269044940  0.132309697301
CC312C    OST     1  0.320010819556  0.169954883425
CC312C     OT     1  0.326799467788  0.163176000000
CC312C     OX     1  0.320723538531  0.144938011577
CC312C      P     1  0.360813980847  0.320014464673
CC312C     P2     1  0.360813980847  0.320014464673
CC312C     P3     1  0.360813980847  0.320014464673
CC312C     P4     1  0.360813980847  0.320014464673
CC312C     PB     1  0.328073452955  0.716185437439
CC312C   PB2P     1  0.325890751096  0.204716924713
CC312C     PC     1  0.360813980847  0.320014464673
CC312C     PD     1  0.294842930769  1.037598257516
CC312C   PD2P     1  0.251865976605  0.174628752363
CC312C    PG0     1  0.360813980847  0.320014464673
CC312C    PG1     1  0.360813980847  0.320014464673
CC312C    PG2     1  0.360813980847  0.320014464673
CC312C     PL     1  0.360813980847  0.320014464673
CC312C   PM3P     1  0.316910492017  0.176275053255
CC312C    POT     1  0.326403017859  0.123410269913
CC312C   PR3P     1  0.317079762773  0.178642591472
CC312C     PT     1  0.296001099102  1.168527606863
CC312C   PT2P     1  0.240284293270  0.168973521997
CC312C   PU3P     1  0.318024115415  0.179522368790
CC312C   RA2P     1  0.355459679551  0.229891668540
CC312C   RH3P     1  0.210367914314  0.149983415617
CC312C    RUB     1  0.338541512893  0.162045623205
CC312C      S     1  0.347450500075  0.280671252536
CC312C     SC     1  0.356359487256  0.286840588481
CC312C   SC3P     1  0.266993436839  0.157109060719
CC312C  SEGD1     1  0.363041227642  0.330244580395
CC312C  SG2D1     1  0.351904993665  0.314496560236
CC312C  SG2P1     1  0.355798221064  0.332305491450
CC312C  SG2P2     1  0.352314807076  0.329421919951
CC312C SG2R50     1  0.347450500075  0.280671252536
CC312C  SG301     1  0.345223253279  0.257919081884
CC312C  SG302     1  0.365268474438  0.286840588481
CC312C  SG311     1  0.347450500075  0.280671252536
CC312C  SG3O1     1  0.356359487256  0.286840588481
CC312C  SG3O2     1  0.347450500075  0.247528778125
CC312C  SG3O3     1  0.347450500075  0.247528778125
CC312C     SI     1  0.365268474438  0.324091246411
CC312C   SIH3     1  0.365268474438  0.324091246411
CC312C     SL     1  0.356359487256  0.286840588481
CC312C     SM     1  0.345223253279  0.257919081884
CC312C   SM2P     1  0.334666103469  0.207012887251
CC312C   SM3P     1  0.308847858618  0.175378986746
CC312C   SN2P     1  0.316981763914  0.181365662197
CC312C    SOD     1  0.294954293108  0.090610410351
CC312C     SP     1  0.365268474438  0.280671252536
CC312C   SR2P     1  0.334612649546  0.200133451797
CC312C     SS     1  0.365268474438  0.286840588481
CC312C   TB3P     1  0.300678317372  0.172155203837
CC312C   TI1P     1  0.341276571958  0.266826378666
CC312C   TI3P     1  0.243117351193  0.149983415617
CC312C   TL3P     1  0.246716582015  0.168869889039
CC312C   TM3P     1  0.289417357575  0.168402751521
CC312C    U3P     1  0.320830446377  0.182184255566
CC312C    V2P     1  0.267599247968  0.167830039933
CC312C    V3P     1  0.223989755715  0.147096016316
CC312C    Y3P     1  0.295190381269  0.170263611896
CC312C   YB2P     1  0.312616360195  0.189623385225
CC312C   YB3P     1  0.284659958420  0.167569069413
CC312C     ZN     1  0.266378716724  0.209200000000
CC312D CC312D     1  0.338541512893  0.041840000000
CC312D CC3151     1  0.338541512893  0.041840000000
CC312D CC3152     1  0.338541512893  0.041840000000
CC312D CC3153     1  0.338541512893  0.041840000000
CC312D CC3161     1  0.338541512893  0.041840000000
CC312D CC3162     1  0.338541512893  0.041840000000
CC312D CC3163     1  0.338541512893  0.041840000000
CC312D  CC31A     1  0.338541512893  0.041840000000
CC312D  CC321     1  0.338541512893  0.041840000000
CC312D CC321C     1  0.338541512893  0.041840000000
CC312D CC321D     1  0.338541512893  0.041840000000
CC312D  CC322     1  0.338541512893  0.041840000000
CC312D CC322C     1  0.338541512893  0.041840000000
CC312D CC3251     1  0.338541512893  0.041840000000
CC312D CC325A     1  0.338541512893  0.041840000000
CC312D CC325B     1  0.338541512893  0.041840000000
CC312D CC3261     1  0.338541512893  0.041840000000
CC312D CC3263     1  0.338541512893  0.041840000000
CC312D CC326A     1  0.338541512893  0.041840000000
CC312D  CC32A     1  0.338541512893  0.041840000000
CC312D  CC331     1  0.338541512893  0.041840000000
CC312D  CC33A     1  0.338541512893  0.041840000000
CC312D    CCL     1  0.347450500075  0.110698234855
CC312D     CD     1  0.347450500075  0.110698234855
CC312D    CE1     1  0.355468588538  0.109105371453
CC312D    CE2     1  0.354577689820  0.105847757841
CC312D   CE3P     1  0.321748072056  0.179522368790
CC312D   CEL1     1  0.355468588538  0.109105371453
CC312D   CEL2     1  0.354577689820  0.105847757841
CC312D   CEL3     1  0.355468588538  0.109105371453
CC312D    CES     1  0.356359487256  0.182376331798
CC312D    CF1     1  0.338541512893  0.102486650838
CC312D    CF2     1  0.351904993665  0.085746484010
CC312D    CF3     1  0.374177461619  0.059170695450
CC312D  CG1N1     1  0.335868816739  0.177512086349
CC312D  CG1T1     1  0.333196120584  0.170981810495
CC312D  CG1T2     1  0.346782326036  0.134409982486
CC312D CG251O     1  0.355468588538  0.109105371453
CC312D CG252O     1  0.355468588538  0.109105371453
CC312D CG25C1     1  0.355468588538  0.109105371453
CC312D CG25C2     1  0.355468588538  0.109105371453
CC312D  CG2D1     1  0.355468588538  0.109105371453
CC312D CG2D1O     1  0.355468588538  0.109105371453
CC312D  CG2D2     1  0.354577689820  0.105847757841
CC312D CG2D2O     1  0.355468588538  0.109105371453
CC312D CG2DC1     1  0.355468588538  0.109105371453
CC312D CG2DC2     1  0.355468588538  0.109105371453
CC312D CG2DC3     1  0.354577689820  0.105847757841
CC312D  CG2N1     1  0.347450500075  0.138767581228
CC312D  CG2N2     1  0.347450500075  0.138767581228
CC312D  CG2O1     1  0.347450500075  0.138767581228
CC312D  CG2O2     1  0.320723538531  0.130979917850
CC312D  CG2O3     1  0.347450500075  0.110698234855
CC312D  CG2O4     1  0.329632525712  0.102486650838
CC312D  CG2O5     1  0.347450500075  0.125520000000
CC312D  CG2O6     1  0.347450500075  0.110698234855
CC312D  CG2O7     1  0.308518226092  0.100764063435
CC312D CG2R51     1  0.356359487256  0.093557084179
CC312D CG2R52     1  0.365268474438  0.059170695450
CC312D CG2R53     1  0.365268474438  0.059170695450
CC312D CG2R57     1  0.356359487256  0.093557084179
CC312D CG2R61     1  0.346773417049  0.110698234855
CC312D CG2R62     1  0.338541512893  0.125520000000
CC312D CG2R63     1  0.338541512893  0.132309697301
CC312D CG2R64     1  0.356359487256  0.083680000000
CC312D CG2R66     1  0.338541512893  0.110698234855
CC312D CG2R67     1  0.346773417049  0.110698234855
CC312D CG2R71     1  0.346987232741  0.108300154755
CC312D CG2RC0     1  0.334977918021  0.131646486622
CC312D CG2RC7     1  0.334977918021  0.131646486622
CC312D  CG301     1  0.338541512893  0.041840000000
CC312D  CG302     1  0.374177461619  0.059170695450
CC312D  CG311     1  0.338541512893  0.041840000000
CC312D  CG312     1  0.351904993665  0.085746484010
CC312D  CG314     1  0.338541512893  0.041840000000
CC312D  CG321     1  0.338541512893  0.041840000000
CC312D  CG322     1  0.338541512893  0.102486650838
CC312D  CG323     1  0.365268474438  0.138767581228
CC312D  CG324     1  0.338541512893  0.041840000000
CC312D  CG331     1  0.338541512893  0.041840000000
CC312D  CG334     1  0.338541512893  0.041840000000
CC312D CG3AM0     1  0.344777803920  0.110698234855
CC312D CG3AM1     1  0.345668702638  0.116852760686
CC312D CG3AM2     1  0.346559601357  0.118341390899
CC312D CG3C31     1  0.338541512893  0.041840000000
CC312D CG3C41     1  0.338541512893  0.041840000000
CC312D CG3C50     1  0.338541512893  0.041840000000
CC312D CG3C51     1  0.338541512893  0.041840000000
CC312D CG3C52     1  0.338541512893  0.041840000000
CC312D CG3C53     1  0.338541512893  0.041840000000
CC312D CG3C54     1  0.338541512893  0.041840000000
CC312D CG3RC1     1  0.338541512893  0.041840000000
CC312D     CL     1  0.347450500075  0.110698234855
CC312D    CLA     1  0.371504765465  0.162045623205
CC312D   CLAL     1  0.339272049842  0.072469005789
CC312D  CLG01     1  0.355468588538  0.109105371453
CC312D  CLG02     1  0.355468588538  0.109105371453
CC312D  CLG03     1  0.320723538531  0.130979917850
CC312D  CLG04     1  0.347450500075  0.110698234855
CC312D  CLG05     1  0.329632525712  0.102486650838
CC312D  CLG06     1  0.346773417049  0.110698234855
CC312D CLG06A     1  0.346773417049  0.110698234855
CC312D CLG06B     1  0.346773417049  0.110698234855
CC312D  CLG07     1  0.338541512893  0.125520000000
CC312D  CLG08     1  0.338541512893  0.132309697301
CC312D  CLG09     1  0.346773417049  0.110698234855
CC312D  CLG10     1  0.334977918021  0.131646486622
CC312D  CLG11     1  0.338541512893  0.041840000000
CC312D  CLG12     1  0.338541512893  0.041840000000
CC312D  CLG13     1  0.338541512893  0.041840000000
CC312D  CLG14     1  0.338541512893  0.041840000000
CC312D  CLG15     1  0.338541512893  0.041840000000
CC312D  CLG16     1  0.338541512893  0.041840000000
CC312D  CLGA1     1  0.339432411611  0.245040988571
CC312D  CLGA3     1  0.339432411611  0.232955260941
CC312D  CLGR1     1  0.334977918021  0.200657590935
CC312D     CM     1  0.356359487256  0.138767581228
CC312D     CN     1  0.325178032121  0.187114168357
CC312D    CN1     1  0.338541512893  0.132309697301
CC312D   CN1A     1  0.347450500075  0.110698234855
CC312D   CN1T     1  0.338541512893  0.132309697301
CC312D    CN2     1  0.338541512893  0.132309697301
CC312D    CN3     1  0.338541512893  0.125520000000
CC312D   CN3A     1  0.329632525712  0.177512086349
CC312D   CN3B     1  0.329632525712  0.177512086349
CC312D   CN3C     1  0.329632525712  0.177512086349
CC312D   CN3D     1  0.338541512893  0.125520000000
CC312D   CN3T     1  0.338541512893  0.125520000000
CC312D    CN4     1  0.338541512893  0.114583559030
CC312D    CN5     1  0.338541512893  0.114583559030
CC312D   CN5G     1  0.338541512893  0.114583559030
CC312D    CN6     1  0.338541512893  0.041840000000
CC312D    CN7     1  0.338541512893  0.041840000000
CC312D   CN7B     1  0.338541512893  0.041840000000
CC312D   CN7E     1  0.338541512893  0.041840000000
CC312D    CN8     1  0.338541512893  0.041840000000
CC312D   CN8B     1  0.338541512893  0.041840000000
CC312D    CN9     1  0.338541512893  0.041840000000
CC312D    CNA     1  0.346773417049  0.110698234855
CC312D   CNA2     1  0.338541512893  0.110698234855
CC312D   CNE1     1  0.355468588538  0.109105371453
CC312D   CNE2     1  0.354577689820  0.105847757841
CC312D    CNG     1  0.347450500075  0.138767581228
CC312D   CO2P     1  0.251910521541  0.164138698618
CC312D   CO3P     1  0.192264852362  0.144393471099
CC312D    COA     1  0.347450500075  0.138767581228
CC312D    CP1     1  0.338541512893  0.041840000000
CC312D    CP2     1  0.338541512893  0.041840000000
CC312D    CP3     1  0.338541512893  0.041840000000
CC312D    CPA     1  0.329632525712  0.125520000000
CC312D    CPB     1  0.329632525712  0.125520000000
CC312D   CPD1     1  0.338541512893  0.041840000000
CC312D   CPH1     1  0.329632525712  0.093557084179
CC312D   CPH2     1  0.329632525712  0.093557084179
CC312D    CPM     1  0.329632525712  0.125520000000
CC312D    CPT     1  0.334977918021  0.131646486622
CC312D   CR2P     1  0.263634748672  0.170828164985
CC312D   CR33     1  0.338541512893  0.041840000000
CC312D   CR3P     1  0.244382427373  0.145299904804
CC312D   CRL1     1  0.338541512893  0.041840000000
CC312D   CRL2     1  0.338541512893  0.041840000000
CC312D   CRN1     1  0.347450500075  0.138767581228
CC312D     CS     1  0.365268474438  0.138767581228
CC312D    CST     1  0.308518226092  0.100764063435
CC312D     CT     1  0.338541512893  0.041840000000
CC312D    CT1     1  0.338541512893  0.041840000000
CC312D   CT1X     1  0.338541512893  0.041840000000
CC312D    CT2     1  0.338541512893  0.041840000000
CC312D   CT2A     1  0.338541512893  0.041840000000
CC312D   CT2P     1  0.338541512893  0.041840000000
CC312D   CT2X     1  0.338541512893  0.041840000000
CC312D    CT3     1  0.338541512893  0.041840000000
CC312D   CT3X     1  0.338541512893  0.041840000000
CC312D   CTD1     1  0.338541512893  0.041840000000
CC312D   CTL1     1  0.338541512893  0.041840000000
CC312D   CTL2     1  0.338541512893  0.041840000000
CC312D   CTL3     1  0.338541512893  0.041840000000
CC312D   CTL5     1  0.338541512893  0.041840000000
CC312D   CTO1     1  0.338541512893  0.041840000000
CC312D   CTO2     1  0.338541512893  0.041840000000
CC312D     CU     1  0.285800308779  0.908997471504
CC312D   CU1P     1  0.246066225950  0.180057894334
CC312D   CU2P     1  0.233869822499  0.162315474555
CC312D     CY     1  0.346559601357  0.113045454929
CC312D    DUM     1  0.169270756447  0.000000000000
CC312D   DY3P     1  0.297952167295  0.171135318061
CC312D   ER3P     1  0.291083338178  0.169232326746
CC312D   EU2P     1  0.333231756533  0.203602227414
CC312D   EU3P     1  0.304954631219  0.174528477447
CC312D     F1     1  0.314487247504  0.153729976257
CC312D     F2     1  0.314487247504  0.135577095411
CC312D     F3     1  0.311814551349  0.130309939452
CC312D     FA     1  0.320723538531  0.144938011577
CC312D     FE     1  0.227179173126  0.000000000000
CC312D   FE2P     1  0.265496726993  0.167098295383
CC312D   FE3P     1  0.219722350855  0.148045032716
CC312D   FGA1     1  0.314487247504  0.153729976257
CC312D   FGA2     1  0.314487247504  0.135577095411
CC312D   FGA3     1  0.311814551349  0.130309939452
CC312D   FGP1     1  0.311814551349  0.130309939452
CC312D   FGR1     1  0.320723538531  0.144938011577
CC312D    FNA     1  0.320723538531  0.144938011577
CC312D   GA3P     1  0.189485248361  0.145299904804
CC312D   GD3P     1  0.303351013527  0.173673803114
CC312D      H     1  0.189271432669  0.089736802707
CC312D     HA     1  0.286869387241  0.062058748940
CC312D    HA1     1  0.288651184677  0.088756043175
CC312D    HA2     1  0.288651184677  0.077149148019
CC312D    HA3     1  0.288651184677  0.064818249282
CC312D    HAL     1  0.286869387241  0.062058748940
CC312D   HAL1     1  0.286869387241  0.062058748940
CC312D   HAL2     1  0.288651184677  0.070011711020
CC312D   HAL3     1  0.288651184677  0.064818249282
CC312D     HB     1  0.286869387241  0.062058748940
CC312D    HB1     1  0.286869387241  0.062058748940
CC312D    HB2     1  0.288651184677  0.070011711020
CC312D    HBL     1  0.286869387241  0.062058748940
CC312D     HC     1  0.189271432669  0.089736802707
CC312D   HCA1     1  0.288651184677  0.088756043175
CC312D  HCA1A     1  0.288651184677  0.088756043175
CC312D HCA1C2     1  0.288651184677  0.088756043175
CC312D   HCA2     1  0.288651184677  0.078275472531
CC312D HCA25A     1  0.285087589805  0.078275472531
CC312D  HCA2A     1  0.288651184677  0.078275472531
CC312D HCA2C2     1  0.285087589805  0.078275472531
CC312D   HCA3     1  0.288651184677  0.064818249282
CC312D  HCA3A     1  0.288651184677  0.064818249282
CC312D  HCA3M     1  0.288651184677  0.064818249282
CC312D    HCL     1  0.189271432669  0.089736802707
CC312D   HCP1     1  0.189271432669  0.089736802707
CC312D  HCP1M     1  0.189271432669  0.089736802707
CC312D   HCR1     1  0.240542653898  0.089736802707
CC312D     HE     1  0.301123766731  0.061020452073
CC312D    HE1     1  0.280633096214  0.073666921749
CC312D    HE2     1  0.281523994932  0.067464972838
CC312D   HEL1     1  0.280633096214  0.073666921749
CC312D   HEL2     1  0.281523994932  0.067464972838
CC312D    HF1     1  0.286869387241  0.070011711020
CC312D    HF2     1  0.285087589805  0.072469005789
CC312D   HG2P     1  0.274557166956  0.189623385225
CC312D   HGA1     1  0.288651184677  0.088756043175
CC312D   HGA2     1  0.288651184677  0.078275472531
CC312D   HGA3     1  0.288651184677  0.064818249282
CC312D   HGA4     1  0.280633096214  0.073666921749
CC312D   HGA5     1  0.281523994932  0.067464972838
CC312D   HGA6     1  0.286869387241  0.070011711020
CC312D   HGA7     1  0.285087589805  0.072469005789
CC312D HGAAM0     1  0.283305792369  0.070011711020
CC312D HGAAM1     1  0.283305792369  0.070011711020
CC312D HGAAM2     1  0.281523994932  0.083680000000
CC312D   HGP1     1  0.189271432669  0.089736802707
CC312D   HGP2     1  0.189271432669  0.089736802707
CC312D   HGP3     1  0.209361198763  0.132309697301
CC312D   HGP4     1  0.189271432669  0.089736802707
CC312D   HGP5     1  0.231633666716  0.089736802707
CC312D HGPAM1     1  0.247224394284  0.039692909190
CC312D HGPAM2     1  0.247224394284  0.041840000000
CC312D HGPAM3     1  0.246778944925  0.045833423612
CC312D  HGR51     1  0.290272620344  0.072469005789
CC312D  HGR52     1  0.249451641079  0.089736802707
CC312D  HGR53     1  0.231633666716  0.089736802707
CC312D  HGR61     1  0.290272620344  0.072469005789
CC312D  HGR62     1  0.267269615442  0.089736802707
CC312D  HGR63     1  0.249451641079  0.089736802707
CC312D  HGR71     1  0.290272620344  0.072469005789
CC312D     HL     1  0.231633666716  0.089736802707
CC312D  HLGA1     1  0.288651184677  0.088756043175
CC312D  HLGA2     1  0.288651184677  0.078275472531
CC312D  HLGA3     1  0.288651184677  0.064818249282
CC312D  HLGA4     1  0.280633096214  0.073666921749
CC312D  HLGP1     1  0.189271432669  0.089736802707
CC312D HLGR52     1  0.249451641079  0.089736802707
CC312D HLGR61     1  0.290272620344  0.072469005789
CC312D HLGR62     1  0.267269615442  0.089736802707
CC312D    HN1     1  0.189271432669  0.089736802707
CC312D    HN2     1  0.189271432669  0.089736802707
CC312D    HN3     1  0.267269615442  0.089736802707
CC312D   HN3B     1  0.249451641079  0.089736802707
CC312D    HN4     1  0.189271432669  0.089736802707
CC312D    HN5     1  0.189271432669  0.089736802707
CC312D    HN6     1  0.286869387241  0.062058748940
CC312D    HN7     1  0.286869387241  0.062058748940
CC312D    HN8     1  0.288651184677  0.070011711020
CC312D    HN9     1  0.288651184677  0.064818249282
CC312D   HNE1     1  0.280633096214  0.073666921749
CC312D   HNE2     1  0.281523994932  0.067464972838
CC312D    HNP     1  0.290272620344  0.072469005789
CC312D   HO3P     1  0.293168041178  0.170263611896
CC312D    HOL     1  0.189271432669  0.089736802707
CC312D     HP     1  0.290272620344  0.072469005789
CC312D   HPER     1  0.189271432669  0.089736802707
CC312D    HR1     1  0.249451641079  0.089736802707
CC312D    HR2     1  0.231633666716  0.089736802707
CC312D    HR3     1  0.300054688270  0.036952087465
CC312D   HRA3     1  0.288651184677  0.064818249282
CC312D   HRM1     1  0.247224394284  0.039692909190
CC312D   HRM2     1  0.247224394284  0.041840000000
CC312D   HRP2     1  0.189271432669  0.089736802707
CC312D     HS     1  0.209361198763  0.132309697301
CC312D   HSIA     1  0.286869387241  0.062058748940
CC312D   HSIO     1  0.189271432669  0.089736802707
CC312D     HT     1  0.189271432669  0.089736802707
CC312D     HX     1  0.189271432669  0.089736802707
CC312D   IGR1     1  0.368832069310  0.301712530731
CC312D   IN3P     1  0.246449312399  0.160580590010
CC312D   LA3P     1  0.327200372211  0.182184255566
CC312D    LIT     1  0.284864865125  0.020196198771
CC312D    LPH     1  0.169270756447  0.000000000000
CC312D   LU3P     1  0.289648991242  0.166731218816
CC312D     MG     1  0.274842254546  0.051243325419
CC312D   MN2P     1  0.276508235149  0.171747976291
CC312D   MN3P     1  0.203516903172  0.148045032716
CC312D      N     1  0.334087019303  0.004184000000
CC312D     NC     1  0.334087019303  0.324091246411
CC312D    NC2     1  0.334087019303  0.187114168357
CC312D  NC2D1     1  0.307360057758  0.187114168357
CC312D  NC311     1  0.347450500075  0.088756043175
CC312D   ND3P     1  0.313587439798  0.177117175768
CC312D     NE     1  0.305578260322  0.122698965603
CC312D  NG1T1     1  0.328741626994  0.177512086349
CC312D  NG2D1     1  0.334087019303  0.187114168357
CC312D  NG2O1     1  0.334087019303  0.187114168357
CC312D  NG2P1     1  0.334087019303  0.187114168357
CC312D NG2R43     1  0.334087019303  0.187114168357
CC312D NG2R50     1  0.334087019303  0.187114168357
CC312D NG2R51     1  0.334087019303  0.187114168357
CC312D NG2R52     1  0.334087019303  0.187114168357
CC312D NG2R53     1  0.334087019303  0.187114168357
CC312D NG2R57     1  0.334087019303  0.187114168357
CC312D NG2R60     1  0.337650614175  0.102486650838
CC312D NG2R61     1  0.334087019303  0.187114168357
CC312D NG2R62     1  0.352795892384  0.093557084179
CC312D NG2R67     1  0.334087019303  0.187114168357
CC312D NG2RC0     1  0.334087019303  0.187114168357
CC312D  NG2S0     1  0.334087019303  0.004184000000
CC312D  NG2S1     1  0.307360057758  0.187114168357
CC312D  NG2S2     1  0.334087019303  0.187114168357
CC312D  NG2S3     1  0.334087019303  0.187114168357
CC312D  NG301     1  0.347450500075  0.078275472531
CC312D  NG311     1  0.347450500075  0.088756043175
CC312D  NG321     1  0.346559601357  0.102486650838
CC312D  NG331     1  0.345668702638  0.110698234855
CC312D NG3C51     1  0.334087019303  0.187114168357
CC312D  NG3N1     1  0.351904993665  0.102486650838
CC312D  NG3P0     1  0.334087019303  0.187114168357
CC312D  NG3P1     1  0.334087019303  0.187114168357
CC312D  NG3P2     1  0.334087019303  0.187114168357
CC312D  NG3P3     1  0.334087019303  0.187114168357
CC312D    NH1     1  0.307360057758  0.187114168357
CC312D    NH2     1  0.334087019303  0.187114168357
CC312D    NH3     1  0.334087019303  0.187114168357
CC312D   NH3L     1  0.334087019303  0.187114168357
CC312D    NHL     1  0.307360057758  0.187114168357
CC312D     NI     1  0.282949432881  0.994525446633
CC312D   NI2P     1  0.238787583423  0.158440517242
CC312D    NN1     1  0.334087019303  0.187114168357
CC312D   NN1C     1  0.334087019303  0.187114168357
CC312D    NN2     1  0.334087019303  0.187114168357
CC312D   NN2B     1  0.334087019303  0.187114168357
CC312D   NN2C     1  0.334087019303  0.187114168357
CC312D   NN2G     1  0.334087019303  0.187114168357
CC312D   NN2U     1  0.334087019303  0.187114168357
CC312D    NN3     1  0.334087019303  0.187114168357
CC312D   NN3A     1  0.334087019303  0.187114168357
CC312D   NN3G     1  0.334087019303  0.187114168357
CC312D   NN3I     1  0.334087019303  0.187114168357
CC312D    NN4     1  0.334087019303  0.187114168357
CC312D    NN6     1  0.334087019303  0.187114168357
CC312D    NNG     1  0.334087019303  0.187114168357
CC312D     NP     1  0.334087019303  0.187114168357
CC312D    NPH     1  0.334087019303  0.187114168357
CC312D    NR1     1  0.334087019303  0.187114168357
CC312D    NR2     1  0.334087019303  0.187114168357
CC312D    NR3     1  0.334087019303  0.187114168357
CC312D   NRC4     1  0.334087019303  0.187114168357
CC312D   NRN1     1  0.347450500075  0.280671252536
CC312D   NRN2     1  0.346559601357  0.102486650838
CC312D    NS1     1  0.334087019303  0.187114168357
CC312D    NS2     1  0.334087019303  0.187114168357
CC312D    NTL     1  0.334087019303  0.187114168357
CC312D     NY     1  0.334087019303  0.187114168357
CC312D      O     1  0.293996576986  0.144938011577
CC312D    O2L     1  0.320723538531  0.144938011577
CC312D    OAL     1  0.326959829558  0.163176000000
CC312D     OB     1  0.293996576986  0.144938011577
CC312D    OBL     1  0.293996576986  0.144938011577
CC312D     OC     1  0.320723538531  0.144938011577
CC312D  OC2D1     1  0.293996576986  0.144938011577
CC312D  OC2D2     1  0.320723538531  0.144938011577
CC312D  OC2D3     1  0.293996576986  0.144938011577
CC312D  OC2D4     1  0.293996576986  0.144938011577
CC312D  OC2DP     1  0.320723538531  0.144938011577
CC312D  OC301     1  0.316269044940  0.132309697301
CC312D  OC302     1  0.316269044940  0.132309697301
CC312D  OC303     1  0.316269044940  0.132309697301
CC312D OC305A     1  0.316269044940  0.132309697301
CC312D  OC30A     1  0.316269044940  0.132309697301
CC312D  OC30P     1  0.326959829558  0.163176000000
CC312D  OC311     1  0.326514380198  0.183381431383
CC312D OC311M     1  0.326514380198  0.183381431383
CC312D  OC312     1  0.326959829558  0.163176000000
CC312D OC3C51     1  0.316269044940  0.132309697301
CC312D OC3C5M     1  0.316269044940  0.132309697301
CC312D OC3C61     1  0.316269044940  0.132309697301
CC312D    OCA     1  0.293996576986  0.144938011577
CC312D    OCL     1  0.320723538531  0.144938011577
CC312D  OG2D1     1  0.293996576986  0.144938011577
CC312D  OG2D2     1  0.320723538531  0.144938011577
CC312D  OG2D3     1  0.293996576986  0.144938011577
CC312D  OG2D4     1  0.320723538531  0.144938011577
CC312D  OG2D5     1  0.320010819556  0.169954883425
CC312D  OG2N1     1  0.320723538531  0.144938011577
CC312D  OG2P1     1  0.320723538531  0.144938011577
CC312D OG2R50     1  0.320723538531  0.144938011577
CC312D  OG2S1     1  0.318906105146  0.157831660601
CC312D  OG301     1  0.316269044940  0.132309697301
CC312D  OG302     1  0.316269044940  0.132309697301
CC312D  OG303     1  0.316269044940  0.132309697301
CC312D  OG304     1  0.316269044940  0.132309697301
CC312D  OG311     1  0.326514380198  0.183381431383
CC312D  OG312     1  0.325178032121  0.144938011577
CC312D OG3C31     1  0.316269044940  0.132309697301
CC312D OG3C51     1  0.316269044940  0.132309697301
CC312D OG3C61     1  0.316269044940  0.132309697301
CC312D OG3R60     1  0.316269044940  0.132309697301
CC312D    OH1     1  0.326959829558  0.163176000000
CC312D    OHL     1  0.326959829558  0.163176000000
CC312D   OLG1     1  0.293996576986  0.144938011577
CC312D   OLG2     1  0.320723538531  0.144938011577
CC312D   OLG3     1  0.320723538531  0.144938011577
CC312D   OLG4     1  0.316269044940  0.132309697301
CC312D   OLG5     1  0.316269044940  0.132309697301
CC312D   OLG6     1  0.326514380198  0.183381431383
CC312D   OLG7     1  0.316269044940  0.132309697301
CC312D   OLG8     1  0.316269044940  0.132309697301
CC312D     OM     1  0.320723538531  0.144938011577
CC312D    ON1     1  0.320723538531  0.144938011577
CC312D   ON1C     1  0.320723538531  0.144938011577
CC312D    ON2     1  0.326959829558  0.163176000000
CC312D   ON2B     1  0.326959829558  0.163176000000
CC312D   ON2M     1  0.316269044940  0.132309697301
CC312D    ON3     1  0.320723538531  0.144938011577
CC312D    ON4     1  0.326959829558  0.163176000000
CC312D    ON5     1  0.326959829558  0.163176000000
CC312D    ON6     1  0.326959829558  0.163176000000
CC312D   ON6B     1  0.326959829558  0.163176000000
CC312D   OPER     1  0.318427692534  0.188901923946
CC312D     OS     1  0.326959829558  0.163176000000
CC312D   OSIA     1  0.326959829558  0.163176000000
CC312D   OSIE     1  0.326959829558  0.163176000000
CC312D   OSIH     1  0.326959829558  0.163176000000
CC312D    OSL     1  0.316269044940  0.132309697301
CC312D   OSLP     1  0.316269044940  0.132309697301
CC312D    OST     1  0.320010819556  0.169954883425
CC312D     OT     1  0.326799467788  0.163176000000
CC312D     OX     1  0.320723538531  0.144938011577
CC312D      P     1  0.360813980847  0.320014464673
CC312D     P2     1  0.360813980847  0.320014464673
CC312D     P3     1  0.360813980847  0.320014464673
CC312D     P4     1  0.360813980847  0.320014464673
CC312D     PB     1  0.328073452955  0.716185437439
CC312D   PB2P     1  0.325890751096  0.204716924713
CC312D     PC     1  0.360813980847  0.320014464673
CC312D     PD     1  0.294842930769  1.037598257516
CC312D   PD2P     1  0.251865976605  0.174628752363
CC312D    PG0     1  0.360813980847  0.320014464673
CC312D    PG1     1  0.360813980847  0.320014464673
CC312D    PG2     1  0.360813980847  0.320014464673
CC312D     PL     1  0.360813980847  0.320014464673
CC312D   PM3P     1  0.316910492017  0.176275053255
CC312D    POT     1  0.326403017859  0.123410269913
CC312D   PR3P     1  0.317079762773  0.178642591472
CC312D     PT     1  0.296001099102  1.168527606863
CC312D   PT2P     1  0.240284293270  0.168973521997
CC312D   PU3P     1  0.318024115415  0.179522368790
CC312D   RA2P     1  0.355459679551  0.229891668540
CC312D   RH3P     1  0.210367914314  0.149983415617
CC312D    RUB     1  0.338541512893  0.162045623205
CC312D      S     1  0.347450500075  0.280671252536
CC312D     SC     1  0.356359487256  0.286840588481
CC312D   SC3P     1  0.266993436839  0.157109060719
CC312D  SEGD1     1  0.363041227642  0.330244580395
CC312D  SG2D1     1  0.351904993665  0.314496560236
CC312D  SG2P1     1  0.355798221064  0.332305491450
CC312D  SG2P2     1  0.352314807076  0.329421919951
CC312D SG2R50     1  0.347450500075  0.280671252536
CC312D  SG301     1  0.345223253279  0.257919081884
CC312D  SG302     1  0.365268474438  0.286840588481
CC312D  SG311     1  0.347450500075  0.280671252536
CC312D  SG3O1     1  0.356359487256  0.286840588481
CC312D  SG3O2     1  0.347450500075  0.247528778125
CC312D  SG3O3     1  0.347450500075  0.247528778125
CC312D     SI     1  0.365268474438  0.324091246411
CC312D   SIH3     1  0.365268474438  0.324091246411
CC312D     SL     1  0.356359487256  0.286840588481
CC312D     SM     1  0.345223253279  0.257919081884
CC312D   SM2P     1  0.334666103469  0.207012887251
CC312D   SM3P     1  0.308847858618  0.175378986746
CC312D   SN2P     1  0.316981763914  0.181365662197
CC312D    SOD     1  0.294954293108  0.090610410351
CC312D     SP     1  0.365268474438  0.280671252536
CC312D   SR2P     1  0.334612649546  0.200133451797
CC312D     SS     1  0.365268474438  0.286840588481
CC312D   TB3P     1  0.300678317372  0.172155203837
CC312D   TI1P     1  0.341276571958  0.266826378666
CC312D   TI3P     1  0.243117351193  0.149983415617
CC312D   TL3P     1  0.246716582015  0.168869889039
CC312D   TM3P     1  0.289417357575  0.168402751521
CC312D    U3P     1  0.320830446377  0.182184255566
CC312D    V2P     1  0.267599247968  0.167830039933
CC312D    V3P     1  0.223989755715  0.147096016316
CC312D    Y3P     1  0.295190381269  0.170263611896
CC312D   YB2P     1  0.312616360195  0.189623385225
CC312D   YB3P     1  0.284659958420  0.167569069413
CC312D     ZN     1  0.266378716724  0.209200000000
CC3151 CC3151     1  0.338541512893  0.041840000000
CC3151 CC3152     1  0.338541512893  0.041840000000
CC3151 CC3153     1  0.338541512893  0.041840000000
CC3151 CC3161     1  0.338541512893  0.041840000000
CC3151 CC3162     1  0.338541512893  0.041840000000
CC3151 CC3163     1  0.338541512893  0.041840000000
CC3151  CC31A     1  0.338541512893  0.041840000000
CC3151  CC321     1  0.338541512893  0.041840000000
CC3151 CC321C     1  0.338541512893  0.041840000000
CC3151 CC321D     1  0.338541512893  0.041840000000
CC3151  CC322     1  0.338541512893  0.041840000000
CC3151 CC322C     1  0.338541512893  0.041840000000
CC3151 CC3251     1  0.338541512893  0.041840000000
CC3151 CC325A     1  0.338541512893  0.041840000000
CC3151 CC325B     1  0.338541512893  0.041840000000
CC3151 CC3261     1  0.338541512893  0.041840000000
CC3151 CC3263     1  0.338541512893  0.041840000000
CC3151 CC326A     1  0.338541512893  0.041840000000
CC3151  CC32A     1  0.338541512893  0.041840000000
CC3151  CC331     1  0.338541512893  0.041840000000
CC3151  CC33A     1  0.338541512893  0.041840000000
CC3151    CCL     1  0.347450500075  0.110698234855
CC3151     CD     1  0.347450500075  0.110698234855
CC3151    CE1     1  0.355468588538  0.109105371453
CC3151    CE2     1  0.354577689820  0.105847757841
CC3151   CE3P     1  0.321748072056  0.179522368790
CC3151   CEL1     1  0.355468588538  0.109105371453
CC3151   CEL2     1  0.354577689820  0.105847757841
CC3151   CEL3     1  0.355468588538  0.109105371453
CC3151    CES     1  0.356359487256  0.182376331798
CC3151    CF1     1  0.338541512893  0.102486650838
CC3151    CF2     1  0.351904993665  0.085746484010
CC3151    CF3     1  0.374177461619  0.059170695450
CC3151  CG1N1     1  0.335868816739  0.177512086349
CC3151  CG1T1     1  0.333196120584  0.170981810495
CC3151  CG1T2     1  0.346782326036  0.134409982486
CC3151 CG251O     1  0.355468588538  0.109105371453
CC3151 CG252O     1  0.355468588538  0.109105371453
CC3151 CG25C1     1  0.355468588538  0.109105371453
CC3151 CG25C2     1  0.355468588538  0.109105371453
CC3151  CG2D1     1  0.355468588538  0.109105371453
CC3151 CG2D1O     1  0.355468588538  0.109105371453
CC3151  CG2D2     1  0.354577689820  0.105847757841
CC3151 CG2D2O     1  0.355468588538  0.109105371453
CC3151 CG2DC1     1  0.355468588538  0.109105371453
CC3151 CG2DC2     1  0.355468588538  0.109105371453
CC3151 CG2DC3     1  0.354577689820  0.105847757841
CC3151  CG2N1     1  0.347450500075  0.138767581228
CC3151  CG2N2     1  0.347450500075  0.138767581228
CC3151  CG2O1     1  0.347450500075  0.138767581228
CC3151  CG2O2     1  0.320723538531  0.130979917850
CC3151  CG2O3     1  0.347450500075  0.110698234855
CC3151  CG2O4     1  0.329632525712  0.102486650838
CC3151  CG2O5     1  0.347450500075  0.125520000000
CC3151  CG2O6     1  0.347450500075  0.110698234855
CC3151  CG2O7     1  0.308518226092  0.100764063435
CC3151 CG2R51     1  0.356359487256  0.093557084179
CC3151 CG2R52     1  0.365268474438  0.059170695450
CC3151 CG2R53     1  0.365268474438  0.059170695450
CC3151 CG2R57     1  0.356359487256  0.093557084179
CC3151 CG2R61     1  0.346773417049  0.110698234855
CC3151 CG2R62     1  0.338541512893  0.125520000000
CC3151 CG2R63     1  0.338541512893  0.132309697301
CC3151 CG2R64     1  0.356359487256  0.083680000000
CC3151 CG2R66     1  0.338541512893  0.110698234855
CC3151 CG2R67     1  0.346773417049  0.110698234855
CC3151 CG2R71     1  0.346987232741  0.108300154755
CC3151 CG2RC0     1  0.334977918021  0.131646486622
CC3151 CG2RC7     1  0.334977918021  0.131646486622
CC3151  CG301     1  0.338541512893  0.041840000000
CC3151  CG302     1  0.374177461619  0.059170695450
CC3151  CG311     1  0.338541512893  0.041840000000
CC3151  CG312     1  0.351904993665  0.085746484010
CC3151  CG314     1  0.338541512893  0.041840000000
CC3151  CG321     1  0.338541512893  0.041840000000
CC3151  CG322     1  0.338541512893  0.102486650838
CC3151  CG323     1  0.365268474438  0.138767581228
CC3151  CG324     1  0.338541512893  0.041840000000
CC3151  CG331     1  0.338541512893  0.041840000000
CC3151  CG334     1  0.338541512893  0.041840000000
CC3151 CG3AM0     1  0.344777803920  0.110698234855
CC3151 CG3AM1     1  0.345668702638  0.116852760686
CC3151 CG3AM2     1  0.346559601357  0.118341390899
CC3151 CG3C31     1  0.338541512893  0.041840000000
CC3151 CG3C41     1  0.338541512893  0.041840000000
CC3151 CG3C50     1  0.338541512893  0.041840000000
CC3151 CG3C51     1  0.338541512893  0.041840000000
CC3151 CG3C52     1  0.338541512893  0.041840000000
CC3151 CG3C53     1  0.338541512893  0.041840000000
CC3151 CG3C54     1  0.338541512893  0.041840000000
CC3151 CG3RC1     1  0.338541512893  0.041840000000
CC3151     CL     1  0.347450500075  0.110698234855
CC3151    CLA     1  0.371504765465  0.162045623205
CC3151   CLAL     1  0.339272049842  0.072469005789
CC3151  CLG01     1  0.355468588538  0.109105371453
CC3151  CLG02     1  0.355468588538  0.109105371453
CC3151  CLG03     1  0.320723538531  0.130979917850
CC3151  CLG04     1  0.347450500075  0.110698234855
CC3151  CLG05     1  0.329632525712  0.102486650838
CC3151  CLG06     1  0.346773417049  0.110698234855
CC3151 CLG06A     1  0.346773417049  0.110698234855
CC3151 CLG06B     1  0.346773417049  0.110698234855
CC3151  CLG07     1  0.338541512893  0.125520000000
CC3151  CLG08     1  0.338541512893  0.132309697301
CC3151  CLG09     1  0.346773417049  0.110698234855
CC3151  CLG10     1  0.334977918021  0.131646486622
CC3151  CLG11     1  0.338541512893  0.041840000000
CC3151  CLG12     1  0.338541512893  0.041840000000
CC3151  CLG13     1  0.338541512893  0.041840000000
CC3151  CLG14     1  0.338541512893  0.041840000000
CC3151  CLG15     1  0.338541512893  0.041840000000
CC3151  CLG16     1  0.338541512893  0.041840000000
CC3151  CLGA1     1  0.339432411611  0.245040988571
CC3151  CLGA3     1  0.339432411611  0.232955260941
CC3151  CLGR1     1  0.334977918021  0.200657590935
CC3151     CM     1  0.356359487256  0.138767581228
CC3151     CN     1  0.325178032121  0.187114168357
CC3151    CN1     1  0.338541512893  0.132309697301
CC3151   CN1A     1  0.347450500075  0.110698234855
CC3151   CN1T     1  0.338541512893  0.132309697301
CC3151    CN2     1  0.338541512893  0.132309697301
CC3151    CN3     1  0.338541512893  0.125520000000
CC3151   CN3A     1  0.329632525712  0.177512086349
CC3151   CN3B     1  0.329632525712  0.177512086349
CC3151   CN3C     1  0.329632525712  0.177512086349
CC3151   CN3D     1  0.338541512893  0.125520000000
CC3151   CN3T     1  0.338541512893  0.125520000000
CC3151    CN4     1  0.338541512893  0.114583559030
CC3151    CN5     1  0.338541512893  0.114583559030
CC3151   CN5G     1  0.338541512893  0.114583559030
CC3151    CN6     1  0.338541512893  0.041840000000
CC3151    CN7     1  0.338541512893  0.041840000000
CC3151   CN7B     1  0.338541512893  0.041840000000
CC3151   CN7E     1  0.338541512893  0.041840000000
CC3151    CN8     1  0.338541512893  0.041840000000
CC3151   CN8B     1  0.338541512893  0.041840000000
CC3151    CN9     1  0.338541512893  0.041840000000
CC3151    CNA     1  0.346773417049  0.110698234855
CC3151   CNA2     1  0.338541512893  0.110698234855
CC3151   CNE1     1  0.355468588538  0.109105371453
CC3151   CNE2     1  0.354577689820  0.105847757841
CC3151    CNG     1  0.347450500075  0.138767581228
CC3151   CO2P     1  0.251910521541  0.164138698618
CC3151   CO3P     1  0.192264852362  0.144393471099
CC3151    COA     1  0.347450500075  0.138767581228
CC3151    CP1     1  0.338541512893  0.041840000000
CC3151    CP2     1  0.338541512893  0.041840000000
CC3151    CP3     1  0.338541512893  0.041840000000
CC3151    CPA     1  0.329632525712  0.125520000000
CC3151    CPB     1  0.329632525712  0.125520000000
CC3151   CPD1     1  0.338541512893  0.041840000000
CC3151   CPH1     1  0.329632525712  0.093557084179
CC3151   CPH2     1  0.329632525712  0.093557084179
CC3151    CPM     1  0.329632525712  0.125520000000
CC3151    CPT     1  0.334977918021  0.131646486622
CC3151   CR2P     1  0.263634748672  0.170828164985
CC3151   CR33     1  0.338541512893  0.041840000000
CC3151   CR3P     1  0.244382427373  0.145299904804
CC3151   CRL1     1  0.338541512893  0.041840000000
CC3151   CRL2     1  0.338541512893  0.041840000000
CC3151   CRN1     1  0.347450500075  0.138767581228
CC3151     CS     1  0.365268474438  0.138767581228
CC3151    CST     1  0.308518226092  0.100764063435
CC3151     CT     1  0.338541512893  0.041840000000
CC3151    CT1     1  0.338541512893  0.041840000000
CC3151   CT1X     1  0.338541512893  0.041840000000
CC3151    CT2     1  0.338541512893  0.041840000000
CC3151   CT2A     1  0.338541512893  0.041840000000
CC3151   CT2P     1  0.338541512893  0.041840000000
CC3151   CT2X     1  0.338541512893  0.041840000000
CC3151    CT3     1  0.338541512893  0.041840000000
CC3151   CT3X     1  0.338541512893  0.041840000000
CC3151   CTD1     1  0.338541512893  0.041840000000
CC3151   CTL1     1  0.338541512893  0.041840000000
CC3151   CTL2     1  0.338541512893  0.041840000000
CC3151   CTL3     1  0.338541512893  0.041840000000
CC3151   CTL5     1  0.338541512893  0.041840000000
CC3151   CTO1     1  0.338541512893  0.041840000000
CC3151   CTO2     1  0.338541512893  0.041840000000
CC3151     CU     1  0.285800308779  0.908997471504
CC3151   CU1P     1  0.246066225950  0.180057894334
CC3151   CU2P     1  0.233869822499  0.162315474555
CC3151     CY     1  0.346559601357  0.113045454929
CC3151    DUM     1  0.169270756447  0.000000000000
CC3151   DY3P     1  0.297952167295  0.171135318061
CC3151   ER3P     1  0.291083338178  0.169232326746
CC3151   EU2P     1  0.333231756533  0.203602227414
CC3151   EU3P     1  0.304954631219  0.174528477447
CC3151     F1     1  0.314487247504  0.153729976257
CC3151     F2     1  0.314487247504  0.135577095411
CC3151     F3     1  0.311814551349  0.130309939452
CC3151     FA     1  0.320723538531  0.144938011577
CC3151     FE     1  0.227179173126  0.000000000000
CC3151   FE2P     1  0.265496726993  0.167098295383
CC3151   FE3P     1  0.219722350855  0.148045032716
CC3151   FGA1     1  0.314487247504  0.153729976257
CC3151   FGA2     1  0.314487247504  0.135577095411
CC3151   FGA3     1  0.311814551349  0.130309939452
CC3151   FGP1     1  0.311814551349  0.130309939452
CC3151   FGR1     1  0.320723538531  0.144938011577
CC3151    FNA     1  0.320723538531  0.144938011577
CC3151   GA3P     1  0.189485248361  0.145299904804
CC3151   GD3P     1  0.303351013527  0.173673803114
CC3151      H     1  0.189271432669  0.089736802707
CC3151     HA     1  0.286869387241  0.062058748940
CC3151    HA1     1  0.288651184677  0.088756043175
CC3151    HA2     1  0.288651184677  0.077149148019
CC3151    HA3     1  0.288651184677  0.064818249282
CC3151    HAL     1  0.286869387241  0.062058748940
CC3151   HAL1     1  0.286869387241  0.062058748940
CC3151   HAL2     1  0.288651184677  0.070011711020
CC3151   HAL3     1  0.288651184677  0.064818249282
CC3151     HB     1  0.286869387241  0.062058748940
CC3151    HB1     1  0.286869387241  0.062058748940
CC3151    HB2     1  0.288651184677  0.070011711020
CC3151    HBL     1  0.286869387241  0.062058748940
CC3151     HC     1  0.189271432669  0.089736802707
CC3151   HCA1     1  0.288651184677  0.088756043175
CC3151  HCA1A     1  0.288651184677  0.088756043175
CC3151 HCA1C2     1  0.288651184677  0.088756043175
CC3151   HCA2     1  0.288651184677  0.078275472531
CC3151 HCA25A     1  0.285087589805  0.078275472531
CC3151  HCA2A     1  0.288651184677  0.078275472531
CC3151 HCA2C2     1  0.285087589805  0.078275472531
CC3151   HCA3     1  0.288651184677  0.064818249282
CC3151  HCA3A     1  0.288651184677  0.064818249282
CC3151  HCA3M     1  0.288651184677  0.064818249282
CC3151    HCL     1  0.189271432669  0.089736802707
CC3151   HCP1     1  0.189271432669  0.089736802707
CC3151  HCP1M     1  0.189271432669  0.089736802707
CC3151   HCR1     1  0.240542653898  0.089736802707
CC3151     HE     1  0.301123766731  0.061020452073
CC3151    HE1     1  0.280633096214  0.073666921749
CC3151    HE2     1  0.281523994932  0.067464972838
CC3151   HEL1     1  0.280633096214  0.073666921749
CC3151   HEL2     1  0.281523994932  0.067464972838
CC3151    HF1     1  0.286869387241  0.070011711020
CC3151    HF2     1  0.285087589805  0.072469005789
CC3151   HG2P     1  0.274557166956  0.189623385225
CC3151   HGA1     1  0.288651184677  0.088756043175
CC3151   HGA2     1  0.288651184677  0.078275472531
CC3151   HGA3     1  0.288651184677  0.064818249282
CC3151   HGA4     1  0.280633096214  0.073666921749
CC3151   HGA5     1  0.281523994932  0.067464972838
CC3151   HGA6     1  0.286869387241  0.070011711020
CC3151   HGA7     1  0.285087589805  0.072469005789
CC3151 HGAAM0     1  0.283305792369  0.070011711020
CC3151 HGAAM1     1  0.283305792369  0.070011711020
CC3151 HGAAM2     1  0.281523994932  0.083680000000
CC3151   HGP1     1  0.189271432669  0.089736802707
CC3151   HGP2     1  0.189271432669  0.089736802707
CC3151   HGP3     1  0.209361198763  0.132309697301
CC3151   HGP4     1  0.189271432669  0.089736802707
CC3151   HGP5     1  0.231633666716  0.089736802707
CC3151 HGPAM1     1  0.247224394284  0.039692909190
CC3151 HGPAM2     1  0.247224394284  0.041840000000
CC3151 HGPAM3     1  0.246778944925  0.045833423612
CC3151  HGR51     1  0.290272620344  0.072469005789
CC3151  HGR52     1  0.249451641079  0.089736802707
CC3151  HGR53     1  0.231633666716  0.089736802707
CC3151  HGR61     1  0.290272620344  0.072469005789
CC3151  HGR62     1  0.267269615442  0.089736802707
CC3151  HGR63     1  0.249451641079  0.089736802707
CC3151  HGR71     1  0.290272620344  0.072469005789
CC3151     HL     1  0.231633666716  0.089736802707
CC3151  HLGA1     1  0.288651184677  0.088756043175
CC3151  HLGA2     1  0.288651184677  0.078275472531
CC3151  HLGA3     1  0.288651184677  0.064818249282
CC3151  HLGA4     1  0.280633096214  0.073666921749
CC3151  HLGP1     1  0.189271432669  0.089736802707
CC3151 HLGR52     1  0.249451641079  0.089736802707
CC3151 HLGR61     1  0.290272620344  0.072469005789
CC3151 HLGR62     1  0.267269615442  0.089736802707
CC3151    HN1     1  0.189271432669  0.089736802707
CC3151    HN2     1  0.189271432669  0.089736802707
CC3151    HN3     1  0.267269615442  0.089736802707
CC3151   HN3B     1  0.249451641079  0.089736802707
CC3151    HN4     1  0.189271432669  0.089736802707
CC3151    HN5     1  0.189271432669  0.089736802707
CC3151    HN6     1  0.286869387241  0.062058748940
CC3151    HN7     1  0.286869387241  0.062058748940
CC3151    HN8     1  0.288651184677  0.070011711020
CC3151    HN9     1  0.288651184677  0.064818249282
CC3151   HNE1     1  0.280633096214  0.073666921749
CC3151   HNE2     1  0.281523994932  0.067464972838
CC3151    HNP     1  0.290272620344  0.072469005789
CC3151   HO3P     1  0.293168041178  0.170263611896
CC3151    HOL     1  0.189271432669  0.089736802707
CC3151     HP     1  0.290272620344  0.072469005789
CC3151   HPER     1  0.189271432669  0.089736802707
CC3151    HR1     1  0.249451641079  0.089736802707
CC3151    HR2     1  0.231633666716  0.089736802707
CC3151    HR3     1  0.300054688270  0.036952087465
CC3151   HRA3     1  0.288651184677  0.064818249282
CC3151   HRM1     1  0.247224394284  0.039692909190
CC3151   HRM2     1  0.247224394284  0.041840000000
CC3151   HRP2     1  0.189271432669  0.089736802707
CC3151     HS     1  0.209361198763  0.132309697301
CC3151   HSIA     1  0.286869387241  0.062058748940
CC3151   HSIO     1  0.189271432669  0.089736802707
CC3151     HT     1  0.189271432669  0.089736802707
CC3151     HX     1  0.189271432669  0.089736802707
CC3151   IGR1     1  0.368832069310  0.301712530731
CC3151   IN3P     1  0.246449312399  0.160580590010
CC3151   LA3P     1  0.327200372211  0.182184255566
CC3151    LIT     1  0.284864865125  0.020196198771
CC3151    LPH     1  0.169270756447  0.000000000000
CC3151   LU3P     1  0.289648991242  0.166731218816
CC3151     MG     1  0.274842254546  0.051243325419
CC3151   MN2P     1  0.276508235149  0.171747976291
CC3151   MN3P     1  0.203516903172  0.148045032716
CC3151      N     1  0.334087019303  0.004184000000
CC3151     NC     1  0.334087019303  0.324091246411
CC3151    NC2     1  0.334087019303  0.187114168357
CC3151  NC2D1     1  0.307360057758  0.187114168357
CC3151  NC311     1  0.347450500075  0.088756043175
CC3151   ND3P     1  0.313587439798  0.177117175768
CC3151     NE     1  0.305578260322  0.122698965603
CC3151  NG1T1     1  0.328741626994  0.177512086349
CC3151  NG2D1     1  0.334087019303  0.187114168357
CC3151  NG2O1     1  0.334087019303  0.187114168357
CC3151  NG2P1     1  0.334087019303  0.187114168357
CC3151 NG2R43     1  0.334087019303  0.187114168357
CC3151 NG2R50     1  0.334087019303  0.187114168357
CC3151 NG2R51     1  0.334087019303  0.187114168357
CC3151 NG2R52     1  0.334087019303  0.187114168357
CC3151 NG2R53     1  0.334087019303  0.187114168357
CC3151 NG2R57     1  0.334087019303  0.187114168357
CC3151 NG2R60     1  0.337650614175  0.102486650838
CC3151 NG2R61     1  0.334087019303  0.187114168357
CC3151 NG2R62     1  0.352795892384  0.093557084179
CC3151 NG2R67     1  0.334087019303  0.187114168357
CC3151 NG2RC0     1  0.334087019303  0.187114168357
CC3151  NG2S0     1  0.334087019303  0.004184000000
CC3151  NG2S1     1  0.307360057758  0.187114168357
CC3151  NG2S2     1  0.334087019303  0.187114168357
CC3151  NG2S3     1  0.334087019303  0.187114168357
CC3151  NG301     1  0.347450500075  0.078275472531
CC3151  NG311     1  0.347450500075  0.088756043175
CC3151  NG321     1  0.346559601357  0.102486650838
CC3151  NG331     1  0.345668702638  0.110698234855
CC3151 NG3C51     1  0.334087019303  0.187114168357
CC3151  NG3N1     1  0.351904993665  0.102486650838
CC3151  NG3P0     1  0.334087019303  0.187114168357
CC3151  NG3P1     1  0.334087019303  0.187114168357
CC3151  NG3P2     1  0.334087019303  0.187114168357
CC3151  NG3P3     1  0.334087019303  0.187114168357
CC3151    NH1     1  0.307360057758  0.187114168357
CC3151    NH2     1  0.334087019303  0.187114168357
CC3151    NH3     1  0.334087019303  0.187114168357
CC3151   NH3L     1  0.334087019303  0.187114168357
CC3151    NHL     1  0.307360057758  0.187114168357
CC3151     NI     1  0.282949432881  0.994525446633
CC3151   NI2P     1  0.238787583423  0.158440517242
CC3151    NN1     1  0.334087019303  0.187114168357
CC3151   NN1C     1  0.334087019303  0.187114168357
CC3151    NN2     1  0.334087019303  0.187114168357
CC3151   NN2B     1  0.334087019303  0.187114168357
CC3151   NN2C     1  0.334087019303  0.187114168357
CC3151   NN2G     1  0.334087019303  0.187114168357
CC3151   NN2U     1  0.334087019303  0.187114168357
CC3151    NN3     1  0.334087019303  0.187114168357
CC3151   NN3A     1  0.334087019303  0.187114168357
CC3151   NN3G     1  0.334087019303  0.187114168357
CC3151   NN3I     1  0.334087019303  0.187114168357
CC3151    NN4     1  0.334087019303  0.187114168357
CC3151    NN6     1  0.334087019303  0.187114168357
CC3151    NNG     1  0.334087019303  0.187114168357
CC3151     NP     1  0.334087019303  0.187114168357
CC3151    NPH     1  0.334087019303  0.187114168357
CC3151    NR1     1  0.334087019303  0.187114168357
CC3151    NR2     1  0.334087019303  0.187114168357
CC3151    NR3     1  0.334087019303  0.187114168357
CC3151   NRC4     1  0.334087019303  0.187114168357
CC3151   NRN1     1  0.347450500075  0.280671252536
CC3151   NRN2     1  0.346559601357  0.102486650838
CC3151    NS1     1  0.334087019303  0.187114168357
CC3151    NS2     1  0.334087019303  0.187114168357
CC3151    NTL     1  0.334087019303  0.187114168357
CC3151     NY     1  0.334087019303  0.187114168357
CC3151      O     1  0.293996576986  0.144938011577
CC3151    O2L     1  0.320723538531  0.144938011577
CC3151    OAL     1  0.326959829558  0.163176000000
CC3151     OB     1  0.293996576986  0.144938011577
CC3151    OBL     1  0.293996576986  0.144938011577
CC3151     OC     1  0.320723538531  0.144938011577
CC3151  OC2D1     1  0.293996576986  0.144938011577
CC3151  OC2D2     1  0.320723538531  0.144938011577
CC3151  OC2D3     1  0.293996576986  0.144938011577
CC3151  OC2D4     1  0.293996576986  0.144938011577
CC3151  OC2DP     1  0.320723538531  0.144938011577
CC3151  OC301     1  0.316269044940  0.132309697301
CC3151  OC302     1  0.316269044940  0.132309697301
CC3151  OC303     1  0.316269044940  0.132309697301
CC3151 OC305A     1  0.316269044940  0.132309697301
CC3151  OC30A     1  0.316269044940  0.132309697301
CC3151  OC30P     1  0.326959829558  0.163176000000
CC3151  OC311     1  0.326514380198  0.183381431383
CC3151 OC311M     1  0.326514380198  0.183381431383
CC3151  OC312     1  0.326959829558  0.163176000000
CC3151 OC3C51     1  0.316269044940  0.132309697301
CC3151 OC3C5M     1  0.316269044940  0.132309697301
CC3151 OC3C61     1  0.316269044940  0.132309697301
CC3151    OCA     1  0.293996576986  0.144938011577
CC3151    OCL     1  0.320723538531  0.144938011577
CC3151  OG2D1     1  0.293996576986  0.144938011577
CC3151  OG2D2     1  0.320723538531  0.144938011577
CC3151  OG2D3     1  0.293996576986  0.144938011577
CC3151  OG2D4     1  0.320723538531  0.144938011577
CC3151  OG2D5     1  0.320010819556  0.169954883425
CC3151  OG2N1     1  0.320723538531  0.144938011577
CC3151  OG2P1     1  0.320723538531  0.144938011577
CC3151 OG2R50     1  0.320723538531  0.144938011577
CC3151  OG2S1     1  0.318906105146  0.157831660601
CC3151  OG301     1  0.316269044940  0.132309697301
CC3151  OG302     1  0.316269044940  0.132309697301
CC3151  OG303     1  0.316269044940  0.132309697301
CC3151  OG304     1  0.316269044940  0.132309697301
CC3151  OG311     1  0.326514380198  0.183381431383
CC3151  OG312     1  0.325178032121  0.144938011577
CC3151 OG3C31     1  0.316269044940  0.132309697301
CC3151 OG3C51     1  0.316269044940  0.132309697301
CC3151 OG3C61     1  0.316269044940  0.132309697301
CC3151 OG3R60     1  0.316269044940  0.132309697301
CC3151    OH1     1  0.326959829558  0.163176000000
CC3151    OHL     1  0.326959829558  0.163176000000
CC3151   OLG1     1  0.293996576986  0.144938011577
CC3151   OLG2     1  0.320723538531  0.144938011577
CC3151   OLG3     1  0.320723538531  0.144938011577
CC3151   OLG4     1  0.316269044940  0.132309697301
CC3151   OLG5     1  0.316269044940  0.132309697301
CC3151   OLG6     1  0.326514380198  0.183381431383
CC3151   OLG7     1  0.316269044940  0.132309697301
CC3151   OLG8     1  0.316269044940  0.132309697301
CC3151     OM     1  0.320723538531  0.144938011577
CC3151    ON1     1  0.320723538531  0.144938011577
CC3151   ON1C     1  0.320723538531  0.144938011577
CC3151    ON2     1  0.326959829558  0.163176000000
CC3151   ON2B     1  0.326959829558  0.163176000000
CC3151   ON2M     1  0.316269044940  0.132309697301
CC3151    ON3     1  0.320723538531  0.144938011577
CC3151    ON4     1  0.326959829558  0.163176000000
CC3151    ON5     1  0.326959829558  0.163176000000
CC3151    ON6     1  0.326959829558  0.163176000000
CC3151   ON6B     1  0.326959829558  0.163176000000
CC3151   OPER     1  0.318427692534  0.188901923946
CC3151     OS     1  0.326959829558  0.163176000000
CC3151   OSIA     1  0.326959829558  0.163176000000
CC3151   OSIE     1  0.326959829558  0.163176000000
CC3151   OSIH     1  0.326959829558  0.163176000000
CC3151    OSL     1  0.316269044940  0.132309697301
CC3151   OSLP     1  0.316269044940  0.132309697301
CC3151    OST     1  0.320010819556  0.169954883425
CC3151     OT     1  0.326799467788  0.163176000000
CC3151     OX     1  0.320723538531  0.144938011577
CC3151      P     1  0.360813980847  0.320014464673
CC3151     P2     1  0.360813980847  0.320014464673
CC3151     P3     1  0.360813980847  0.320014464673
CC3151     P4     1  0.360813980847  0.320014464673
CC3151     PB     1  0.328073452955  0.716185437439
CC3151   PB2P     1  0.325890751096  0.204716924713
CC3151     PC     1  0.360813980847  0.320014464673
CC3151     PD     1  0.294842930769  1.037598257516
CC3151   PD2P     1  0.251865976605  0.174628752363
CC3151    PG0     1  0.360813980847  0.320014464673
CC3151    PG1     1  0.360813980847  0.320014464673
CC3151    PG2     1  0.360813980847  0.320014464673
CC3151     PL     1  0.360813980847  0.320014464673
CC3151   PM3P     1  0.316910492017  0.176275053255
CC3151    POT     1  0.326403017859  0.123410269913
CC3151   PR3P     1  0.317079762773  0.178642591472
CC3151     PT     1  0.296001099102  1.168527606863
CC3151   PT2P     1  0.240284293270  0.168973521997
CC3151   PU3P     1  0.318024115415  0.179522368790
CC3151   RA2P     1  0.355459679551  0.229891668540
CC3151   RH3P     1  0.210367914314  0.149983415617
CC3151    RUB     1  0.338541512893  0.162045623205
CC3151      S     1  0.347450500075  0.280671252536
CC3151     SC     1  0.356359487256  0.286840588481
CC3151   SC3P     1  0.266993436839  0.157109060719
CC3151  SEGD1     1  0.363041227642  0.330244580395
CC3151  SG2D1     1  0.351904993665  0.314496560236
CC3151  SG2P1     1  0.355798221064  0.332305491450
CC3151  SG2P2     1  0.352314807076  0.329421919951
CC3151 SG2R50     1  0.347450500075  0.280671252536
CC3151  SG301     1  0.345223253279  0.257919081884
CC3151  SG302     1  0.365268474438  0.286840588481
CC3151  SG311     1  0.347450500075  0.280671252536
CC3151  SG3O1     1  0.356359487256  0.286840588481
CC3151  SG3O2     1  0.347450500075  0.247528778125
CC3151  SG3O3     1  0.347450500075  0.247528778125
CC3151     SI     1  0.365268474438  0.324091246411
CC3151   SIH3     1  0.365268474438  0.324091246411
CC3151     SL     1  0.356359487256  0.286840588481
CC3151     SM     1  0.345223253279  0.257919081884
CC3151   SM2P     1  0.334666103469  0.207012887251
CC3151   SM3P     1  0.308847858618  0.175378986746
CC3151   SN2P     1  0.316981763914  0.181365662197
CC3151    SOD     1  0.294954293108  0.090610410351
CC3151     SP     1  0.365268474438  0.280671252536
CC3151   SR2P     1  0.334612649546  0.200133451797
CC3151     SS     1  0.365268474438  0.286840588481
CC3151   TB3P     1  0.300678317372  0.172155203837
CC3151   TI1P     1  0.341276571958  0.266826378666
CC3151   TI3P     1  0.243117351193  0.149983415617
CC3151   TL3P     1  0.246716582015  0.168869889039
CC3151   TM3P     1  0.289417357575  0.168402751521
CC3151    U3P     1  0.320830446377  0.182184255566
CC3151    V2P     1  0.267599247968  0.167830039933
CC3151    V3P     1  0.223989755715  0.147096016316
CC3151    Y3P     1  0.295190381269  0.170263611896
CC3151   YB2P     1  0.312616360195  0.189623385225
CC3151   YB3P     1  0.284659958420  0.167569069413
CC3151     ZN     1  0.266378716724  0.209200000000
CC3152 CC3152     1  0.338541512893  0.041840000000
CC3152 CC3153     1  0.338541512893  0.041840000000
CC3152 CC3161     1  0.338541512893  0.041840000000
CC3152 CC3162     1  0.338541512893  0.041840000000
CC3152 CC3163     1  0.338541512893  0.041840000000
CC3152  CC31A     1  0.338541512893  0.041840000000
CC3152  CC321     1  0.338541512893  0.041840000000
CC3152 CC321C     1  0.338541512893  0.041840000000
CC3152 CC321D     1  0.338541512893  0.041840000000
CC3152  CC322     1  0.338541512893  0.041840000000
CC3152 CC322C     1  0.338541512893  0.041840000000
CC3152 CC3251     1  0.338541512893  0.041840000000
CC3152 CC325A     1  0.338541512893  0.041840000000
CC3152 CC325B     1  0.338541512893  0.041840000000
CC3152 CC3261     1  0.338541512893  0.041840000000
CC3152 CC3263     1  0.338541512893  0.041840000000
CC3152 CC326A     1  0.338541512893  0.041840000000
CC3152  CC32A     1  0.338541512893  0.041840000000
CC3152  CC331     1  0.338541512893  0.041840000000
CC3152  CC33A     1  0.338541512893  0.041840000000
CC3152    CCL     1  0.347450500075  0.110698234855
CC3152     CD     1  0.347450500075  0.110698234855
CC3152    CE1     1  0.355468588538  0.109105371453
CC3152    CE2     1  0.354577689820  0.105847757841
CC3152   CE3P     1  0.321748072056  0.179522368790
CC3152   CEL1     1  0.355468588538  0.109105371453
CC3152   CEL2     1  0.354577689820  0.105847757841
CC3152   CEL3     1  0.355468588538  0.109105371453
CC3152    CES     1  0.356359487256  0.182376331798
CC3152    CF1     1  0.338541512893  0.102486650838
CC3152    CF2     1  0.351904993665  0.085746484010
CC3152    CF3     1  0.374177461619  0.059170695450
CC3152  CG1N1     1  0.335868816739  0.177512086349
CC3152  CG1T1     1  0.333196120584  0.170981810495
CC3152  CG1T2     1  0.346782326036  0.134409982486
CC3152 CG251O     1  0.355468588538  0.109105371453
CC3152 CG252O     1  0.355468588538  0.109105371453
CC3152 CG25C1     1  0.355468588538  0.109105371453
CC3152 CG25C2     1  0.355468588538  0.109105371453
CC3152  CG2D1     1  0.355468588538  0.109105371453
CC3152 CG2D1O     1  0.355468588538  0.109105371453
CC3152  CG2D2     1  0.354577689820  0.105847757841
CC3152 CG2D2O     1  0.355468588538  0.109105371453
CC3152 CG2DC1     1  0.355468588538  0.109105371453
CC3152 CG2DC2     1  0.355468588538  0.109105371453
CC3152 CG2DC3     1  0.354577689820  0.105847757841
CC3152  CG2N1     1  0.347450500075  0.138767581228
CC3152  CG2N2     1  0.347450500075  0.138767581228
CC3152  CG2O1     1  0.347450500075  0.138767581228
CC3152  CG2O2     1  0.320723538531  0.130979917850
CC3152  CG2O3     1  0.347450500075  0.110698234855
CC3152  CG2O4     1  0.329632525712  0.102486650838
CC3152  CG2O5     1  0.347450500075  0.125520000000
CC3152  CG2O6     1  0.347450500075  0.110698234855
CC3152  CG2O7     1  0.308518226092  0.100764063435
CC3152 CG2R51     1  0.356359487256  0.093557084179
CC3152 CG2R52     1  0.365268474438  0.059170695450
CC3152 CG2R53     1  0.365268474438  0.059170695450
CC3152 CG2R57     1  0.356359487256  0.093557084179
CC3152 CG2R61     1  0.346773417049  0.110698234855
CC3152 CG2R62     1  0.338541512893  0.125520000000
CC3152 CG2R63     1  0.338541512893  0.132309697301
CC3152 CG2R64     1  0.356359487256  0.083680000000
CC3152 CG2R66     1  0.338541512893  0.110698234855
CC3152 CG2R67     1  0.346773417049  0.110698234855
CC3152 CG2R71     1  0.346987232741  0.108300154755
CC3152 CG2RC0     1  0.334977918021  0.131646486622
CC3152 CG2RC7     1  0.334977918021  0.131646486622
CC3152  CG301     1  0.338541512893  0.041840000000
CC3152  CG302     1  0.374177461619  0.059170695450
CC3152  CG311     1  0.338541512893  0.041840000000
CC3152  CG312     1  0.351904993665  0.085746484010
CC3152  CG314     1  0.338541512893  0.041840000000
CC3152  CG321     1  0.338541512893  0.041840000000
CC3152  CG322     1  0.338541512893  0.102486650838
CC3152  CG323     1  0.365268474438  0.138767581228
CC3152  CG324     1  0.338541512893  0.041840000000
CC3152  CG331     1  0.338541512893  0.041840000000
CC3152  CG334     1  0.338541512893  0.041840000000
CC3152 CG3AM0     1  0.344777803920  0.110698234855
CC3152 CG3AM1     1  0.345668702638  0.116852760686
CC3152 CG3AM2     1  0.346559601357  0.118341390899
CC3152 CG3C31     1  0.338541512893  0.041840000000
CC3152 CG3C41     1  0.338541512893  0.041840000000
CC3152 CG3C50     1  0.338541512893  0.041840000000
CC3152 CG3C51     1  0.338541512893  0.041840000000
CC3152 CG3C52     1  0.338541512893  0.041840000000
CC3152 CG3C53     1  0.338541512893  0.041840000000
CC3152 CG3C54     1  0.338541512893  0.041840000000
CC3152 CG3RC1     1  0.338541512893  0.041840000000
CC3152     CL     1  0.347450500075  0.110698234855
CC3152    CLA     1  0.371504765465  0.162045623205
CC3152   CLAL     1  0.339272049842  0.072469005789
CC3152  CLG01     1  0.355468588538  0.109105371453
CC3152  CLG02     1  0.355468588538  0.109105371453
CC3152  CLG03     1  0.320723538531  0.130979917850
CC3152  CLG04     1  0.347450500075  0.110698234855
CC3152  CLG05     1  0.329632525712  0.102486650838
CC3152  CLG06     1  0.346773417049  0.110698234855
CC3152 CLG06A     1  0.346773417049  0.110698234855
CC3152 CLG06B     1  0.346773417049  0.110698234855
CC3152  CLG07     1  0.338541512893  0.125520000000
CC3152  CLG08     1  0.338541512893  0.132309697301
CC3152  CLG09     1  0.346773417049  0.110698234855
CC3152  CLG10     1  0.334977918021  0.131646486622
CC3152  CLG11     1  0.338541512893  0.041840000000
CC3152  CLG12     1  0.338541512893  0.041840000000
CC3152  CLG13     1  0.338541512893  0.041840000000
CC3152  CLG14     1  0.338541512893  0.041840000000
CC3152  CLG15     1  0.338541512893  0.041840000000
CC3152  CLG16     1  0.338541512893  0.041840000000
CC3152  CLGA1     1  0.339432411611  0.245040988571
CC3152  CLGA3     1  0.339432411611  0.232955260941
CC3152  CLGR1     1  0.334977918021  0.200657590935
CC3152     CM     1  0.356359487256  0.138767581228
CC3152     CN     1  0.325178032121  0.187114168357
CC3152    CN1     1  0.338541512893  0.132309697301
CC3152   CN1A     1  0.347450500075  0.110698234855
CC3152   CN1T     1  0.338541512893  0.132309697301
CC3152    CN2     1  0.338541512893  0.132309697301
CC3152    CN3     1  0.338541512893  0.125520000000
CC3152   CN3A     1  0.329632525712  0.177512086349
CC3152   CN3B     1  0.329632525712  0.177512086349
CC3152   CN3C     1  0.329632525712  0.177512086349
CC3152   CN3D     1  0.338541512893  0.125520000000
CC3152   CN3T     1  0.338541512893  0.125520000000
CC3152    CN4     1  0.338541512893  0.114583559030
CC3152    CN5     1  0.338541512893  0.114583559030
CC3152   CN5G     1  0.338541512893  0.114583559030
CC3152    CN6     1  0.338541512893  0.041840000000
CC3152    CN7     1  0.338541512893  0.041840000000
CC3152   CN7B     1  0.338541512893  0.041840000000
CC3152   CN7E     1  0.338541512893  0.041840000000
CC3152    CN8     1  0.338541512893  0.041840000000
CC3152   CN8B     1  0.338541512893  0.041840000000
CC3152    CN9     1  0.338541512893  0.041840000000
CC3152    CNA     1  0.346773417049  0.110698234855
CC3152   CNA2     1  0.338541512893  0.110698234855
CC3152   CNE1     1  0.355468588538  0.109105371453
CC3152   CNE2     1  0.354577689820  0.105847757841
CC3152    CNG     1  0.347450500075  0.138767581228
CC3152   CO2P     1  0.251910521541  0.164138698618
CC3152   CO3P     1  0.192264852362  0.144393471099
CC3152    COA     1  0.347450500075  0.138767581228
CC3152    CP1     1  0.338541512893  0.041840000000
CC3152    CP2     1  0.338541512893  0.041840000000
CC3152    CP3     1  0.338541512893  0.041840000000
CC3152    CPA     1  0.329632525712  0.125520000000
CC3152    CPB     1  0.329632525712  0.125520000000
CC3152   CPD1     1  0.338541512893  0.041840000000
CC3152   CPH1     1  0.329632525712  0.093557084179
CC3152   CPH2     1  0.329632525712  0.093557084179
CC3152    CPM     1  0.329632525712  0.125520000000
CC3152    CPT     1  0.334977918021  0.131646486622
CC3152   CR2P     1  0.263634748672  0.170828164985
CC3152   CR33     1  0.338541512893  0.041840000000
CC3152   CR3P     1  0.244382427373  0.145299904804
CC3152   CRL1     1  0.338541512893  0.041840000000
CC3152   CRL2     1  0.338541512893  0.041840000000
CC3152   CRN1     1  0.347450500075  0.138767581228
CC3152     CS     1  0.365268474438  0.138767581228
CC3152    CST     1  0.308518226092  0.100764063435
CC3152     CT     1  0.338541512893  0.041840000000
CC3152    CT1     1  0.338541512893  0.041840000000
CC3152   CT1X     1  0.338541512893  0.041840000000
CC3152    CT2     1  0.338541512893  0.041840000000
CC3152   CT2A     1  0.338541512893  0.041840000000
CC3152   CT2P     1  0.338541512893  0.041840000000
CC3152   CT2X     1  0.338541512893  0.041840000000
CC3152    CT3     1  0.338541512893  0.041840000000
CC3152   CT3X     1  0.338541512893  0.041840000000
CC3152   CTD1     1  0.338541512893  0.041840000000
CC3152   CTL1     1  0.338541512893  0.041840000000
CC3152   CTL2     1  0.338541512893  0.041840000000
CC3152   CTL3     1  0.338541512893  0.041840000000
CC3152   CTL5     1  0.338541512893  0.041840000000
CC3152   CTO1     1  0.338541512893  0.041840000000
CC3152   CTO2     1  0.338541512893  0.041840000000
CC3152     CU     1  0.285800308779  0.908997471504
CC3152   CU1P     1  0.246066225950  0.180057894334
CC3152   CU2P     1  0.233869822499  0.162315474555
CC3152     CY     1  0.346559601357  0.113045454929
CC3152    DUM     1  0.169270756447  0.000000000000
CC3152   DY3P     1  0.297952167295  0.171135318061
CC3152   ER3P     1  0.291083338178  0.169232326746
CC3152   EU2P     1  0.333231756533  0.203602227414
CC3152   EU3P     1  0.304954631219  0.174528477447
CC3152     F1     1  0.314487247504  0.153729976257
CC3152     F2     1  0.314487247504  0.135577095411
CC3152     F3     1  0.311814551349  0.130309939452
CC3152     FA     1  0.320723538531  0.144938011577
CC3152     FE     1  0.227179173126  0.000000000000
CC3152   FE2P     1  0.265496726993  0.167098295383
CC3152   FE3P     1  0.219722350855  0.148045032716
CC3152   FGA1     1  0.314487247504  0.153729976257
CC3152   FGA2     1  0.314487247504  0.135577095411
CC3152   FGA3     1  0.311814551349  0.130309939452
CC3152   FGP1     1  0.311814551349  0.130309939452
CC3152   FGR1     1  0.320723538531  0.144938011577
CC3152    FNA     1  0.320723538531  0.144938011577
CC3152   GA3P     1  0.189485248361  0.145299904804
CC3152   GD3P     1  0.303351013527  0.173673803114
CC3152      H     1  0.189271432669  0.089736802707
CC3152     HA     1  0.286869387241  0.062058748940
CC3152    HA1     1  0.288651184677  0.088756043175
CC3152    HA2     1  0.288651184677  0.077149148019
CC3152    HA3     1  0.288651184677  0.064818249282
CC3152    HAL     1  0.286869387241  0.062058748940
CC3152   HAL1     1  0.286869387241  0.062058748940
CC3152   HAL2     1  0.288651184677  0.070011711020
CC3152   HAL3     1  0.288651184677  0.064818249282
CC3152     HB     1  0.286869387241  0.062058748940
CC3152    HB1     1  0.286869387241  0.062058748940
CC3152    HB2     1  0.288651184677  0.070011711020
CC3152    HBL     1  0.286869387241  0.062058748940
CC3152     HC     1  0.189271432669  0.089736802707
CC3152   HCA1     1  0.288651184677  0.088756043175
CC3152  HCA1A     1  0.288651184677  0.088756043175
CC3152 HCA1C2     1  0.288651184677  0.088756043175
CC3152   HCA2     1  0.288651184677  0.078275472531
CC3152 HCA25A     1  0.285087589805  0.078275472531
CC3152  HCA2A     1  0.288651184677  0.078275472531
CC3152 HCA2C2     1  0.285087589805  0.078275472531
CC3152   HCA3     1  0.288651184677  0.064818249282
CC3152  HCA3A     1  0.288651184677  0.064818249282
CC3152  HCA3M     1  0.288651184677  0.064818249282
CC3152    HCL     1  0.189271432669  0.089736802707
CC3152   HCP1     1  0.189271432669  0.089736802707
CC3152  HCP1M     1  0.189271432669  0.089736802707
CC3152   HCR1     1  0.240542653898  0.089736802707
CC3152     HE     1  0.301123766731  0.061020452073
CC3152    HE1     1  0.280633096214  0.073666921749
CC3152    HE2     1  0.281523994932  0.067464972838
CC3152   HEL1     1  0.280633096214  0.073666921749
CC3152   HEL2     1  0.281523994932  0.067464972838
CC3152    HF1     1  0.286869387241  0.070011711020
CC3152    HF2     1  0.285087589805  0.072469005789
CC3152   HG2P     1  0.274557166956  0.189623385225
CC3152   HGA1     1  0.288651184677  0.088756043175
CC3152   HGA2     1  0.288651184677  0.078275472531
CC3152   HGA3     1  0.288651184677  0.064818249282
CC3152   HGA4     1  0.280633096214  0.073666921749
CC3152   HGA5     1  0.281523994932  0.067464972838
CC3152   HGA6     1  0.286869387241  0.070011711020
CC3152   HGA7     1  0.285087589805  0.072469005789
CC3152 HGAAM0     1  0.283305792369  0.070011711020
CC3152 HGAAM1     1  0.283305792369  0.070011711020
CC3152 HGAAM2     1  0.281523994932  0.083680000000
CC3152   HGP1     1  0.189271432669  0.089736802707
CC3152   HGP2     1  0.189271432669  0.089736802707
CC3152   HGP3     1  0.209361198763  0.132309697301
CC3152   HGP4     1  0.189271432669  0.089736802707
CC3152   HGP5     1  0.231633666716  0.089736802707
CC3152 HGPAM1     1  0.247224394284  0.039692909190
CC3152 HGPAM2     1  0.247224394284  0.041840000000
CC3152 HGPAM3     1  0.246778944925  0.045833423612
CC3152  HGR51     1  0.290272620344  0.072469005789
CC3152  HGR52     1  0.249451641079  0.089736802707
CC3152  HGR53     1  0.231633666716  0.089736802707
CC3152  HGR61     1  0.290272620344  0.072469005789
CC3152  HGR62     1  0.267269615442  0.089736802707
CC3152  HGR63     1  0.249451641079  0.089736802707
CC3152  HGR71     1  0.290272620344  0.072469005789
CC3152     HL     1  0.231633666716  0.089736802707
CC3152  HLGA1     1  0.288651184677  0.088756043175
CC3152  HLGA2     1  0.288651184677  0.078275472531
CC3152  HLGA3     1  0.288651184677  0.064818249282
CC3152  HLGA4     1  0.280633096214  0.073666921749
CC3152  HLGP1     1  0.189271432669  0.089736802707
CC3152 HLGR52     1  0.249451641079  0.089736802707
CC3152 HLGR61     1  0.290272620344  0.072469005789
CC3152 HLGR62     1  0.267269615442  0.089736802707
CC3152    HN1     1  0.189271432669  0.089736802707
CC3152    HN2     1  0.189271432669  0.089736802707
CC3152    HN3     1  0.267269615442  0.089736802707
CC3152   HN3B     1  0.249451641079  0.089736802707
CC3152    HN4     1  0.189271432669  0.089736802707
CC3152    HN5     1  0.189271432669  0.089736802707
CC3152    HN6     1  0.286869387241  0.062058748940
CC3152    HN7     1  0.286869387241  0.062058748940
CC3152    HN8     1  0.288651184677  0.070011711020
CC3152    HN9     1  0.288651184677  0.064818249282
CC3152   HNE1     1  0.280633096214  0.073666921749
CC3152   HNE2     1  0.281523994932  0.067464972838
CC3152    HNP     1  0.290272620344  0.072469005789
CC3152   HO3P     1  0.293168041178  0.170263611896
CC3152    HOL     1  0.189271432669  0.089736802707
CC3152     HP     1  0.290272620344  0.072469005789
CC3152   HPER     1  0.189271432669  0.089736802707
CC3152    HR1     1  0.249451641079  0.089736802707
CC3152    HR2     1  0.231633666716  0.089736802707
CC3152    HR3     1  0.300054688270  0.036952087465
CC3152   HRA3     1  0.288651184677  0.064818249282
CC3152   HRM1     1  0.247224394284  0.039692909190
CC3152   HRM2     1  0.247224394284  0.041840000000
CC3152   HRP2     1  0.189271432669  0.089736802707
CC3152     HS     1  0.209361198763  0.132309697301
CC3152   HSIA     1  0.286869387241  0.062058748940
CC3152   HSIO     1  0.189271432669  0.089736802707
CC3152     HT     1  0.189271432669  0.089736802707
CC3152     HX     1  0.189271432669  0.089736802707
CC3152   IGR1     1  0.368832069310  0.301712530731
CC3152   IN3P     1  0.246449312399  0.160580590010
CC3152   LA3P     1  0.327200372211  0.182184255566
CC3152    LIT     1  0.284864865125  0.020196198771
CC3152    LPH     1  0.169270756447  0.000000000000
CC3152   LU3P     1  0.289648991242  0.166731218816
CC3152     MG     1  0.274842254546  0.051243325419
CC3152   MN2P     1  0.276508235149  0.171747976291
CC3152   MN3P     1  0.203516903172  0.148045032716
CC3152      N     1  0.334087019303  0.004184000000
CC3152     NC     1  0.334087019303  0.324091246411
CC3152    NC2     1  0.334087019303  0.187114168357
CC3152  NC2D1     1  0.307360057758  0.187114168357
CC3152  NC311     1  0.347450500075  0.088756043175
CC3152   ND3P     1  0.313587439798  0.177117175768
CC3152     NE     1  0.305578260322  0.122698965603
CC3152  NG1T1     1  0.328741626994  0.177512086349
CC3152  NG2D1     1  0.334087019303  0.187114168357
CC3152  NG2O1     1  0.334087019303  0.187114168357
CC3152  NG2P1     1  0.334087019303  0.187114168357
CC3152 NG2R43     1  0.334087019303  0.187114168357
CC3152 NG2R50     1  0.334087019303  0.187114168357
CC3152 NG2R51     1  0.334087019303  0.187114168357
CC3152 NG2R52     1  0.334087019303  0.187114168357
CC3152 NG2R53     1  0.334087019303  0.187114168357
CC3152 NG2R57     1  0.334087019303  0.187114168357
CC3152 NG2R60     1  0.337650614175  0.102486650838
CC3152 NG2R61     1  0.334087019303  0.187114168357
CC3152 NG2R62     1  0.352795892384  0.093557084179
CC3152 NG2R67     1  0.334087019303  0.187114168357
CC3152 NG2RC0     1  0.334087019303  0.187114168357
CC3152  NG2S0     1  0.334087019303  0.004184000000
CC3152  NG2S1     1  0.307360057758  0.187114168357
CC3152  NG2S2     1  0.334087019303  0.187114168357
CC3152  NG2S3     1  0.334087019303  0.187114168357
CC3152  NG301     1  0.347450500075  0.078275472531
CC3152  NG311     1  0.347450500075  0.088756043175
CC3152  NG321     1  0.346559601357  0.102486650838
CC3152  NG331     1  0.345668702638  0.110698234855
CC3152 NG3C51     1  0.334087019303  0.187114168357
CC3152  NG3N1     1  0.351904993665  0.102486650838
CC3152  NG3P0     1  0.334087019303  0.187114168357
CC3152  NG3P1     1  0.334087019303  0.187114168357
CC3152  NG3P2     1  0.334087019303  0.187114168357
CC3152  NG3P3     1  0.334087019303  0.187114168357
CC3152    NH1     1  0.307360057758  0.187114168357
CC3152    NH2     1  0.334087019303  0.187114168357
CC3152    NH3     1  0.334087019303  0.187114168357
CC3152   NH3L     1  0.334087019303  0.187114168357
CC3152    NHL     1  0.307360057758  0.187114168357
CC3152     NI     1  0.282949432881  0.994525446633
CC3152   NI2P     1  0.238787583423  0.158440517242
CC3152    NN1     1  0.334087019303  0.187114168357
CC3152   NN1C     1  0.334087019303  0.187114168357
CC3152    NN2     1  0.334087019303  0.187114168357
CC3152   NN2B     1  0.334087019303  0.187114168357
CC3152   NN2C     1  0.334087019303  0.187114168357
CC3152   NN2G     1  0.334087019303  0.187114168357
CC3152   NN2U     1  0.334087019303  0.187114168357
CC3152    NN3     1  0.334087019303  0.187114168357
CC3152   NN3A     1  0.334087019303  0.187114168357
CC3152   NN3G     1  0.334087019303  0.187114168357
CC3152   NN3I     1  0.334087019303  0.187114168357
CC3152    NN4     1  0.334087019303  0.187114168357
CC3152    NN6     1  0.334087019303  0.187114168357
CC3152    NNG     1  0.334087019303  0.187114168357
CC3152     NP     1  0.334087019303  0.187114168357
CC3152    NPH     1  0.334087019303  0.187114168357
CC3152    NR1     1  0.334087019303  0.187114168357
CC3152    NR2     1  0.334087019303  0.187114168357
CC3152    NR3     1  0.334087019303  0.187114168357
CC3152   NRC4     1  0.334087019303  0.187114168357
CC3152   NRN1     1  0.347450500075  0.280671252536
CC3152   NRN2     1  0.346559601357  0.102486650838
CC3152    NS1     1  0.334087019303  0.187114168357
CC3152    NS2     1  0.334087019303  0.187114168357
CC3152    NTL     1  0.334087019303  0.187114168357
CC3152     NY     1  0.334087019303  0.187114168357
CC3152      O     1  0.293996576986  0.144938011577
CC3152    O2L     1  0.320723538531  0.144938011577
CC3152    OAL     1  0.326959829558  0.163176000000
CC3152     OB     1  0.293996576986  0.144938011577
CC3152    OBL     1  0.293996576986  0.144938011577
CC3152     OC     1  0.320723538531  0.144938011577
CC3152  OC2D1     1  0.293996576986  0.144938011577
CC3152  OC2D2     1  0.320723538531  0.144938011577
CC3152  OC2D3     1  0.293996576986  0.144938011577
CC3152  OC2D4     1  0.293996576986  0.144938011577
CC3152  OC2DP     1  0.320723538531  0.144938011577
CC3152  OC301     1  0.316269044940  0.132309697301
CC3152  OC302     1  0.316269044940  0.132309697301
CC3152  OC303     1  0.316269044940  0.132309697301
CC3152 OC305A     1  0.316269044940  0.132309697301
CC3152  OC30A     1  0.316269044940  0.132309697301
CC3152  OC30P     1  0.326959829558  0.163176000000
CC3152  OC311     1  0.326514380198  0.183381431383
CC3152 OC311M     1  0.326514380198  0.183381431383
CC3152  OC312     1  0.326959829558  0.163176000000
CC3152 OC3C51     1  0.316269044940  0.132309697301
CC3152 OC3C5M     1  0.316269044940  0.132309697301
CC3152 OC3C61     1  0.316269044940  0.132309697301
CC3152    OCA     1  0.293996576986  0.144938011577
CC3152    OCL     1  0.320723538531  0.144938011577
CC3152  OG2D1     1  0.293996576986  0.144938011577
CC3152  OG2D2     1  0.320723538531  0.144938011577
CC3152  OG2D3     1  0.293996576986  0.144938011577
CC3152  OG2D4     1  0.320723538531  0.144938011577
CC3152  OG2D5     1  0.320010819556  0.169954883425
CC3152  OG2N1     1  0.320723538531  0.144938011577
CC3152  OG2P1     1  0.320723538531  0.144938011577
CC3152 OG2R50     1  0.320723538531  0.144938011577
CC3152  OG2S1     1  0.318906105146  0.157831660601
CC3152  OG301     1  0.316269044940  0.132309697301
CC3152  OG302     1  0.316269044940  0.132309697301
CC3152  OG303     1  0.316269044940  0.132309697301
CC3152  OG304     1  0.316269044940  0.132309697301
CC3152  OG311     1  0.326514380198  0.183381431383
CC3152  OG312     1  0.325178032121  0.144938011577
CC3152 OG3C31     1  0.316269044940  0.132309697301
CC3152 OG3C51     1  0.316269044940  0.132309697301
CC3152 OG3C61     1  0.316269044940  0.132309697301
CC3152 OG3R60     1  0.316269044940  0.132309697301
CC3152    OH1     1  0.326959829558  0.163176000000
CC3152    OHL     1  0.326959829558  0.163176000000
CC3152   OLG1     1  0.293996576986  0.144938011577
CC3152   OLG2     1  0.320723538531  0.144938011577
CC3152   OLG3     1  0.320723538531  0.144938011577
CC3152   OLG4     1  0.316269044940  0.132309697301
CC3152   OLG5     1  0.316269044940  0.132309697301
CC3152   OLG6     1  0.326514380198  0.183381431383
CC3152   OLG7     1  0.316269044940  0.132309697301
CC3152   OLG8     1  0.316269044940  0.132309697301
CC3152     OM     1  0.320723538531  0.144938011577
CC3152    ON1     1  0.320723538531  0.144938011577
CC3152   ON1C     1  0.320723538531  0.144938011577
CC3152    ON2     1  0.326959829558  0.163176000000
CC3152   ON2B     1  0.326959829558  0.163176000000
CC3152   ON2M     1  0.316269044940  0.132309697301
CC3152    ON3     1  0.320723538531  0.144938011577
CC3152    ON4     1  0.326959829558  0.163176000000
CC3152    ON5     1  0.326959829558  0.163176000000
CC3152    ON6     1  0.326959829558  0.163176000000
CC3152   ON6B     1  0.326959829558  0.163176000000
CC3152   OPER     1  0.318427692534  0.188901923946
CC3152     OS     1  0.326959829558  0.163176000000
CC3152   OSIA     1  0.326959829558  0.163176000000
CC3152   OSIE     1  0.326959829558  0.163176000000
CC3152   OSIH     1  0.326959829558  0.163176000000
CC3152    OSL     1  0.316269044940  0.132309697301
CC3152   OSLP     1  0.316269044940  0.132309697301
CC3152    OST     1  0.320010819556  0.169954883425
CC3152     OT     1  0.326799467788  0.163176000000
CC3152     OX     1  0.320723538531  0.144938011577
CC3152      P     1  0.360813980847  0.320014464673
CC3152     P2     1  0.360813980847  0.320014464673
CC3152     P3     1  0.360813980847  0.320014464673
CC3152     P4     1  0.360813980847  0.320014464673
CC3152     PB     1  0.328073452955  0.716185437439
CC3152   PB2P     1  0.325890751096  0.204716924713
CC3152     PC     1  0.360813980847  0.320014464673
CC3152     PD     1  0.294842930769  1.037598257516
CC3152   PD2P     1  0.251865976605  0.174628752363
CC3152    PG0     1  0.360813980847  0.320014464673
CC3152    PG1     1  0.360813980847  0.320014464673
CC3152    PG2     1  0.360813980847  0.320014464673
CC3152     PL     1  0.360813980847  0.320014464673
CC3152   PM3P     1  0.316910492017  0.176275053255
CC3152    POT     1  0.326403017859  0.123410269913
CC3152   PR3P     1  0.317079762773  0.178642591472
CC3152     PT     1  0.296001099102  1.168527606863
CC3152   PT2P     1  0.240284293270  0.168973521997
CC3152   PU3P     1  0.318024115415  0.179522368790
CC3152   RA2P     1  0.355459679551  0.229891668540
CC3152   RH3P     1  0.210367914314  0.149983415617
CC3152    RUB     1  0.338541512893  0.162045623205
CC3152      S     1  0.347450500075  0.280671252536
CC3152     SC     1  0.356359487256  0.286840588481
CC3152   SC3P     1  0.266993436839  0.157109060719
CC3152  SEGD1     1  0.363041227642  0.330244580395
CC3152  SG2D1     1  0.351904993665  0.314496560236
CC3152  SG2P1     1  0.355798221064  0.332305491450
CC3152  SG2P2     1  0.352314807076  0.329421919951
CC3152 SG2R50     1  0.347450500075  0.280671252536
CC3152  SG301     1  0.345223253279  0.257919081884
CC3152  SG302     1  0.365268474438  0.286840588481
CC3152  SG311     1  0.347450500075  0.280671252536
CC3152  SG3O1     1  0.356359487256  0.286840588481
CC3152  SG3O2     1  0.347450500075  0.247528778125
CC3152  SG3O3     1  0.347450500075  0.247528778125
CC3152     SI     1  0.365268474438  0.324091246411
CC3152   SIH3     1  0.365268474438  0.324091246411
CC3152     SL     1  0.356359487256  0.286840588481
CC3152     SM     1  0.345223253279  0.257919081884
CC3152   SM2P     1  0.334666103469  0.207012887251
CC3152   SM3P     1  0.308847858618  0.175378986746
CC3152   SN2P     1  0.316981763914  0.181365662197
CC3152    SOD     1  0.294954293108  0.090610410351
CC3152     SP     1  0.365268474438  0.280671252536
CC3152   SR2P     1  0.334612649546  0.200133451797
CC3152     SS     1  0.365268474438  0.286840588481
CC3152   TB3P     1  0.300678317372  0.172155203837
CC3152   TI1P     1  0.341276571958  0.266826378666
CC3152   TI3P     1  0.243117351193  0.149983415617
CC3152   TL3P     1  0.246716582015  0.168869889039
CC3152   TM3P     1  0.289417357575  0.168402751521
CC3152    U3P     1  0.320830446377  0.182184255566
CC3152    V2P     1  0.267599247968  0.167830039933
CC3152    V3P     1  0.223989755715  0.147096016316
CC3152    Y3P     1  0.295190381269  0.170263611896
CC3152   YB2P     1  0.312616360195  0.189623385225
CC3152   YB3P     1  0.284659958420  0.167569069413
CC3152     ZN     1  0.266378716724  0.209200000000
CC3153 CC3153     1  0.338541512893  0.041840000000
CC3153 CC3161     1  0.338541512893  0.041840000000
CC3153 CC3162     1  0.338541512893  0.041840000000
CC3153 CC3163     1  0.338541512893  0.041840000000
CC3153  CC31A     1  0.338541512893  0.041840000000
CC3153  CC321     1  0.338541512893  0.041840000000
CC3153 CC321C     1  0.338541512893  0.041840000000
CC3153 CC321D     1  0.338541512893  0.041840000000
CC3153  CC322     1  0.338541512893  0.041840000000
CC3153 CC322C     1  0.338541512893  0.041840000000
CC3153 CC3251     1  0.338541512893  0.041840000000
CC3153 CC325A     1  0.338541512893  0.041840000000
CC3153 CC325B     1  0.338541512893  0.041840000000
CC3153 CC3261     1  0.338541512893  0.041840000000
CC3153 CC3263     1  0.338541512893  0.041840000000
CC3153 CC326A     1  0.338541512893  0.041840000000
CC3153  CC32A     1  0.338541512893  0.041840000000
CC3153  CC331     1  0.338541512893  0.041840000000
CC3153  CC33A     1  0.338541512893  0.041840000000
CC3153    CCL     1  0.347450500075  0.110698234855
CC3153     CD     1  0.347450500075  0.110698234855
CC3153    CE1     1  0.355468588538  0.109105371453
CC3153    CE2     1  0.354577689820  0.105847757841
CC3153   CE3P     1  0.321748072056  0.179522368790
CC3153   CEL1     1  0.355468588538  0.109105371453
CC3153   CEL2     1  0.354577689820  0.105847757841
CC3153   CEL3     1  0.355468588538  0.109105371453
CC3153    CES     1  0.356359487256  0.182376331798
CC3153    CF1     1  0.338541512893  0.102486650838
CC3153    CF2     1  0.351904993665  0.085746484010
CC3153    CF3     1  0.374177461619  0.059170695450
CC3153  CG1N1     1  0.335868816739  0.177512086349
CC3153  CG1T1     1  0.333196120584  0.170981810495
CC3153  CG1T2     1  0.346782326036  0.134409982486
CC3153 CG251O     1  0.355468588538  0.109105371453
CC3153 CG252O     1  0.355468588538  0.109105371453
CC3153 CG25C1     1  0.355468588538  0.109105371453
CC3153 CG25C2     1  0.355468588538  0.109105371453
CC3153  CG2D1     1  0.355468588538  0.109105371453
CC3153 CG2D1O     1  0.355468588538  0.109105371453
CC3153  CG2D2     1  0.354577689820  0.105847757841
CC3153 CG2D2O     1  0.355468588538  0.109105371453
CC3153 CG2DC1     1  0.355468588538  0.109105371453
CC3153 CG2DC2     1  0.355468588538  0.109105371453
CC3153 CG2DC3     1  0.354577689820  0.105847757841
CC3153  CG2N1     1  0.347450500075  0.138767581228
CC3153  CG2N2     1  0.347450500075  0.138767581228
CC3153  CG2O1     1  0.347450500075  0.138767581228
CC3153  CG2O2     1  0.320723538531  0.130979917850
CC3153  CG2O3     1  0.347450500075  0.110698234855
CC3153  CG2O4     1  0.329632525712  0.102486650838
CC3153  CG2O5     1  0.347450500075  0.125520000000
CC3153  CG2O6     1  0.347450500075  0.110698234855
CC3153  CG2O7     1  0.308518226092  0.100764063435
CC3153 CG2R51     1  0.356359487256  0.093557084179
CC3153 CG2R52     1  0.365268474438  0.059170695450
CC3153 CG2R53     1  0.365268474438  0.059170695450
CC3153 CG2R57     1  0.356359487256  0.093557084179
CC3153 CG2R61     1  0.346773417049  0.110698234855
CC3153 CG2R62     1  0.338541512893  0.125520000000
CC3153 CG2R63     1  0.338541512893  0.132309697301
CC3153 CG2R64     1  0.356359487256  0.083680000000
CC3153 CG2R66     1  0.338541512893  0.110698234855
CC3153 CG2R67     1  0.346773417049  0.110698234855
CC3153 CG2R71     1  0.346987232741  0.108300154755
CC3153 CG2RC0     1  0.334977918021  0.131646486622
CC3153 CG2RC7     1  0.334977918021  0.131646486622
CC3153  CG301     1  0.338541512893  0.041840000000
CC3153  CG302     1  0.374177461619  0.059170695450
CC3153  CG311     1  0.338541512893  0.041840000000
CC3153  CG312     1  0.351904993665  0.085746484010
CC3153  CG314     1  0.338541512893  0.041840000000
CC3153  CG321     1  0.338541512893  0.041840000000
CC3153  CG322     1  0.338541512893  0.102486650838
CC3153  CG323     1  0.365268474438  0.138767581228
CC3153  CG324     1  0.338541512893  0.041840000000
CC3153  CG331     1  0.338541512893  0.041840000000
CC3153  CG334     1  0.338541512893  0.041840000000
CC3153 CG3AM0     1  0.344777803920  0.110698234855
CC3153 CG3AM1     1  0.345668702638  0.116852760686
CC3153 CG3AM2     1  0.346559601357  0.118341390899
CC3153 CG3C31     1  0.338541512893  0.041840000000
CC3153 CG3C41     1  0.338541512893  0.041840000000
CC3153 CG3C50     1  0.338541512893  0.041840000000
CC3153 CG3C51     1  0.338541512893  0.041840000000
CC3153 CG3C52     1  0.338541512893  0.041840000000
CC3153 CG3C53     1  0.338541512893  0.041840000000
CC3153 CG3C54     1  0.338541512893  0.041840000000
CC3153 CG3RC1     1  0.338541512893  0.041840000000
CC3153     CL     1  0.347450500075  0.110698234855
CC3153    CLA     1  0.371504765465  0.162045623205
CC3153   CLAL     1  0.339272049842  0.072469005789
CC3153  CLG01     1  0.355468588538  0.109105371453
CC3153  CLG02     1  0.355468588538  0.109105371453
CC3153  CLG03     1  0.320723538531  0.130979917850
CC3153  CLG04     1  0.347450500075  0.110698234855
CC3153  CLG05     1  0.329632525712  0.102486650838
CC3153  CLG06     1  0.346773417049  0.110698234855
CC3153 CLG06A     1  0.346773417049  0.110698234855
CC3153 CLG06B     1  0.346773417049  0.110698234855
CC3153  CLG07     1  0.338541512893  0.125520000000
CC3153  CLG08     1  0.338541512893  0.132309697301
CC3153  CLG09     1  0.346773417049  0.110698234855
CC3153  CLG10     1  0.334977918021  0.131646486622
CC3153  CLG11     1  0.338541512893  0.041840000000
CC3153  CLG12     1  0.338541512893  0.041840000000
CC3153  CLG13     1  0.338541512893  0.041840000000
CC3153  CLG14     1  0.338541512893  0.041840000000
CC3153  CLG15     1  0.338541512893  0.041840000000
CC3153  CLG16     1  0.338541512893  0.041840000000
CC3153  CLGA1     1  0.339432411611  0.245040988571
CC3153  CLGA3     1  0.339432411611  0.232955260941
CC3153  CLGR1     1  0.334977918021  0.200657590935
CC3153     CM     1  0.356359487256  0.138767581228
CC3153     CN     1  0.325178032121  0.187114168357
CC3153    CN1     1  0.338541512893  0.132309697301
CC3153   CN1A     1  0.347450500075  0.110698234855
CC3153   CN1T     1  0.338541512893  0.132309697301
CC3153    CN2     1  0.338541512893  0.132309697301
CC3153    CN3     1  0.338541512893  0.125520000000
CC3153   CN3A     1  0.329632525712  0.177512086349
CC3153   CN3B     1  0.329632525712  0.177512086349
CC3153   CN3C     1  0.329632525712  0.177512086349
CC3153   CN3D     1  0.338541512893  0.125520000000
CC3153   CN3T     1  0.338541512893  0.125520000000
CC3153    CN4     1  0.338541512893  0.114583559030
CC3153    CN5     1  0.338541512893  0.114583559030
CC3153   CN5G     1  0.338541512893  0.114583559030
CC3153    CN6     1  0.338541512893  0.041840000000
CC3153    CN7     1  0.338541512893  0.041840000000
CC3153   CN7B     1  0.338541512893  0.041840000000
CC3153   CN7E     1  0.338541512893  0.041840000000
CC3153    CN8     1  0.338541512893  0.041840000000
CC3153   CN8B     1  0.338541512893  0.041840000000
CC3153    CN9     1  0.338541512893  0.041840000000
CC3153    CNA     1  0.346773417049  0.110698234855
CC3153   CNA2     1  0.338541512893  0.110698234855
CC3153   CNE1     1  0.355468588538  0.109105371453
CC3153   CNE2     1  0.354577689820  0.105847757841
CC3153    CNG     1  0.347450500075  0.138767581228
CC3153   CO2P     1  0.251910521541  0.164138698618
CC3153   CO3P     1  0.192264852362  0.144393471099
CC3153    COA     1  0.347450500075  0.138767581228
CC3153    CP1     1  0.338541512893  0.041840000000
CC3153    CP2     1  0.338541512893  0.041840000000
CC3153    CP3     1  0.338541512893  0.041840000000
CC3153    CPA     1  0.329632525712  0.125520000000
CC3153    CPB     1  0.329632525712  0.125520000000
CC3153   CPD1     1  0.338541512893  0.041840000000
CC3153   CPH1     1  0.329632525712  0.093557084179
CC3153   CPH2     1  0.329632525712  0.093557084179
CC3153    CPM     1  0.329632525712  0.125520000000
CC3153    CPT     1  0.334977918021  0.131646486622
CC3153   CR2P     1  0.263634748672  0.170828164985
CC3153   CR33     1  0.338541512893  0.041840000000
CC3153   CR3P     1  0.244382427373  0.145299904804
CC3153   CRL1     1  0.338541512893  0.041840000000
CC3153   CRL2     1  0.338541512893  0.041840000000
CC3153   CRN1     1  0.347450500075  0.138767581228
CC3153     CS     1  0.365268474438  0.138767581228
CC3153    CST     1  0.308518226092  0.100764063435
CC3153     CT     1  0.338541512893  0.041840000000
CC3153    CT1     1  0.338541512893  0.041840000000
CC3153   CT1X     1  0.338541512893  0.041840000000
CC3153    CT2     1  0.338541512893  0.041840000000
CC3153   CT2A     1  0.338541512893  0.041840000000
CC3153   CT2P     1  0.338541512893  0.041840000000
CC3153   CT2X     1  0.338541512893  0.041840000000
CC3153    CT3     1  0.338541512893  0.041840000000
CC3153   CT3X     1  0.338541512893  0.041840000000
CC3153   CTD1     1  0.338541512893  0.041840000000
CC3153   CTL1     1  0.338541512893  0.041840000000
CC3153   CTL2     1  0.338541512893  0.041840000000
CC3153   CTL3     1  0.338541512893  0.041840000000
CC3153   CTL5     1  0.338541512893  0.041840000000
CC3153   CTO1     1  0.338541512893  0.041840000000
CC3153   CTO2     1  0.338541512893  0.041840000000
CC3153     CU     1  0.285800308779  0.908997471504
CC3153   CU1P     1  0.246066225950  0.180057894334
CC3153   CU2P     1  0.233869822499  0.162315474555
CC3153     CY     1  0.346559601357  0.113045454929
CC3153    DUM     1  0.169270756447  0.000000000000
CC3153   DY3P     1  0.297952167295  0.171135318061
CC3153   ER3P     1  0.291083338178  0.169232326746
CC3153   EU2P     1  0.333231756533  0.203602227414
CC3153   EU3P     1  0.304954631219  0.174528477447
CC3153     F1     1  0.314487247504  0.153729976257
CC3153     F2     1  0.314487247504  0.135577095411
CC3153     F3     1  0.311814551349  0.130309939452
CC3153     FA     1  0.320723538531  0.144938011577
CC3153     FE     1  0.227179173126  0.000000000000
CC3153   FE2P     1  0.265496726993  0.167098295383
CC3153   FE3P     1  0.219722350855  0.148045032716
CC3153   FGA1     1  0.314487247504  0.153729976257
CC3153   FGA2     1  0.314487247504  0.135577095411
CC3153   FGA3     1  0.311814551349  0.130309939452
CC3153   FGP1     1  0.311814551349  0.130309939452
CC3153   FGR1     1  0.320723538531  0.144938011577
CC3153    FNA     1  0.320723538531  0.144938011577
CC3153   GA3P     1  0.189485248361  0.145299904804
CC3153   GD3P     1  0.303351013527  0.173673803114
CC3153      H     1  0.189271432669  0.089736802707
CC3153     HA     1  0.286869387241  0.062058748940
CC3153    HA1     1  0.288651184677  0.088756043175
CC3153    HA2     1  0.288651184677  0.077149148019
CC3153    HA3     1  0.288651184677  0.064818249282
CC3153    HAL     1  0.286869387241  0.062058748940
CC3153   HAL1     1  0.286869387241  0.062058748940
CC3153   HAL2     1  0.288651184677  0.070011711020
CC3153   HAL3     1  0.288651184677  0.064818249282
CC3153     HB     1  0.286869387241  0.062058748940
CC3153    HB1     1  0.286869387241  0.062058748940
CC3153    HB2     1  0.288651184677  0.070011711020
CC3153    HBL     1  0.286869387241  0.062058748940
CC3153     HC     1  0.189271432669  0.089736802707
CC3153   HCA1     1  0.288651184677  0.088756043175
CC3153  HCA1A     1  0.288651184677  0.088756043175
CC3153 HCA1C2     1  0.288651184677  0.088756043175
CC3153   HCA2     1  0.288651184677  0.078275472531
CC3153 HCA25A     1  0.285087589805  0.078275472531
CC3153  HCA2A     1  0.288651184677  0.078275472531
CC3153 HCA2C2     1  0.285087589805  0.078275472531
CC3153   HCA3     1  0.288651184677  0.064818249282
CC3153  HCA3A     1  0.288651184677  0.064818249282
CC3153  HCA3M     1  0.288651184677  0.064818249282
CC3153    HCL     1  0.189271432669  0.089736802707
CC3153   HCP1     1  0.189271432669  0.089736802707
CC3153  HCP1M     1  0.189271432669  0.089736802707
CC3153   HCR1     1  0.240542653898  0.089736802707
CC3153     HE     1  0.301123766731  0.061020452073
CC3153    HE1     1  0.280633096214  0.073666921749
CC3153    HE2     1  0.281523994932  0.067464972838
CC3153   HEL1     1  0.280633096214  0.073666921749
CC3153   HEL2     1  0.281523994932  0.067464972838
CC3153    HF1     1  0.286869387241  0.070011711020
CC3153    HF2     1  0.285087589805  0.072469005789
CC3153   HG2P     1  0.274557166956  0.189623385225
CC3153   HGA1     1  0.288651184677  0.088756043175
CC3153   HGA2     1  0.288651184677  0.078275472531
CC3153   HGA3     1  0.288651184677  0.064818249282
CC3153   HGA4     1  0.280633096214  0.073666921749
CC3153   HGA5     1  0.281523994932  0.067464972838
CC3153   HGA6     1  0.286869387241  0.070011711020
CC3153   HGA7     1  0.285087589805  0.072469005789
CC3153 HGAAM0     1  0.283305792369  0.070011711020
CC3153 HGAAM1     1  0.283305792369  0.070011711020
CC3153 HGAAM2     1  0.281523994932  0.083680000000
CC3153   HGP1     1  0.189271432669  0.089736802707
CC3153   HGP2     1  0.189271432669  0.089736802707
CC3153   HGP3     1  0.209361198763  0.132309697301
CC3153   HGP4     1  0.189271432669  0.089736802707
CC3153   HGP5     1  0.231633666716  0.089736802707
CC3153 HGPAM1     1  0.247224394284  0.039692909190
CC3153 HGPAM2     1  0.247224394284  0.041840000000
CC3153 HGPAM3     1  0.246778944925  0.045833423612
CC3153  HGR51     1  0.290272620344  0.072469005789
CC3153  HGR52     1  0.249451641079  0.089736802707
CC3153  HGR53     1  0.231633666716  0.089736802707
CC3153  HGR61     1  0.290272620344  0.072469005789
CC3153  HGR62     1  0.267269615442  0.089736802707
CC3153  HGR63     1  0.249451641079  0.089736802707
CC3153  HGR71     1  0.290272620344  0.072469005789
CC3153     HL     1  0.231633666716  0.089736802707
CC3153  HLGA1     1  0.288651184677  0.088756043175
CC3153  HLGA2     1  0.288651184677  0.078275472531
CC3153  HLGA3     1  0.288651184677  0.064818249282
CC3153  HLGA4     1  0.280633096214  0.073666921749
CC3153  HLGP1     1  0.189271432669  0.089736802707
CC3153 HLGR52     1  0.249451641079  0.089736802707
CC3153 HLGR61     1  0.290272620344  0.072469005789
CC3153 HLGR62     1  0.267269615442  0.089736802707
CC3153    HN1     1  0.189271432669  0.089736802707
CC3153    HN2     1  0.189271432669  0.089736802707
CC3153    HN3     1  0.267269615442  0.089736802707
CC3153   HN3B     1  0.249451641079  0.089736802707
CC3153    HN4     1  0.189271432669  0.089736802707
CC3153    HN5     1  0.189271432669  0.089736802707
CC3153    HN6     1  0.286869387241  0.062058748940
CC3153    HN7     1  0.286869387241  0.062058748940
CC3153    HN8     1  0.288651184677  0.070011711020
CC3153    HN9     1  0.288651184677  0.064818249282
CC3153   HNE1     1  0.280633096214  0.073666921749
CC3153   HNE2     1  0.281523994932  0.067464972838
CC3153    HNP     1  0.290272620344  0.072469005789
CC3153   HO3P     1  0.293168041178  0.170263611896
CC3153    HOL     1  0.189271432669  0.089736802707
CC3153     HP     1  0.290272620344  0.072469005789
CC3153   HPER     1  0.189271432669  0.089736802707
CC3153    HR1     1  0.249451641079  0.089736802707
CC3153    HR2     1  0.231633666716  0.089736802707
CC3153    HR3     1  0.300054688270  0.036952087465
CC3153   HRA3     1  0.288651184677  0.064818249282
CC3153   HRM1     1  0.247224394284  0.039692909190
CC3153   HRM2     1  0.247224394284  0.041840000000
CC3153   HRP2     1  0.189271432669  0.089736802707
CC3153     HS     1  0.209361198763  0.132309697301
CC3153   HSIA     1  0.286869387241  0.062058748940
CC3153   HSIO     1  0.189271432669  0.089736802707
CC3153     HT     1  0.189271432669  0.089736802707
CC3153     HX     1  0.189271432669  0.089736802707
CC3153   IGR1     1  0.368832069310  0.301712530731
CC3153   IN3P     1  0.246449312399  0.160580590010
CC3153   LA3P     1  0.327200372211  0.182184255566
CC3153    LIT     1  0.284864865125  0.020196198771
CC3153    LPH     1  0.169270756447  0.000000000000
CC3153   LU3P     1  0.289648991242  0.166731218816
CC3153     MG     1  0.274842254546  0.051243325419
CC3153   MN2P     1  0.276508235149  0.171747976291
CC3153   MN3P     1  0.203516903172  0.148045032716
CC3153      N     1  0.334087019303  0.004184000000
CC3153     NC     1  0.334087019303  0.324091246411
CC3153    NC2     1  0.334087019303  0.187114168357
CC3153  NC2D1     1  0.307360057758  0.187114168357
CC3153  NC311     1  0.347450500075  0.088756043175
CC3153   ND3P     1  0.313587439798  0.177117175768
CC3153     NE     1  0.305578260322  0.122698965603
CC3153  NG1T1     1  0.328741626994  0.177512086349
CC3153  NG2D1     1  0.334087019303  0.187114168357
CC3153  NG2O1     1  0.334087019303  0.187114168357
CC3153  NG2P1     1  0.334087019303  0.187114168357
CC3153 NG2R43     1  0.334087019303  0.187114168357
CC3153 NG2R50     1  0.334087019303  0.187114168357
CC3153 NG2R51     1  0.334087019303  0.187114168357
CC3153 NG2R52     1  0.334087019303  0.187114168357
CC3153 NG2R53     1  0.334087019303  0.187114168357
CC3153 NG2R57     1  0.334087019303  0.187114168357
CC3153 NG2R60     1  0.337650614175  0.102486650838
CC3153 NG2R61     1  0.334087019303  0.187114168357
CC3153 NG2R62     1  0.352795892384  0.093557084179
CC3153 NG2R67     1  0.334087019303  0.187114168357
CC3153 NG2RC0     1  0.334087019303  0.187114168357
CC3153  NG2S0     1  0.334087019303  0.004184000000
CC3153  NG2S1     1  0.307360057758  0.187114168357
CC3153  NG2S2     1  0.334087019303  0.187114168357
CC3153  NG2S3     1  0.334087019303  0.187114168357
CC3153  NG301     1  0.347450500075  0.078275472531
CC3153  NG311     1  0.347450500075  0.088756043175
CC3153  NG321     1  0.346559601357  0.102486650838
CC3153  NG331     1  0.345668702638  0.110698234855
CC3153 NG3C51     1  0.334087019303  0.187114168357
CC3153  NG3N1     1  0.351904993665  0.102486650838
CC3153  NG3P0     1  0.334087019303  0.187114168357
CC3153  NG3P1     1  0.334087019303  0.187114168357
CC3153  NG3P2     1  0.334087019303  0.187114168357
CC3153  NG3P3     1  0.334087019303  0.187114168357
CC3153    NH1     1  0.307360057758  0.187114168357
CC3153    NH2     1  0.334087019303  0.187114168357
CC3153    NH3     1  0.334087019303  0.187114168357
CC3153   NH3L     1  0.334087019303  0.187114168357
CC3153    NHL     1  0.307360057758  0.187114168357
CC3153     NI     1  0.282949432881  0.994525446633
CC3153   NI2P     1  0.238787583423  0.158440517242
CC3153    NN1     1  0.334087019303  0.187114168357
CC3153   NN1C     1  0.334087019303  0.187114168357
CC3153    NN2     1  0.334087019303  0.187114168357
CC3153   NN2B     1  0.334087019303  0.187114168357
CC3153   NN2C     1  0.334087019303  0.187114168357
CC3153   NN2G     1  0.334087019303  0.187114168357
CC3153   NN2U     1  0.334087019303  0.187114168357
CC3153    NN3     1  0.334087019303  0.187114168357
CC3153   NN3A     1  0.334087019303  0.187114168357
CC3153   NN3G     1  0.334087019303  0.187114168357
CC3153   NN3I     1  0.334087019303  0.187114168357
CC3153    NN4     1  0.334087019303  0.187114168357
CC3153    NN6     1  0.334087019303  0.187114168357
CC3153    NNG     1  0.334087019303  0.187114168357
CC3153     NP     1  0.334087019303  0.187114168357
CC3153    NPH     1  0.334087019303  0.187114168357
CC3153    NR1     1  0.334087019303  0.187114168357
CC3153    NR2     1  0.334087019303  0.187114168357
CC3153    NR3     1  0.334087019303  0.187114168357
CC3153   NRC4     1  0.334087019303  0.187114168357
CC3153   NRN1     1  0.347450500075  0.280671252536
CC3153   NRN2     1  0.346559601357  0.102486650838
CC3153    NS1     1  0.334087019303  0.187114168357
CC3153    NS2     1  0.334087019303  0.187114168357
CC3153    NTL     1  0.334087019303  0.187114168357
CC3153     NY     1  0.334087019303  0.187114168357
CC3153      O     1  0.293996576986  0.144938011577
CC3153    O2L     1  0.320723538531  0.144938011577
CC3153    OAL     1  0.326959829558  0.163176000000
CC3153     OB     1  0.293996576986  0.144938011577
CC3153    OBL     1  0.293996576986  0.144938011577
CC3153     OC     1  0.320723538531  0.144938011577
CC3153  OC2D1     1  0.293996576986  0.144938011577
CC3153  OC2D2     1  0.320723538531  0.144938011577
CC3153  OC2D3     1  0.293996576986  0.144938011577
CC3153  OC2D4     1  0.293996576986  0.144938011577
CC3153  OC2DP     1  0.320723538531  0.144938011577
CC3153  OC301     1  0.316269044940  0.132309697301
CC3153  OC302     1  0.316269044940  0.132309697301
CC3153  OC303     1  0.316269044940  0.132309697301
CC3153 OC305A     1  0.316269044940  0.132309697301
CC3153  OC30A     1  0.316269044940  0.132309697301
CC3153  OC30P     1  0.326959829558  0.163176000000
CC3153  OC311     1  0.326514380198  0.183381431383
CC3153 OC311M     1  0.326514380198  0.183381431383
CC3153  OC312     1  0.326959829558  0.163176000000
CC3153 OC3C51     1  0.316269044940  0.132309697301
CC3153 OC3C5M     1  0.316269044940  0.132309697301
CC3153 OC3C61     1  0.316269044940  0.132309697301
CC3153    OCA     1  0.293996576986  0.144938011577
CC3153    OCL     1  0.320723538531  0.144938011577
CC3153  OG2D1     1  0.293996576986  0.144938011577
CC3153  OG2D2     1  0.320723538531  0.144938011577
CC3153  OG2D3     1  0.293996576986  0.144938011577
CC3153  OG2D4     1  0.320723538531  0.144938011577
CC3153  OG2D5     1  0.320010819556  0.169954883425
CC3153  OG2N1     1  0.320723538531  0.144938011577
CC3153  OG2P1     1  0.320723538531  0.144938011577
CC3153 OG2R50     1  0.320723538531  0.144938011577
CC3153  OG2S1     1  0.318906105146  0.157831660601
CC3153  OG301     1  0.316269044940  0.132309697301
CC3153  OG302     1  0.316269044940  0.132309697301
CC3153  OG303     1  0.316269044940  0.132309697301
CC3153  OG304     1  0.316269044940  0.132309697301
CC3153  OG311     1  0.326514380198  0.183381431383
CC3153  OG312     1  0.325178032121  0.144938011577
CC3153 OG3C31     1  0.316269044940  0.132309697301
CC3153 OG3C51     1  0.316269044940  0.132309697301
CC3153 OG3C61     1  0.316269044940  0.132309697301
CC3153 OG3R60     1  0.316269044940  0.132309697301
CC3153    OH1     1  0.326959829558  0.163176000000
CC3153    OHL     1  0.326959829558  0.163176000000
CC3153   OLG1     1  0.293996576986  0.144938011577
CC3153   OLG2     1  0.320723538531  0.144938011577
CC3153   OLG3     1  0.320723538531  0.144938011577
CC3153   OLG4     1  0.316269044940  0.132309697301
CC3153   OLG5     1  0.316269044940  0.132309697301
CC3153   OLG6     1  0.326514380198  0.183381431383
CC3153   OLG7     1  0.316269044940  0.132309697301
CC3153   OLG8     1  0.316269044940  0.132309697301
CC3153     OM     1  0.320723538531  0.144938011577
CC3153    ON1     1  0.320723538531  0.144938011577
CC3153   ON1C     1  0.320723538531  0.144938011577
CC3153    ON2     1  0.326959829558  0.163176000000
CC3153   ON2B     1  0.326959829558  0.163176000000
CC3153   ON2M     1  0.316269044940  0.132309697301
CC3153    ON3     1  0.320723538531  0.144938011577
CC3153    ON4     1  0.326959829558  0.163176000000
CC3153    ON5     1  0.326959829558  0.163176000000
CC3153    ON6     1  0.326959829558  0.163176000000
CC3153   ON6B     1  0.326959829558  0.163176000000
CC3153   OPER     1  0.318427692534  0.188901923946
CC3153     OS     1  0.326959829558  0.163176000000
CC3153   OSIA     1  0.326959829558  0.163176000000
CC3153   OSIE     1  0.326959829558  0.163176000000
CC3153   OSIH     1  0.326959829558  0.163176000000
CC3153    OSL     1  0.316269044940  0.132309697301
CC3153   OSLP     1  0.316269044940  0.132309697301
CC3153    OST     1  0.320010819556  0.169954883425
CC3153     OT     1  0.326799467788  0.163176000000
CC3153     OX     1  0.320723538531  0.144938011577
CC3153      P     1  0.360813980847  0.320014464673
CC3153     P2     1  0.360813980847  0.320014464673
CC3153     P3     1  0.360813980847  0.320014464673
CC3153     P4     1  0.360813980847  0.320014464673
CC3153     PB     1  0.328073452955  0.716185437439
CC3153   PB2P     1  0.325890751096  0.204716924713
CC3153     PC     1  0.360813980847  0.320014464673
CC3153     PD     1  0.294842930769  1.037598257516
CC3153   PD2P     1  0.251865976605  0.174628752363
CC3153    PG0     1  0.360813980847  0.320014464673
CC3153    PG1     1  0.360813980847  0.320014464673
CC3153    PG2     1  0.360813980847  0.320014464673
CC3153     PL     1  0.360813980847  0.320014464673
CC3153   PM3P     1  0.316910492017  0.176275053255
CC3153    POT     1  0.326403017859  0.123410269913
CC3153   PR3P     1  0.317079762773  0.178642591472
CC3153     PT     1  0.296001099102  1.168527606863
CC3153   PT2P     1  0.240284293270  0.168973521997
CC3153   PU3P     1  0.318024115415  0.179522368790
CC3153   RA2P     1  0.355459679551  0.229891668540
CC3153   RH3P     1  0.210367914314  0.149983415617
CC3153    RUB     1  0.338541512893  0.162045623205
CC3153      S     1  0.347450500075  0.280671252536
CC3153     SC     1  0.356359487256  0.286840588481
CC3153   SC3P     1  0.266993436839  0.157109060719
CC3153  SEGD1     1  0.363041227642  0.330244580395
CC3153  SG2D1     1  0.351904993665  0.314496560236
CC3153  SG2P1     1  0.355798221064  0.332305491450
CC3153  SG2P2     1  0.352314807076  0.329421919951
CC3153 SG2R50     1  0.347450500075  0.280671252536
CC3153  SG301     1  0.345223253279  0.257919081884
CC3153  SG302     1  0.365268474438  0.286840588481
CC3153  SG311     1  0.347450500075  0.280671252536
CC3153  SG3O1     1  0.356359487256  0.286840588481
CC3153  SG3O2     1  0.347450500075  0.247528778125
CC3153  SG3O3     1  0.347450500075  0.247528778125
CC3153     SI     1  0.365268474438  0.324091246411
CC3153   SIH3     1  0.365268474438  0.324091246411
CC3153     SL     1  0.356359487256  0.286840588481
CC3153     SM     1  0.345223253279  0.257919081884
CC3153   SM2P     1  0.334666103469  0.207012887251
CC3153   SM3P     1  0.308847858618  0.175378986746
CC3153   SN2P     1  0.316981763914  0.181365662197
CC3153    SOD     1  0.294954293108  0.090610410351
CC3153     SP     1  0.365268474438  0.280671252536
CC3153   SR2P     1  0.334612649546  0.200133451797
CC3153     SS     1  0.365268474438  0.286840588481
CC3153   TB3P     1  0.300678317372  0.172155203837
CC3153   TI1P     1  0.341276571958  0.266826378666
CC3153   TI3P     1  0.243117351193  0.149983415617
CC3153   TL3P     1  0.246716582015  0.168869889039
CC3153   TM3P     1  0.289417357575  0.168402751521
CC3153    U3P     1  0.320830446377  0.182184255566
CC3153    V2P     1  0.267599247968  0.167830039933
CC3153    V3P     1  0.223989755715  0.147096016316
CC3153    Y3P     1  0.295190381269  0.170263611896
CC3153   YB2P     1  0.312616360195  0.189623385225
CC3153   YB3P     1  0.284659958420  0.167569069413
CC3153     ZN     1  0.266378716724  0.209200000000
CC3161 CC3161     1  0.338541512893  0.041840000000
CC3161 CC3162     1  0.338541512893  0.041840000000
CC3161 CC3163     1  0.338541512893  0.041840000000
CC3161  CC31A     1  0.338541512893  0.041840000000
CC3161  CC321     1  0.338541512893  0.041840000000
CC3161 CC321C     1  0.338541512893  0.041840000000
CC3161 CC321D     1  0.338541512893  0.041840000000
CC3161  CC322     1  0.338541512893  0.041840000000
CC3161 CC322C     1  0.338541512893  0.041840000000
CC3161 CC3251     1  0.338541512893  0.041840000000
CC3161 CC325A     1  0.338541512893  0.041840000000
CC3161 CC325B     1  0.338541512893  0.041840000000
CC3161 CC3261     1  0.338541512893  0.041840000000
CC3161 CC3263     1  0.338541512893  0.041840000000
CC3161 CC326A     1  0.338541512893  0.041840000000
CC3161  CC32A     1  0.338541512893  0.041840000000
CC3161  CC331     1  0.338541512893  0.041840000000
CC3161  CC33A     1  0.338541512893  0.041840000000
CC3161    CCL     1  0.347450500075  0.110698234855
CC3161     CD     1  0.347450500075  0.110698234855
CC3161    CE1     1  0.355468588538  0.109105371453
CC3161    CE2     1  0.354577689820  0.105847757841
CC3161   CE3P     1  0.321748072056  0.179522368790
CC3161   CEL1     1  0.355468588538  0.109105371453
CC3161   CEL2     1  0.354577689820  0.105847757841
CC3161   CEL3     1  0.355468588538  0.109105371453
CC3161    CES     1  0.356359487256  0.182376331798
CC3161    CF1     1  0.338541512893  0.102486650838
CC3161    CF2     1  0.351904993665  0.085746484010
CC3161    CF3     1  0.374177461619  0.059170695450
CC3161  CG1N1     1  0.335868816739  0.177512086349
CC3161  CG1T1     1  0.333196120584  0.170981810495
CC3161  CG1T2     1  0.346782326036  0.134409982486
CC3161 CG251O     1  0.355468588538  0.109105371453
CC3161 CG252O     1  0.355468588538  0.109105371453
CC3161 CG25C1     1  0.355468588538  0.109105371453
CC3161 CG25C2     1  0.355468588538  0.109105371453
CC3161  CG2D1     1  0.355468588538  0.109105371453
CC3161 CG2D1O     1  0.355468588538  0.109105371453
CC3161  CG2D2     1  0.354577689820  0.105847757841
CC3161 CG2D2O     1  0.355468588538  0.109105371453
CC3161 CG2DC1     1  0.355468588538  0.109105371453
CC3161 CG2DC2     1  0.355468588538  0.109105371453
CC3161 CG2DC3     1  0.354577689820  0.105847757841
CC3161  CG2N1     1  0.347450500075  0.138767581228
CC3161  CG2N2     1  0.347450500075  0.138767581228
CC3161  CG2O1     1  0.347450500075  0.138767581228
CC3161  CG2O2     1  0.320723538531  0.130979917850
CC3161  CG2O3     1  0.347450500075  0.110698234855
CC3161  CG2O4     1  0.329632525712  0.102486650838
CC3161  CG2O5     1  0.347450500075  0.125520000000
CC3161  CG2O6     1  0.347450500075  0.110698234855
CC3161  CG2O7     1  0.308518226092  0.100764063435
CC3161 CG2R51     1  0.356359487256  0.093557084179
CC3161 CG2R52     1  0.365268474438  0.059170695450
CC3161 CG2R53     1  0.365268474438  0.059170695450
CC3161 CG2R57     1  0.356359487256  0.093557084179
CC3161 CG2R61     1  0.346773417049  0.110698234855
CC3161 CG2R62     1  0.338541512893  0.125520000000
CC3161 CG2R63     1  0.338541512893  0.132309697301
CC3161 CG2R64     1  0.356359487256  0.083680000000
CC3161 CG2R66     1  0.338541512893  0.110698234855
CC3161 CG2R67     1  0.346773417049  0.110698234855
CC3161 CG2R71     1  0.346987232741  0.108300154755
CC3161 CG2RC0     1  0.334977918021  0.131646486622
CC3161 CG2RC7     1  0.334977918021  0.131646486622
CC3161  CG301     1  0.338541512893  0.041840000000
CC3161  CG302     1  0.374177461619  0.059170695450
CC3161  CG311     1  0.338541512893  0.041840000000
CC3161  CG312     1  0.351904993665  0.085746484010
CC3161  CG314     1  0.338541512893  0.041840000000
CC3161  CG321     1  0.338541512893  0.041840000000
CC3161  CG322     1  0.338541512893  0.102486650838
CC3161  CG323     1  0.365268474438  0.138767581228
CC3161  CG324     1  0.338541512893  0.041840000000
CC3161  CG331     1  0.338541512893  0.041840000000
CC3161  CG334     1  0.338541512893  0.041840000000
CC3161 CG3AM0     1  0.344777803920  0.110698234855
CC3161 CG3AM1     1  0.345668702638  0.116852760686
CC3161 CG3AM2     1  0.346559601357  0.118341390899
CC3161 CG3C31     1  0.338541512893  0.041840000000
CC3161 CG3C41     1  0.338541512893  0.041840000000
CC3161 CG3C50     1  0.338541512893  0.041840000000
CC3161 CG3C51     1  0.338541512893  0.041840000000
CC3161 CG3C52     1  0.338541512893  0.041840000000
CC3161 CG3C53     1  0.338541512893  0.041840000000
CC3161 CG3C54     1  0.338541512893  0.041840000000
CC3161 CG3RC1     1  0.338541512893  0.041840000000
CC3161     CL     1  0.347450500075  0.110698234855
CC3161    CLA     1  0.371504765465  0.162045623205
CC3161   CLAL     1  0.339272049842  0.072469005789
CC3161  CLG01     1  0.355468588538  0.109105371453
CC3161  CLG02     1  0.355468588538  0.109105371453
CC3161  CLG03     1  0.320723538531  0.130979917850
CC3161  CLG04     1  0.347450500075  0.110698234855
CC3161  CLG05     1  0.329632525712  0.102486650838
CC3161  CLG06     1  0.346773417049  0.110698234855
CC3161 CLG06A     1  0.346773417049  0.110698234855
CC3161 CLG06B     1  0.346773417049  0.110698234855
CC3161  CLG07     1  0.338541512893  0.125520000000
CC3161  CLG08     1  0.338541512893  0.132309697301
CC3161  CLG09     1  0.346773417049  0.110698234855
CC3161  CLG10     1  0.334977918021  0.131646486622
CC3161  CLG11     1  0.338541512893  0.041840000000
CC3161  CLG12     1  0.338541512893  0.041840000000
CC3161  CLG13     1  0.338541512893  0.041840000000
CC3161  CLG14     1  0.338541512893  0.041840000000
CC3161  CLG15     1  0.338541512893  0.041840000000
CC3161  CLG16     1  0.338541512893  0.041840000000
CC3161  CLGA1     1  0.339432411611  0.245040988571
CC3161  CLGA3     1  0.339432411611  0.232955260941
CC3161  CLGR1     1  0.334977918021  0.200657590935
CC3161     CM     1  0.356359487256  0.138767581228
CC3161     CN     1  0.325178032121  0.187114168357
CC3161    CN1     1  0.338541512893  0.132309697301
CC3161   CN1A     1  0.347450500075  0.110698234855
CC3161   CN1T     1  0.338541512893  0.132309697301
CC3161    CN2     1  0.338541512893  0.132309697301
CC3161    CN3     1  0.338541512893  0.125520000000
CC3161   CN3A     1  0.329632525712  0.177512086349
CC3161   CN3B     1  0.329632525712  0.177512086349
CC3161   CN3C     1  0.329632525712  0.177512086349
CC3161   CN3D     1  0.338541512893  0.125520000000
CC3161   CN3T     1  0.338541512893  0.125520000000
CC3161    CN4     1  0.338541512893  0.114583559030
CC3161    CN5     1  0.338541512893  0.114583559030
CC3161   CN5G     1  0.338541512893  0.114583559030
CC3161    CN6     1  0.338541512893  0.041840000000
CC3161    CN7     1  0.338541512893  0.041840000000
CC3161   CN7B     1  0.338541512893  0.041840000000
CC3161   CN7E     1  0.338541512893  0.041840000000
CC3161    CN8     1  0.338541512893  0.041840000000
CC3161   CN8B     1  0.338541512893  0.041840000000
CC3161    CN9     1  0.338541512893  0.041840000000
CC3161    CNA     1  0.346773417049  0.110698234855
CC3161   CNA2     1  0.338541512893  0.110698234855
CC3161   CNE1     1  0.355468588538  0.109105371453
CC3161   CNE2     1  0.354577689820  0.105847757841
CC3161    CNG     1  0.347450500075  0.138767581228
CC3161   CO2P     1  0.251910521541  0.164138698618
CC3161   CO3P     1  0.192264852362  0.144393471099
CC3161    COA     1  0.347450500075  0.138767581228
CC3161    CP1     1  0.338541512893  0.041840000000
CC3161    CP2     1  0.338541512893  0.041840000000
CC3161    CP3     1  0.338541512893  0.041840000000
CC3161    CPA     1  0.329632525712  0.125520000000
CC3161    CPB     1  0.329632525712  0.125520000000
CC3161   CPD1     1  0.338541512893  0.041840000000
CC3161   CPH1     1  0.329632525712  0.093557084179
CC3161   CPH2     1  0.329632525712  0.093557084179
CC3161    CPM     1  0.329632525712  0.125520000000
CC3161    CPT     1  0.334977918021  0.131646486622
CC3161   CR2P     1  0.263634748672  0.170828164985
CC3161   CR33     1  0.338541512893  0.041840000000
CC3161   CR3P     1  0.244382427373  0.145299904804
CC3161   CRL1     1  0.338541512893  0.041840000000
CC3161   CRL2     1  0.338541512893  0.041840000000
CC3161   CRN1     1  0.347450500075  0.138767581228
CC3161     CS     1  0.365268474438  0.138767581228
CC3161    CST     1  0.308518226092  0.100764063435
CC3161     CT     1  0.338541512893  0.041840000000
CC3161    CT1     1  0.338541512893  0.041840000000
CC3161   CT1X     1  0.338541512893  0.041840000000
CC3161    CT2     1  0.338541512893  0.041840000000
CC3161   CT2A     1  0.338541512893  0.041840000000
CC3161   CT2P     1  0.338541512893  0.041840000000
CC3161   CT2X     1  0.338541512893  0.041840000000
CC3161    CT3     1  0.338541512893  0.041840000000
CC3161   CT3X     1  0.338541512893  0.041840000000
CC3161   CTD1     1  0.338541512893  0.041840000000
CC3161   CTL1     1  0.338541512893  0.041840000000
CC3161   CTL2     1  0.338541512893  0.041840000000
CC3161   CTL3     1  0.338541512893  0.041840000000
CC3161   CTL5     1  0.338541512893  0.041840000000
CC3161   CTO1     1  0.338541512893  0.041840000000
CC3161   CTO2     1  0.338541512893  0.041840000000
CC3161     CU     1  0.285800308779  0.908997471504
CC3161   CU1P     1  0.246066225950  0.180057894334
CC3161   CU2P     1  0.233869822499  0.162315474555
CC3161     CY     1  0.346559601357  0.113045454929
CC3161    DUM     1  0.169270756447  0.000000000000
CC3161   DY3P     1  0.297952167295  0.171135318061
CC3161   ER3P     1  0.291083338178  0.169232326746
CC3161   EU2P     1  0.333231756533  0.203602227414
CC3161   EU3P     1  0.304954631219  0.174528477447
CC3161     F1     1  0.314487247504  0.153729976257
CC3161     F2     1  0.314487247504  0.135577095411
CC3161     F3     1  0.311814551349  0.130309939452
CC3161     FA     1  0.320723538531  0.144938011577
CC3161     FE     1  0.227179173126  0.000000000000
CC3161   FE2P     1  0.265496726993  0.167098295383
CC3161   FE3P     1  0.219722350855  0.148045032716
CC3161   FGA1     1  0.314487247504  0.153729976257
CC3161   FGA2     1  0.314487247504  0.135577095411
CC3161   FGA3     1  0.311814551349  0.130309939452
CC3161   FGP1     1  0.311814551349  0.130309939452
CC3161   FGR1     1  0.320723538531  0.144938011577
CC3161    FNA     1  0.320723538531  0.144938011577
CC3161   GA3P     1  0.189485248361  0.145299904804
CC3161   GD3P     1  0.303351013527  0.173673803114
CC3161      H     1  0.189271432669  0.089736802707
CC3161     HA     1  0.286869387241  0.062058748940
CC3161    HA1     1  0.288651184677  0.088756043175
CC3161    HA2     1  0.288651184677  0.077149148019
CC3161    HA3     1  0.288651184677  0.064818249282
CC3161    HAL     1  0.286869387241  0.062058748940
CC3161   HAL1     1  0.286869387241  0.062058748940
CC3161   HAL2     1  0.288651184677  0.070011711020
CC3161   HAL3     1  0.288651184677  0.064818249282
CC3161     HB     1  0.286869387241  0.062058748940
CC3161    HB1     1  0.286869387241  0.062058748940
CC3161    HB2     1  0.288651184677  0.070011711020
CC3161    HBL     1  0.286869387241  0.062058748940
CC3161     HC     1  0.189271432669  0.089736802707
CC3161   HCA1     1  0.288651184677  0.088756043175
CC3161  HCA1A     1  0.288651184677  0.088756043175
CC3161 HCA1C2     1  0.288651184677  0.088756043175
CC3161   HCA2     1  0.288651184677  0.078275472531
CC3161 HCA25A     1  0.285087589805  0.078275472531
CC3161  HCA2A     1  0.288651184677  0.078275472531
CC3161 HCA2C2     1  0.285087589805  0.078275472531
CC3161   HCA3     1  0.288651184677  0.064818249282
CC3161  HCA3A     1  0.288651184677  0.064818249282
CC3161  HCA3M     1  0.288651184677  0.064818249282
CC3161    HCL     1  0.189271432669  0.089736802707
CC3161   HCP1     1  0.189271432669  0.089736802707
CC3161  HCP1M     1  0.189271432669  0.089736802707
CC3161   HCR1     1  0.240542653898  0.089736802707
CC3161     HE     1  0.301123766731  0.061020452073
CC3161    HE1     1  0.280633096214  0.073666921749
CC3161    HE2     1  0.281523994932  0.067464972838
CC3161   HEL1     1  0.280633096214  0.073666921749
CC3161   HEL2     1  0.281523994932  0.067464972838
CC3161    HF1     1  0.286869387241  0.070011711020
CC3161    HF2     1  0.285087589805  0.072469005789
CC3161   HG2P     1  0.274557166956  0.189623385225
CC3161   HGA1     1  0.288651184677  0.088756043175
CC3161   HGA2     1  0.288651184677  0.078275472531
CC3161   HGA3     1  0.288651184677  0.064818249282
CC3161   HGA4     1  0.280633096214  0.073666921749
CC3161   HGA5     1  0.281523994932  0.067464972838
CC3161   HGA6     1  0.286869387241  0.070011711020
CC3161   HGA7     1  0.285087589805  0.072469005789
CC3161 HGAAM0     1  0.283305792369  0.070011711020
CC3161 HGAAM1     1  0.283305792369  0.070011711020
CC3161 HGAAM2     1  0.281523994932  0.083680000000
CC3161   HGP1     1  0.189271432669  0.089736802707
CC3161   HGP2     1  0.189271432669  0.089736802707
CC3161   HGP3     1  0.209361198763  0.132309697301
CC3161   HGP4     1  0.189271432669  0.089736802707
CC3161   HGP5     1  0.231633666716  0.089736802707
CC3161 HGPAM1     1  0.247224394284  0.039692909190
CC3161 HGPAM2     1  0.247224394284  0.041840000000
CC3161 HGPAM3     1  0.246778944925  0.045833423612
CC3161  HGR51     1  0.290272620344  0.072469005789
CC3161  HGR52     1  0.249451641079  0.089736802707
CC3161  HGR53     1  0.231633666716  0.089736802707
CC3161  HGR61     1  0.290272620344  0.072469005789
CC3161  HGR62     1  0.267269615442  0.089736802707
CC3161  HGR63     1  0.249451641079  0.089736802707
CC3161  HGR71     1  0.290272620344  0.072469005789
CC3161     HL     1  0.231633666716  0.089736802707
CC3161  HLGA1     1  0.288651184677  0.088756043175
CC3161  HLGA2     1  0.288651184677  0.078275472531
CC3161  HLGA3     1  0.288651184677  0.064818249282
CC3161  HLGA4     1  0.280633096214  0.073666921749
CC3161  HLGP1     1  0.189271432669  0.089736802707
CC3161 HLGR52     1  0.249451641079  0.089736802707
CC3161 HLGR61     1  0.290272620344  0.072469005789
CC3161 HLGR62     1  0.267269615442  0.089736802707
CC3161    HN1     1  0.189271432669  0.089736802707
CC3161    HN2     1  0.189271432669  0.089736802707
CC3161    HN3     1  0.267269615442  0.089736802707
CC3161   HN3B     1  0.249451641079  0.089736802707
CC3161    HN4     1  0.189271432669  0.089736802707
CC3161    HN5     1  0.189271432669  0.089736802707
CC3161    HN6     1  0.286869387241  0.062058748940
CC3161    HN7     1  0.286869387241  0.062058748940
CC3161    HN8     1  0.288651184677  0.070011711020
CC3161    HN9     1  0.288651184677  0.064818249282
CC3161   HNE1     1  0.280633096214  0.073666921749
CC3161   HNE2     1  0.281523994932  0.067464972838
CC3161    HNP     1  0.290272620344  0.072469005789
CC3161   HO3P     1  0.293168041178  0.170263611896
CC3161    HOL     1  0.189271432669  0.089736802707
CC3161     HP     1  0.290272620344  0.072469005789
CC3161   HPER     1  0.189271432669  0.089736802707
CC3161    HR1     1  0.249451641079  0.089736802707
CC3161    HR2     1  0.231633666716  0.089736802707
CC3161    HR3     1  0.300054688270  0.036952087465
CC3161   HRA3     1  0.288651184677  0.064818249282
CC3161   HRM1     1  0.247224394284  0.039692909190
CC3161   HRM2     1  0.247224394284  0.041840000000
CC3161   HRP2     1  0.189271432669  0.089736802707
CC3161     HS     1  0.209361198763  0.132309697301
CC3161   HSIA     1  0.286869387241  0.062058748940
CC3161   HSIO     1  0.189271432669  0.089736802707
CC3161     HT     1  0.189271432669  0.089736802707
CC3161     HX     1  0.189271432669  0.089736802707
CC3161   IGR1     1  0.368832069310  0.301712530731
CC3161   IN3P     1  0.246449312399  0.160580590010
CC3161   LA3P     1  0.327200372211  0.182184255566
CC3161    LIT     1  0.284864865125  0.020196198771
CC3161    LPH     1  0.169270756447  0.000000000000
CC3161   LU3P     1  0.289648991242  0.166731218816
CC3161     MG     1  0.274842254546  0.051243325419
CC3161   MN2P     1  0.276508235149  0.171747976291
CC3161   MN3P     1  0.203516903172  0.148045032716
CC3161      N     1  0.334087019303  0.004184000000
CC3161     NC     1  0.334087019303  0.324091246411
CC3161    NC2     1  0.334087019303  0.187114168357
CC3161  NC2D1     1  0.307360057758  0.187114168357
CC3161  NC311     1  0.347450500075  0.088756043175
CC3161   ND3P     1  0.313587439798  0.177117175768
CC3161     NE     1  0.305578260322  0.122698965603
CC3161  NG1T1     1  0.328741626994  0.177512086349
CC3161  NG2D1     1  0.334087019303  0.187114168357
CC3161  NG2O1     1  0.334087019303  0.187114168357
CC3161  NG2P1     1  0.334087019303  0.187114168357
CC3161 NG2R43     1  0.334087019303  0.187114168357
CC3161 NG2R50     1  0.334087019303  0.187114168357
CC3161 NG2R51     1  0.334087019303  0.187114168357
CC3161 NG2R52     1  0.334087019303  0.187114168357
CC3161 NG2R53     1  0.334087019303  0.187114168357
CC3161 NG2R57     1  0.334087019303  0.187114168357
CC3161 NG2R60     1  0.337650614175  0.102486650838
CC3161 NG2R61     1  0.334087019303  0.187114168357
CC3161 NG2R62     1  0.352795892384  0.093557084179
CC3161 NG2R67     1  0.334087019303  0.187114168357
CC3161 NG2RC0     1  0.334087019303  0.187114168357
CC3161  NG2S0     1  0.334087019303  0.004184000000
CC3161  NG2S1     1  0.307360057758  0.187114168357
CC3161  NG2S2     1  0.334087019303  0.187114168357
CC3161  NG2S3     1  0.334087019303  0.187114168357
CC3161  NG301     1  0.347450500075  0.078275472531
CC3161  NG311     1  0.347450500075  0.088756043175
CC3161  NG321     1  0.346559601357  0.102486650838
CC3161  NG331     1  0.345668702638  0.110698234855
CC3161 NG3C51     1  0.334087019303  0.187114168357
CC3161  NG3N1     1  0.351904993665  0.102486650838
CC3161  NG3P0     1  0.334087019303  0.187114168357
CC3161  NG3P1     1  0.334087019303  0.187114168357
CC3161  NG3P2     1  0.334087019303  0.187114168357
CC3161  NG3P3     1  0.334087019303  0.187114168357
CC3161    NH1     1  0.307360057758  0.187114168357
CC3161    NH2     1  0.334087019303  0.187114168357
CC3161    NH3     1  0.334087019303  0.187114168357
CC3161   NH3L     1  0.334087019303  0.187114168357
CC3161    NHL     1  0.307360057758  0.187114168357
CC3161     NI     1  0.282949432881  0.994525446633
CC3161   NI2P     1  0.238787583423  0.158440517242
CC3161    NN1     1  0.334087019303  0.187114168357
CC3161   NN1C     1  0.334087019303  0.187114168357
CC3161    NN2     1  0.334087019303  0.187114168357
CC3161   NN2B     1  0.334087019303  0.187114168357
CC3161   NN2C     1  0.334087019303  0.187114168357
CC3161   NN2G     1  0.334087019303  0.187114168357
CC3161   NN2U     1  0.334087019303  0.187114168357
CC3161    NN3     1  0.334087019303  0.187114168357
CC3161   NN3A     1  0.334087019303  0.187114168357
CC3161   NN3G     1  0.334087019303  0.187114168357
CC3161   NN3I     1  0.334087019303  0.187114168357
CC3161    NN4     1  0.334087019303  0.187114168357
CC3161    NN6     1  0.334087019303  0.187114168357
CC3161    NNG     1  0.334087019303  0.187114168357
CC3161     NP     1  0.334087019303  0.187114168357
CC3161    NPH     1  0.334087019303  0.187114168357
CC3161    NR1     1  0.334087019303  0.187114168357
CC3161    NR2     1  0.334087019303  0.187114168357
CC3161    NR3     1  0.334087019303  0.187114168357
CC3161   NRC4     1  0.334087019303  0.187114168357
CC3161   NRN1     1  0.347450500075  0.280671252536
CC3161   NRN2     1  0.346559601357  0.102486650838
CC3161    NS1     1  0.334087019303  0.187114168357
CC3161    NS2     1  0.334087019303  0.187114168357
CC3161    NTL     1  0.334087019303  0.187114168357
CC3161     NY     1  0.334087019303  0.187114168357
CC3161      O     1  0.293996576986  0.144938011577
CC3161    O2L     1  0.320723538531  0.144938011577
CC3161    OAL     1  0.326959829558  0.163176000000
CC3161     OB     1  0.293996576986  0.144938011577
CC3161    OBL     1  0.293996576986  0.144938011577
CC3161     OC     1  0.320723538531  0.144938011577
CC3161  OC2D1     1  0.293996576986  0.144938011577
CC3161  OC2D2     1  0.320723538531  0.144938011577
CC3161  OC2D3     1  0.293996576986  0.144938011577
CC3161  OC2D4     1  0.293996576986  0.144938011577
CC3161  OC2DP     1  0.320723538531  0.144938011577
CC3161  OC301     1  0.316269044940  0.132309697301
CC3161  OC302     1  0.316269044940  0.132309697301
CC3161  OC303     1  0.316269044940  0.132309697301
CC3161 OC305A     1  0.316269044940  0.132309697301
CC3161  OC30A     1  0.316269044940  0.132309697301
CC3161  OC30P     1  0.326959829558  0.163176000000
CC3161  OC311     1  0.326514380198  0.183381431383
CC3161 OC311M     1  0.326514380198  0.183381431383
CC3161  OC312     1  0.326959829558  0.163176000000
CC3161 OC3C51     1  0.316269044940  0.132309697301
CC3161 OC3C5M     1  0.316269044940  0.132309697301
CC3161 OC3C61     1  0.316269044940  0.132309697301
CC3161    OCA     1  0.293996576986  0.144938011577
CC3161    OCL     1  0.320723538531  0.144938011577
CC3161  OG2D1     1  0.293996576986  0.144938011577
CC3161  OG2D2     1  0.320723538531  0.144938011577
CC3161  OG2D3     1  0.293996576986  0.144938011577
CC3161  OG2D4     1  0.320723538531  0.144938011577
CC3161  OG2D5     1  0.320010819556  0.169954883425
CC3161  OG2N1     1  0.320723538531  0.144938011577
CC3161  OG2P1     1  0.320723538531  0.144938011577
CC3161 OG2R50     1  0.320723538531  0.144938011577
CC3161  OG2S1     1  0.318906105146  0.157831660601
CC3161  OG301     1  0.316269044940  0.132309697301
CC3161  OG302     1  0.316269044940  0.132309697301
CC3161  OG303     1  0.316269044940  0.132309697301
CC3161  OG304     1  0.316269044940  0.132309697301
CC3161  OG311     1  0.326514380198  0.183381431383
CC3161  OG312     1  0.325178032121  0.144938011577
CC3161 OG3C31     1  0.316269044940  0.132309697301
CC3161 OG3C51     1  0.316269044940  0.132309697301
CC3161 OG3C61     1  0.316269044940  0.132309697301
CC3161 OG3R60     1  0.316269044940  0.132309697301
CC3161    OH1     1  0.326959829558  0.163176000000
CC3161    OHL     1  0.326959829558  0.163176000000
CC3161   OLG1     1  0.293996576986  0.144938011577
CC3161   OLG2     1  0.320723538531  0.144938011577
CC3161   OLG3     1  0.320723538531  0.144938011577
CC3161   OLG4     1  0.316269044940  0.132309697301
CC3161   OLG5     1  0.316269044940  0.132309697301
CC3161   OLG6     1  0.326514380198  0.183381431383
CC3161   OLG7     1  0.316269044940  0.132309697301
CC3161   OLG8     1  0.316269044940  0.132309697301
CC3161     OM     1  0.320723538531  0.144938011577
CC3161    ON1     1  0.320723538531  0.144938011577
CC3161   ON1C     1  0.320723538531  0.144938011577
CC3161    ON2     1  0.326959829558  0.163176000000
CC3161   ON2B     1  0.326959829558  0.163176000000
CC3161   ON2M     1  0.316269044940  0.132309697301
CC3161    ON3     1  0.320723538531  0.144938011577
CC3161    ON4     1  0.326959829558  0.163176000000
CC3161    ON5     1  0.326959829558  0.163176000000
CC3161    ON6     1  0.326959829558  0.163176000000
CC3161   ON6B     1  0.326959829558  0.163176000000
CC3161   OPER     1  0.318427692534  0.188901923946
CC3161     OS     1  0.326959829558  0.163176000000
CC3161   OSIA     1  0.326959829558  0.163176000000
CC3161   OSIE     1  0.326959829558  0.163176000000
CC3161   OSIH     1  0.326959829558  0.163176000000
CC3161    OSL     1  0.316269044940  0.132309697301
CC3161   OSLP     1  0.316269044940  0.132309697301
CC3161    OST     1  0.320010819556  0.169954883425
CC3161     OT     1  0.326799467788  0.163176000000
CC3161     OX     1  0.320723538531  0.144938011577
CC3161      P     1  0.360813980847  0.320014464673
CC3161     P2     1  0.360813980847  0.320014464673
CC3161     P3     1  0.360813980847  0.320014464673
CC3161     P4     1  0.360813980847  0.320014464673
CC3161     PB     1  0.328073452955  0.716185437439
CC3161   PB2P     1  0.325890751096  0.204716924713
CC3161     PC     1  0.360813980847  0.320014464673
CC3161     PD     1  0.294842930769  1.037598257516
CC3161   PD2P     1  0.251865976605  0.174628752363
CC3161    PG0     1  0.360813980847  0.320014464673
CC3161    PG1     1  0.360813980847  0.320014464673
CC3161    PG2     1  0.360813980847  0.320014464673
CC3161     PL     1  0.360813980847  0.320014464673
CC3161   PM3P     1  0.316910492017  0.176275053255
CC3161    POT     1  0.326403017859  0.123410269913
CC3161   PR3P     1  0.317079762773  0.178642591472
CC3161     PT     1  0.296001099102  1.168527606863
CC3161   PT2P     1  0.240284293270  0.168973521997
CC3161   PU3P     1  0.318024115415  0.179522368790
CC3161   RA2P     1  0.355459679551  0.229891668540
CC3161   RH3P     1  0.210367914314  0.149983415617
CC3161    RUB     1  0.338541512893  0.162045623205
CC3161      S     1  0.347450500075  0.280671252536
CC3161     SC     1  0.356359487256  0.286840588481
CC3161   SC3P     1  0.266993436839  0.157109060719
CC3161  SEGD1     1  0.363041227642  0.330244580395
CC3161  SG2D1     1  0.351904993665  0.314496560236
CC3161  SG2P1     1  0.355798221064  0.332305491450
CC3161  SG2P2     1  0.352314807076  0.329421919951
CC3161 SG2R50     1  0.347450500075  0.280671252536
CC3161  SG301     1  0.345223253279  0.257919081884
CC3161  SG302     1  0.365268474438  0.286840588481
CC3161  SG311     1  0.347450500075  0.280671252536
CC3161  SG3O1     1  0.356359487256  0.286840588481
CC3161  SG3O2     1  0.347450500075  0.247528778125
CC3161  SG3O3     1  0.347450500075  0.247528778125
CC3161     SI     1  0.365268474438  0.324091246411
CC3161   SIH3     1  0.365268474438  0.324091246411
CC3161     SL     1  0.356359487256  0.286840588481
CC3161     SM     1  0.345223253279  0.257919081884
CC3161   SM2P     1  0.334666103469  0.207012887251
CC3161   SM3P     1  0.308847858618  0.175378986746
CC3161   SN2P     1  0.316981763914  0.181365662197
CC3161    SOD     1  0.294954293108  0.090610410351
CC3161     SP     1  0.365268474438  0.280671252536
CC3161   SR2P     1  0.334612649546  0.200133451797
CC3161     SS     1  0.365268474438  0.286840588481
CC3161   TB3P     1  0.300678317372  0.172155203837
CC3161   TI1P     1  0.341276571958  0.266826378666
CC3161   TI3P     1  0.243117351193  0.149983415617
CC3161   TL3P     1  0.246716582015  0.168869889039
CC3161   TM3P     1  0.289417357575  0.168402751521
CC3161    U3P     1  0.320830446377  0.182184255566
CC3161    V2P     1  0.267599247968  0.167830039933
CC3161    V3P     1  0.223989755715  0.147096016316
CC3161    Y3P     1  0.295190381269  0.170263611896
CC3161   YB2P     1  0.312616360195  0.189623385225
CC3161   YB3P     1  0.284659958420  0.167569069413
CC3161     ZN     1  0.266378716724  0.209200000000
CC3162 CC3162     1  0.338541512893  0.041840000000
CC3162 CC3163     1  0.338541512893  0.041840000000
CC3162  CC31A     1  0.338541512893  0.041840000000
CC3162  CC321     1  0.338541512893  0.041840000000
CC3162 CC321C     1  0.338541512893  0.041840000000
CC3162 CC321D     1  0.338541512893  0.041840000000
CC3162  CC322     1  0.338541512893  0.041840000000
CC3162 CC322C     1  0.338541512893  0.041840000000
CC3162 CC3251     1  0.338541512893  0.041840000000
CC3162 CC325A     1  0.338541512893  0.041840000000
CC3162 CC325B     1  0.338541512893  0.041840000000
CC3162 CC3261     1  0.338541512893  0.041840000000
CC3162 CC3263     1  0.338541512893  0.041840000000
CC3162 CC326A     1  0.338541512893  0.041840000000
CC3162  CC32A     1  0.338541512893  0.041840000000
CC3162  CC331     1  0.338541512893  0.041840000000
CC3162  CC33A     1  0.338541512893  0.041840000000
CC3162    CCL     1  0.347450500075  0.110698234855
CC3162     CD     1  0.347450500075  0.110698234855
CC3162    CE1     1  0.355468588538  0.109105371453
CC3162    CE2     1  0.354577689820  0.105847757841
CC3162   CE3P     1  0.321748072056  0.179522368790
CC3162   CEL1     1  0.355468588538  0.109105371453
CC3162   CEL2     1  0.354577689820  0.105847757841
CC3162   CEL3     1  0.355468588538  0.109105371453
CC3162    CES     1  0.356359487256  0.182376331798
CC3162    CF1     1  0.338541512893  0.102486650838
CC3162    CF2     1  0.351904993665  0.085746484010
CC3162    CF3     1  0.374177461619  0.059170695450
CC3162  CG1N1     1  0.335868816739  0.177512086349
CC3162  CG1T1     1  0.333196120584  0.170981810495
CC3162  CG1T2     1  0.346782326036  0.134409982486
CC3162 CG251O     1  0.355468588538  0.109105371453
CC3162 CG252O     1  0.355468588538  0.109105371453
CC3162 CG25C1     1  0.355468588538  0.109105371453
CC3162 CG25C2     1  0.355468588538  0.109105371453
CC3162  CG2D1     1  0.355468588538  0.109105371453
CC3162 CG2D1O     1  0.355468588538  0.109105371453
CC3162  CG2D2     1  0.354577689820  0.105847757841
CC3162 CG2D2O     1  0.355468588538  0.109105371453
CC3162 CG2DC1     1  0.355468588538  0.109105371453
CC3162 CG2DC2     1  0.355468588538  0.109105371453
CC3162 CG2DC3     1  0.354577689820  0.105847757841
CC3162  CG2N1     1  0.347450500075  0.138767581228
CC3162  CG2N2     1  0.347450500075  0.138767581228
CC3162  CG2O1     1  0.347450500075  0.138767581228
CC3162  CG2O2     1  0.320723538531  0.130979917850
CC3162  CG2O3     1  0.347450500075  0.110698234855
CC3162  CG2O4     1  0.329632525712  0.102486650838
CC3162  CG2O5     1  0.347450500075  0.125520000000
CC3162  CG2O6     1  0.347450500075  0.110698234855
CC3162  CG2O7     1  0.308518226092  0.100764063435
CC3162 CG2R51     1  0.356359487256  0.093557084179
CC3162 CG2R52     1  0.365268474438  0.059170695450
CC3162 CG2R53     1  0.365268474438  0.059170695450
CC3162 CG2R57     1  0.356359487256  0.093557084179
CC3162 CG2R61     1  0.346773417049  0.110698234855
CC3162 CG2R62     1  0.338541512893  0.125520000000
CC3162 CG2R63     1  0.338541512893  0.132309697301
CC3162 CG2R64     1  0.356359487256  0.083680000000
CC3162 CG2R66     1  0.338541512893  0.110698234855
CC3162 CG2R67     1  0.346773417049  0.110698234855
CC3162 CG2R71     1  0.346987232741  0.108300154755
CC3162 CG2RC0     1  0.334977918021  0.131646486622
CC3162 CG2RC7     1  0.334977918021  0.131646486622
CC3162  CG301     1  0.338541512893  0.041840000000
CC3162  CG302     1  0.374177461619  0.059170695450
CC3162  CG311     1  0.338541512893  0.041840000000
CC3162  CG312     1  0.351904993665  0.085746484010
CC3162  CG314     1  0.338541512893  0.041840000000
CC3162  CG321     1  0.338541512893  0.041840000000
CC3162  CG322     1  0.338541512893  0.102486650838
CC3162  CG323     1  0.365268474438  0.138767581228
CC3162  CG324     1  0.338541512893  0.041840000000
CC3162  CG331     1  0.338541512893  0.041840000000
CC3162  CG334     1  0.338541512893  0.041840000000
CC3162 CG3AM0     1  0.344777803920  0.110698234855
CC3162 CG3AM1     1  0.345668702638  0.116852760686
CC3162 CG3AM2     1  0.346559601357  0.118341390899
CC3162 CG3C31     1  0.338541512893  0.041840000000
CC3162 CG3C41     1  0.338541512893  0.041840000000
CC3162 CG3C50     1  0.338541512893  0.041840000000
CC3162 CG3C51     1  0.338541512893  0.041840000000
CC3162 CG3C52     1  0.338541512893  0.041840000000
CC3162 CG3C53     1  0.338541512893  0.041840000000
CC3162 CG3C54     1  0.338541512893  0.041840000000
CC3162 CG3RC1     1  0.338541512893  0.041840000000
CC3162     CL     1  0.347450500075  0.110698234855
CC3162    CLA     1  0.371504765465  0.162045623205
CC3162   CLAL     1  0.339272049842  0.072469005789
CC3162  CLG01     1  0.355468588538  0.109105371453
CC3162  CLG02     1  0.355468588538  0.109105371453
CC3162  CLG03     1  0.320723538531  0.130979917850
CC3162  CLG04     1  0.347450500075  0.110698234855
CC3162  CLG05     1  0.329632525712  0.102486650838
CC3162  CLG06     1  0.346773417049  0.110698234855
CC3162 CLG06A     1  0.346773417049  0.110698234855
CC3162 CLG06B     1  0.346773417049  0.110698234855
CC3162  CLG07     1  0.338541512893  0.125520000000
CC3162  CLG08     1  0.338541512893  0.132309697301
CC3162  CLG09     1  0.346773417049  0.110698234855
CC3162  CLG10     1  0.334977918021  0.131646486622
CC3162  CLG11     1  0.338541512893  0.041840000000
CC3162  CLG12     1  0.338541512893  0.041840000000
CC3162  CLG13     1  0.338541512893  0.041840000000
CC3162  CLG14     1  0.338541512893  0.041840000000
CC3162  CLG15     1  0.338541512893  0.041840000000
CC3162  CLG16     1  0.338541512893  0.041840000000
CC3162  CLGA1     1  0.339432411611  0.245040988571
CC3162  CLGA3     1  0.339432411611  0.232955260941
CC3162  CLGR1     1  0.334977918021  0.200657590935
CC3162     CM     1  0.356359487256  0.138767581228
CC3162     CN     1  0.325178032121  0.187114168357
CC3162    CN1     1  0.338541512893  0.132309697301
CC3162   CN1A     1  0.347450500075  0.110698234855
CC3162   CN1T     1  0.338541512893  0.132309697301
CC3162    CN2     1  0.338541512893  0.132309697301
CC3162    CN3     1  0.338541512893  0.125520000000
CC3162   CN3A     1  0.329632525712  0.177512086349
CC3162   CN3B     1  0.329632525712  0.177512086349
CC3162   CN3C     1  0.329632525712  0.177512086349
CC3162   CN3D     1  0.338541512893  0.125520000000
CC3162   CN3T     1  0.338541512893  0.125520000000
CC3162    CN4     1  0.338541512893  0.114583559030
CC3162    CN5     1  0.338541512893  0.114583559030
CC3162   CN5G     1  0.338541512893  0.114583559030
CC3162    CN6     1  0.338541512893  0.041840000000
CC3162    CN7     1  0.338541512893  0.041840000000
CC3162   CN7B     1  0.338541512893  0.041840000000
CC3162   CN7E     1  0.338541512893  0.041840000000
CC3162    CN8     1  0.338541512893  0.041840000000
CC3162   CN8B     1  0.338541512893  0.041840000000
CC3162    CN9     1  0.338541512893  0.041840000000
CC3162    CNA     1  0.346773417049  0.110698234855
CC3162   CNA2     1  0.338541512893  0.110698234855
CC3162   CNE1     1  0.355468588538  0.109105371453
CC3162   CNE2     1  0.354577689820  0.105847757841
CC3162    CNG     1  0.347450500075  0.138767581228
CC3162   CO2P     1  0.251910521541  0.164138698618
CC3162   CO3P     1  0.192264852362  0.144393471099
CC3162    COA     1  0.347450500075  0.138767581228
CC3162    CP1     1  0.338541512893  0.041840000000
CC3162    CP2     1  0.338541512893  0.041840000000
CC3162    CP3     1  0.338541512893  0.041840000000
CC3162    CPA     1  0.329632525712  0.125520000000
CC3162    CPB     1  0.329632525712  0.125520000000
CC3162   CPD1     1  0.338541512893  0.041840000000
CC3162   CPH1     1  0.329632525712  0.093557084179
CC3162   CPH2     1  0.329632525712  0.093557084179
CC3162    CPM     1  0.329632525712  0.125520000000
CC3162    CPT     1  0.334977918021  0.131646486622
CC3162   CR2P     1  0.263634748672  0.170828164985
CC3162   CR33     1  0.338541512893  0.041840000000
CC3162   CR3P     1  0.244382427373  0.145299904804
CC3162   CRL1     1  0.338541512893  0.041840000000
CC3162   CRL2     1  0.338541512893  0.041840000000
CC3162   CRN1     1  0.347450500075  0.138767581228
CC3162     CS     1  0.365268474438  0.138767581228
CC3162    CST     1  0.308518226092  0.100764063435
CC3162     CT     1  0.338541512893  0.041840000000
CC3162    CT1     1  0.338541512893  0.041840000000
CC3162   CT1X     1  0.338541512893  0.041840000000
CC3162    CT2     1  0.338541512893  0.041840000000
CC3162   CT2A     1  0.338541512893  0.041840000000
CC3162   CT2P     1  0.338541512893  0.041840000000
CC3162   CT2X     1  0.338541512893  0.041840000000
CC3162    CT3     1  0.338541512893  0.041840000000
CC3162   CT3X     1  0.338541512893  0.041840000000
CC3162   CTD1     1  0.338541512893  0.041840000000
CC3162   CTL1     1  0.338541512893  0.041840000000
CC3162   CTL2     1  0.338541512893  0.041840000000
CC3162   CTL3     1  0.338541512893  0.041840000000
CC3162   CTL5     1  0.338541512893  0.041840000000
CC3162   CTO1     1  0.338541512893  0.041840000000
CC3162   CTO2     1  0.338541512893  0.041840000000
CC3162     CU     1  0.285800308779  0.908997471504
CC3162   CU1P     1  0.246066225950  0.180057894334
CC3162   CU2P     1  0.233869822499  0.162315474555
CC3162     CY     1  0.346559601357  0.113045454929
CC3162    DUM     1  0.169270756447  0.000000000000
CC3162   DY3P     1  0.297952167295  0.171135318061
CC3162   ER3P     1  0.291083338178  0.169232326746
CC3162   EU2P     1  0.333231756533  0.203602227414
CC3162   EU3P     1  0.304954631219  0.174528477447
CC3162     F1     1  0.314487247504  0.153729976257
CC3162     F2     1  0.314487247504  0.135577095411
CC3162     F3     1  0.311814551349  0.130309939452
CC3162     FA     1  0.320723538531  0.144938011577
CC3162     FE     1  0.227179173126  0.000000000000
CC3162   FE2P     1  0.265496726993  0.167098295383
CC3162   FE3P     1  0.219722350855  0.148045032716
CC3162   FGA1     1  0.314487247504  0.153729976257
CC3162   FGA2     1  0.314487247504  0.135577095411
CC3162   FGA3     1  0.311814551349  0.130309939452
CC3162   FGP1     1  0.311814551349  0.130309939452
CC3162   FGR1     1  0.320723538531  0.144938011577
CC3162    FNA     1  0.320723538531  0.144938011577
CC3162   GA3P     1  0.189485248361  0.145299904804
CC3162   GD3P     1  0.303351013527  0.173673803114
CC3162      H     1  0.189271432669  0.089736802707
CC3162     HA     1  0.286869387241  0.062058748940
CC3162    HA1     1  0.288651184677  0.088756043175
CC3162    HA2     1  0.288651184677  0.077149148019
CC3162    HA3     1  0.288651184677  0.064818249282
CC3162    HAL     1  0.286869387241  0.062058748940
CC3162   HAL1     1  0.286869387241  0.062058748940
CC3162   HAL2     1  0.288651184677  0.070011711020
CC3162   HAL3     1  0.288651184677  0.064818249282
CC3162     HB     1  0.286869387241  0.062058748940
CC3162    HB1     1  0.286869387241  0.062058748940
CC3162    HB2     1  0.288651184677  0.070011711020
CC3162    HBL     1  0.286869387241  0.062058748940
CC3162     HC     1  0.189271432669  0.089736802707
CC3162   HCA1     1  0.288651184677  0.088756043175
CC3162  HCA1A     1  0.288651184677  0.088756043175
CC3162 HCA1C2     1  0.288651184677  0.088756043175
CC3162   HCA2     1  0.288651184677  0.078275472531
CC3162 HCA25A     1  0.285087589805  0.078275472531
CC3162  HCA2A     1  0.288651184677  0.078275472531
CC3162 HCA2C2     1  0.285087589805  0.078275472531
CC3162   HCA3     1  0.288651184677  0.064818249282
CC3162  HCA3A     1  0.288651184677  0.064818249282
CC3162  HCA3M     1  0.288651184677  0.064818249282
CC3162    HCL     1  0.189271432669  0.089736802707
CC3162   HCP1     1  0.189271432669  0.089736802707
CC3162  HCP1M     1  0.189271432669  0.089736802707
CC3162   HCR1     1  0.240542653898  0.089736802707
CC3162     HE     1  0.301123766731  0.061020452073
CC3162    HE1     1  0.280633096214  0.073666921749
CC3162    HE2     1  0.281523994932  0.067464972838
CC3162   HEL1     1  0.280633096214  0.073666921749
CC3162   HEL2     1  0.281523994932  0.067464972838
CC3162    HF1     1  0.286869387241  0.070011711020
CC3162    HF2     1  0.285087589805  0.072469005789
CC3162   HG2P     1  0.274557166956  0.189623385225
CC3162   HGA1     1  0.288651184677  0.088756043175
CC3162   HGA2     1  0.288651184677  0.078275472531
CC3162   HGA3     1  0.288651184677  0.064818249282
CC3162   HGA4     1  0.280633096214  0.073666921749
CC3162   HGA5     1  0.281523994932  0.067464972838
CC3162   HGA6     1  0.286869387241  0.070011711020
CC3162   HGA7     1  0.285087589805  0.072469005789
CC3162 HGAAM0     1  0.283305792369  0.070011711020
CC3162 HGAAM1     1  0.283305792369  0.070011711020
CC3162 HGAAM2     1  0.281523994932  0.083680000000
CC3162   HGP1     1  0.189271432669  0.089736802707
CC3162   HGP2     1  0.189271432669  0.089736802707
CC3162   HGP3     1  0.209361198763  0.132309697301
CC3162   HGP4     1  0.189271432669  0.089736802707
CC3162   HGP5     1  0.231633666716  0.089736802707
CC3162 HGPAM1     1  0.247224394284  0.039692909190
CC3162 HGPAM2     1  0.247224394284  0.041840000000
CC3162 HGPAM3     1  0.246778944925  0.045833423612
CC3162  HGR51     1  0.290272620344  0.072469005789
CC3162  HGR52     1  0.249451641079  0.089736802707
CC3162  HGR53     1  0.231633666716  0.089736802707
CC3162  HGR61     1  0.290272620344  0.072469005789
CC3162  HGR62     1  0.267269615442  0.089736802707
CC3162  HGR63     1  0.249451641079  0.089736802707
CC3162  HGR71     1  0.290272620344  0.072469005789
CC3162     HL     1  0.231633666716  0.089736802707
CC3162  HLGA1     1  0.288651184677  0.088756043175
CC3162  HLGA2     1  0.288651184677  0.078275472531
CC3162  HLGA3     1  0.288651184677  0.064818249282
CC3162  HLGA4     1  0.280633096214  0.073666921749
CC3162  HLGP1     1  0.189271432669  0.089736802707
CC3162 HLGR52     1  0.249451641079  0.089736802707
CC3162 HLGR61     1  0.290272620344  0.072469005789
CC3162 HLGR62     1  0.267269615442  0.089736802707
CC3162    HN1     1  0.189271432669  0.089736802707
CC3162    HN2     1  0.189271432669  0.089736802707
CC3162    HN3     1  0.267269615442  0.089736802707
CC3162   HN3B     1  0.249451641079  0.089736802707
CC3162    HN4     1  0.189271432669  0.089736802707
CC3162    HN5     1  0.189271432669  0.089736802707
CC3162    HN6     1  0.286869387241  0.062058748940
CC3162    HN7     1  0.286869387241  0.062058748940
CC3162    HN8     1  0.288651184677  0.070011711020
CC3162    HN9     1  0.288651184677  0.064818249282
CC3162   HNE1     1  0.280633096214  0.073666921749
CC3162   HNE2     1  0.281523994932  0.067464972838
CC3162    HNP     1  0.290272620344  0.072469005789
CC3162   HO3P     1  0.293168041178  0.170263611896
CC3162    HOL     1  0.189271432669  0.089736802707
CC3162     HP     1  0.290272620344  0.072469005789
CC3162   HPER     1  0.189271432669  0.089736802707
CC3162    HR1     1  0.249451641079  0.089736802707
CC3162    HR2     1  0.231633666716  0.089736802707
CC3162    HR3     1  0.300054688270  0.036952087465
CC3162   HRA3     1  0.288651184677  0.064818249282
CC3162   HRM1     1  0.247224394284  0.039692909190
CC3162   HRM2     1  0.247224394284  0.041840000000
CC3162   HRP2     1  0.189271432669  0.089736802707
CC3162     HS     1  0.209361198763  0.132309697301
CC3162   HSIA     1  0.286869387241  0.062058748940
CC3162   HSIO     1  0.189271432669  0.089736802707
CC3162     HT     1  0.189271432669  0.089736802707
CC3162     HX     1  0.189271432669  0.089736802707
CC3162   IGR1     1  0.368832069310  0.301712530731
CC3162   IN3P     1  0.246449312399  0.160580590010
CC3162   LA3P     1  0.327200372211  0.182184255566
CC3162    LIT     1  0.284864865125  0.020196198771
CC3162    LPH     1  0.169270756447  0.000000000000
CC3162   LU3P     1  0.289648991242  0.166731218816
CC3162     MG     1  0.274842254546  0.051243325419
CC3162   MN2P     1  0.276508235149  0.171747976291
CC3162   MN3P     1  0.203516903172  0.148045032716
CC3162      N     1  0.334087019303  0.004184000000
CC3162     NC     1  0.334087019303  0.324091246411
CC3162    NC2     1  0.334087019303  0.187114168357
CC3162  NC2D1     1  0.307360057758  0.187114168357
CC3162  NC311     1  0.347450500075  0.088756043175
CC3162   ND3P     1  0.313587439798  0.177117175768
CC3162     NE     1  0.305578260322  0.122698965603
CC3162  NG1T1     1  0.328741626994  0.177512086349
CC3162  NG2D1     1  0.334087019303  0.187114168357
CC3162  NG2O1     1  0.334087019303  0.187114168357
CC3162  NG2P1     1  0.334087019303  0.187114168357
CC3162 NG2R43     1  0.334087019303  0.187114168357
CC3162 NG2R50     1  0.334087019303  0.187114168357
CC3162 NG2R51     1  0.334087019303  0.187114168357
CC3162 NG2R52     1  0.334087019303  0.187114168357
CC3162 NG2R53     1  0.334087019303  0.187114168357
CC3162 NG2R57     1  0.334087019303  0.187114168357
CC3162 NG2R60     1  0.337650614175  0.102486650838
CC3162 NG2R61     1  0.334087019303  0.187114168357
CC3162 NG2R62     1  0.352795892384  0.093557084179
CC3162 NG2R67     1  0.334087019303  0.187114168357
CC3162 NG2RC0     1  0.334087019303  0.187114168357
CC3162  NG2S0     1  0.334087019303  0.004184000000
CC3162  NG2S1     1  0.307360057758  0.187114168357
CC3162  NG2S2     1  0.334087019303  0.187114168357
CC3162  NG2S3     1  0.334087019303  0.187114168357
CC3162  NG301     1  0.347450500075  0.078275472531
CC3162  NG311     1  0.347450500075  0.088756043175
CC3162  NG321     1  0.346559601357  0.102486650838
CC3162  NG331     1  0.345668702638  0.110698234855
CC3162 NG3C51     1  0.334087019303  0.187114168357
CC3162  NG3N1     1  0.351904993665  0.102486650838
CC3162  NG3P0     1  0.334087019303  0.187114168357
CC3162  NG3P1     1  0.334087019303  0.187114168357
CC3162  NG3P2     1  0.334087019303  0.187114168357
CC3162  NG3P3     1  0.334087019303  0.187114168357
CC3162    NH1     1  0.307360057758  0.187114168357
CC3162    NH2     1  0.334087019303  0.187114168357
CC3162    NH3     1  0.334087019303  0.187114168357
CC3162   NH3L     1  0.334087019303  0.187114168357
CC3162    NHL     1  0.307360057758  0.187114168357
CC3162     NI     1  0.282949432881  0.994525446633
CC3162   NI2P     1  0.238787583423  0.158440517242
CC3162    NN1     1  0.334087019303  0.187114168357
CC3162   NN1C     1  0.334087019303  0.187114168357
CC3162    NN2     1  0.334087019303  0.187114168357
CC3162   NN2B     1  0.334087019303  0.187114168357
CC3162   NN2C     1  0.334087019303  0.187114168357
CC3162   NN2G     1  0.334087019303  0.187114168357
CC3162   NN2U     1  0.334087019303  0.187114168357
CC3162    NN3     1  0.334087019303  0.187114168357
CC3162   NN3A     1  0.334087019303  0.187114168357
CC3162   NN3G     1  0.334087019303  0.187114168357
CC3162   NN3I     1  0.334087019303  0.187114168357
CC3162    NN4     1  0.334087019303  0.187114168357
CC3162    NN6     1  0.334087019303  0.187114168357
CC3162    NNG     1  0.334087019303  0.187114168357
CC3162     NP     1  0.334087019303  0.187114168357
CC3162    NPH     1  0.334087019303  0.187114168357
CC3162    NR1     1  0.334087019303  0.187114168357
CC3162    NR2     1  0.334087019303  0.187114168357
CC3162    NR3     1  0.334087019303  0.187114168357
CC3162   NRC4     1  0.334087019303  0.187114168357
CC3162   NRN1     1  0.347450500075  0.280671252536
CC3162   NRN2     1  0.346559601357  0.102486650838
CC3162    NS1     1  0.334087019303  0.187114168357
CC3162    NS2     1  0.334087019303  0.187114168357
CC3162    NTL     1  0.334087019303  0.187114168357
CC3162     NY     1  0.334087019303  0.187114168357
CC3162      O     1  0.293996576986  0.144938011577
CC3162    O2L     1  0.320723538531  0.144938011577
CC3162    OAL     1  0.326959829558  0.163176000000
CC3162     OB     1  0.293996576986  0.144938011577
CC3162    OBL     1  0.293996576986  0.144938011577
CC3162     OC     1  0.320723538531  0.144938011577
CC3162  OC2D1     1  0.293996576986  0.144938011577
CC3162  OC2D2     1  0.320723538531  0.144938011577
CC3162  OC2D3     1  0.293996576986  0.144938011577
CC3162  OC2D4     1  0.293996576986  0.144938011577
CC3162  OC2DP     1  0.320723538531  0.144938011577
CC3162  OC301     1  0.316269044940  0.132309697301
CC3162  OC302     1  0.316269044940  0.132309697301
CC3162  OC303     1  0.316269044940  0.132309697301
CC3162 OC305A     1  0.316269044940  0.132309697301
CC3162  OC30A     1  0.316269044940  0.132309697301
CC3162  OC30P     1  0.326959829558  0.163176000000
CC3162  OC311     1  0.326514380198  0.183381431383
CC3162 OC311M     1  0.326514380198  0.183381431383
CC3162  OC312     1  0.326959829558  0.163176000000
CC3162 OC3C51     1  0.316269044940  0.132309697301
CC3162 OC3C5M     1  0.316269044940  0.132309697301
CC3162 OC3C61     1  0.316269044940  0.132309697301
CC3162    OCA     1  0.293996576986  0.144938011577
CC3162    OCL     1  0.320723538531  0.144938011577
CC3162  OG2D1     1  0.293996576986  0.144938011577
CC3162  OG2D2     1  0.320723538531  0.144938011577
CC3162  OG2D3     1  0.293996576986  0.144938011577
CC3162  OG2D4     1  0.320723538531  0.144938011577
CC3162  OG2D5     1  0.320010819556  0.169954883425
CC3162  OG2N1     1  0.320723538531  0.144938011577
CC3162  OG2P1     1  0.320723538531  0.144938011577
CC3162 OG2R50     1  0.320723538531  0.144938011577
CC3162  OG2S1     1  0.318906105146  0.157831660601
CC3162  OG301     1  0.316269044940  0.132309697301
CC3162  OG302     1  0.316269044940  0.132309697301
CC3162  OG303     1  0.316269044940  0.132309697301
CC3162  OG304     1  0.316269044940  0.132309697301
CC3162  OG311     1  0.326514380198  0.183381431383
CC3162  OG312     1  0.325178032121  0.144938011577
CC3162 OG3C31     1  0.316269044940  0.132309697301
CC3162 OG3C51     1  0.316269044940  0.132309697301
CC3162 OG3C61     1  0.316269044940  0.132309697301
CC3162 OG3R60     1  0.316269044940  0.132309697301
CC3162    OH1     1  0.326959829558  0.163176000000
CC3162    OHL     1  0.326959829558  0.163176000000
CC3162   OLG1     1  0.293996576986  0.144938011577
CC3162   OLG2     1  0.320723538531  0.144938011577
CC3162   OLG3     1  0.320723538531  0.144938011577
CC3162   OLG4     1  0.316269044940  0.132309697301
CC3162   OLG5     1  0.316269044940  0.132309697301
CC3162   OLG6     1  0.326514380198  0.183381431383
CC3162   OLG7     1  0.316269044940  0.132309697301
CC3162   OLG8     1  0.316269044940  0.132309697301
CC3162     OM     1  0.320723538531  0.144938011577
CC3162    ON1     1  0.320723538531  0.144938011577
CC3162   ON1C     1  0.320723538531  0.144938011577
CC3162    ON2     1  0.326959829558  0.163176000000
CC3162   ON2B     1  0.326959829558  0.163176000000
CC3162   ON2M     1  0.316269044940  0.132309697301
CC3162    ON3     1  0.320723538531  0.144938011577
CC3162    ON4     1  0.326959829558  0.163176000000
CC3162    ON5     1  0.326959829558  0.163176000000
CC3162    ON6     1  0.326959829558  0.163176000000
CC3162   ON6B     1  0.326959829558  0.163176000000
CC3162   OPER     1  0.318427692534  0.188901923946
CC3162     OS     1  0.326959829558  0.163176000000
CC3162   OSIA     1  0.326959829558  0.163176000000
CC3162   OSIE     1  0.326959829558  0.163176000000
CC3162   OSIH     1  0.326959829558  0.163176000000
CC3162    OSL     1  0.316269044940  0.132309697301
CC3162   OSLP     1  0.316269044940  0.132309697301
CC3162    OST     1  0.320010819556  0.169954883425
CC3162     OT     1  0.326799467788  0.163176000000
CC3162     OX     1  0.320723538531  0.144938011577
CC3162      P     1  0.360813980847  0.320014464673
CC3162     P2     1  0.360813980847  0.320014464673
CC3162     P3     1  0.360813980847  0.320014464673
CC3162     P4     1  0.360813980847  0.320014464673
CC3162     PB     1  0.328073452955  0.716185437439
CC3162   PB2P     1  0.325890751096  0.204716924713
CC3162     PC     1  0.360813980847  0.320014464673
CC3162     PD     1  0.294842930769  1.037598257516
CC3162   PD2P     1  0.251865976605  0.174628752363
CC3162    PG0     1  0.360813980847  0.320014464673
CC3162    PG1     1  0.360813980847  0.320014464673
CC3162    PG2     1  0.360813980847  0.320014464673
CC3162     PL     1  0.360813980847  0.320014464673
CC3162   PM3P     1  0.316910492017  0.176275053255
CC3162    POT     1  0.326403017859  0.123410269913
CC3162   PR3P     1  0.317079762773  0.178642591472
CC3162     PT     1  0.296001099102  1.168527606863
CC3162   PT2P     1  0.240284293270  0.168973521997
CC3162   PU3P     1  0.318024115415  0.179522368790
CC3162   RA2P     1  0.355459679551  0.229891668540
CC3162   RH3P     1  0.210367914314  0.149983415617
CC3162    RUB     1  0.338541512893  0.162045623205
CC3162      S     1  0.347450500075  0.280671252536
CC3162     SC     1  0.356359487256  0.286840588481
CC3162   SC3P     1  0.266993436839  0.157109060719
CC3162  SEGD1     1  0.363041227642  0.330244580395
CC3162  SG2D1     1  0.351904993665  0.314496560236
CC3162  SG2P1     1  0.355798221064  0.332305491450
CC3162  SG2P2     1  0.352314807076  0.329421919951
CC3162 SG2R50     1  0.347450500075  0.280671252536
CC3162  SG301     1  0.345223253279  0.257919081884
CC3162  SG302     1  0.365268474438  0.286840588481
CC3162  SG311     1  0.347450500075  0.280671252536
CC3162  SG3O1     1  0.356359487256  0.286840588481
CC3162  SG3O2     1  0.347450500075  0.247528778125
CC3162  SG3O3     1  0.347450500075  0.247528778125
CC3162     SI     1  0.365268474438  0.324091246411
CC3162   SIH3     1  0.365268474438  0.324091246411
CC3162     SL     1  0.356359487256  0.286840588481
CC3162     SM     1  0.345223253279  0.257919081884
CC3162   SM2P     1  0.334666103469  0.207012887251
CC3162   SM3P     1  0.308847858618  0.175378986746
CC3162   SN2P     1  0.316981763914  0.181365662197
CC3162    SOD     1  0.294954293108  0.090610410351
CC3162     SP     1  0.365268474438  0.280671252536
CC3162   SR2P     1  0.334612649546  0.200133451797
CC3162     SS     1  0.365268474438  0.286840588481
CC3162   TB3P     1  0.300678317372  0.172155203837
CC3162   TI1P     1  0.341276571958  0.266826378666
CC3162   TI3P     1  0.243117351193  0.149983415617
CC3162   TL3P     1  0.246716582015  0.168869889039
CC3162   TM3P     1  0.289417357575  0.168402751521
CC3162    U3P     1  0.320830446377  0.182184255566
CC3162    V2P     1  0.267599247968  0.167830039933
CC3162    V3P     1  0.223989755715  0.147096016316
CC3162    Y3P     1  0.295190381269  0.170263611896
CC3162   YB2P     1  0.312616360195  0.189623385225
CC3162   YB3P     1  0.284659958420  0.167569069413
CC3162     ZN     1  0.266378716724  0.209200000000
CC3163 CC3163     1  0.338541512893  0.041840000000
CC3163  CC31A     1  0.338541512893  0.041840000000
CC3163  CC321     1  0.338541512893  0.041840000000
CC3163 CC321C     1  0.338541512893  0.041840000000
CC3163 CC321D     1  0.338541512893  0.041840000000
CC3163  CC322     1  0.338541512893  0.041840000000
CC3163 CC322C     1  0.338541512893  0.041840000000
CC3163 CC3251     1  0.338541512893  0.041840000000
CC3163 CC325A     1  0.338541512893  0.041840000000
CC3163 CC325B     1  0.338541512893  0.041840000000
CC3163 CC3261     1  0.338541512893  0.041840000000
CC3163 CC3263     1  0.338541512893  0.041840000000
CC3163 CC326A     1  0.338541512893  0.041840000000
CC3163  CC32A     1  0.338541512893  0.041840000000
CC3163  CC331     1  0.338541512893  0.041840000000
CC3163  CC33A     1  0.338541512893  0.041840000000
CC3163    CCL     1  0.347450500075  0.110698234855
CC3163     CD     1  0.347450500075  0.110698234855
CC3163    CE1     1  0.355468588538  0.109105371453
CC3163    CE2     1  0.354577689820  0.105847757841
CC3163   CE3P     1  0.321748072056  0.179522368790
CC3163   CEL1     1  0.355468588538  0.109105371453
CC3163   CEL2     1  0.354577689820  0.105847757841
CC3163   CEL3     1  0.355468588538  0.109105371453
CC3163    CES     1  0.356359487256  0.182376331798
CC3163    CF1     1  0.338541512893  0.102486650838
CC3163    CF2     1  0.351904993665  0.085746484010
CC3163    CF3     1  0.374177461619  0.059170695450
CC3163  CG1N1     1  0.335868816739  0.177512086349
CC3163  CG1T1     1  0.333196120584  0.170981810495
CC3163  CG1T2     1  0.346782326036  0.134409982486
CC3163 CG251O     1  0.355468588538  0.109105371453
CC3163 CG252O     1  0.355468588538  0.109105371453
CC3163 CG25C1     1  0.355468588538  0.109105371453
CC3163 CG25C2     1  0.355468588538  0.109105371453
CC3163  CG2D1     1  0.355468588538  0.109105371453
CC3163 CG2D1O     1  0.355468588538  0.109105371453
CC3163  CG2D2     1  0.354577689820  0.105847757841
CC3163 CG2D2O     1  0.355468588538  0.109105371453
CC3163 CG2DC1     1  0.355468588538  0.109105371453
CC3163 CG2DC2     1  0.355468588538  0.109105371453
CC3163 CG2DC3     1  0.354577689820  0.105847757841
CC3163  CG2N1     1  0.347450500075  0.138767581228
CC3163  CG2N2     1  0.347450500075  0.138767581228
CC3163  CG2O1     1  0.347450500075  0.138767581228
CC3163  CG2O2     1  0.320723538531  0.130979917850
CC3163  CG2O3     1  0.347450500075  0.110698234855
CC3163  CG2O4     1  0.329632525712  0.102486650838
CC3163  CG2O5     1  0.347450500075  0.125520000000
CC3163  CG2O6     1  0.347450500075  0.110698234855
CC3163  CG2O7     1  0.308518226092  0.100764063435
CC3163 CG2R51     1  0.356359487256  0.093557084179
CC3163 CG2R52     1  0.365268474438  0.059170695450
CC3163 CG2R53     1  0.365268474438  0.059170695450
CC3163 CG2R57     1  0.356359487256  0.093557084179
CC3163 CG2R61     1  0.346773417049  0.110698234855
CC3163 CG2R62     1  0.338541512893  0.125520000000
CC3163 CG2R63     1  0.338541512893  0.132309697301
CC3163 CG2R64     1  0.356359487256  0.083680000000
CC3163 CG2R66     1  0.338541512893  0.110698234855
CC3163 CG2R67     1  0.346773417049  0.110698234855
CC3163 CG2R71     1  0.346987232741  0.108300154755
CC3163 CG2RC0     1  0.334977918021  0.131646486622
CC3163 CG2RC7     1  0.334977918021  0.131646486622
CC3163  CG301     1  0.338541512893  0.041840000000
CC3163  CG302     1  0.374177461619  0.059170695450
CC3163  CG311     1  0.338541512893  0.041840000000
CC3163  CG312     1  0.351904993665  0.085746484010
CC3163  CG314     1  0.338541512893  0.041840000000
CC3163  CG321     1  0.338541512893  0.041840000000
CC3163  CG322     1  0.338541512893  0.102486650838
CC3163  CG323     1  0.365268474438  0.138767581228
CC3163  CG324     1  0.338541512893  0.041840000000
CC3163  CG331     1  0.338541512893  0.041840000000
CC3163  CG334     1  0.338541512893  0.041840000000
CC3163 CG3AM0     1  0.344777803920  0.110698234855
CC3163 CG3AM1     1  0.345668702638  0.116852760686
CC3163 CG3AM2     1  0.346559601357  0.118341390899
CC3163 CG3C31     1  0.338541512893  0.041840000000
CC3163 CG3C41     1  0.338541512893  0.041840000000
CC3163 CG3C50     1  0.338541512893  0.041840000000
CC3163 CG3C51     1  0.338541512893  0.041840000000
CC3163 CG3C52     1  0.338541512893  0.041840000000
CC3163 CG3C53     1  0.338541512893  0.041840000000
CC3163 CG3C54     1  0.338541512893  0.041840000000
CC3163 CG3RC1     1  0.338541512893  0.041840000000
CC3163     CL     1  0.347450500075  0.110698234855
CC3163    CLA     1  0.371504765465  0.162045623205
CC3163   CLAL     1  0.339272049842  0.072469005789
CC3163  CLG01     1  0.355468588538  0.109105371453
CC3163  CLG02     1  0.355468588538  0.109105371453
CC3163  CLG03     1  0.320723538531  0.130979917850
CC3163  CLG04     1  0.347450500075  0.110698234855
CC3163  CLG05     1  0.329632525712  0.102486650838
CC3163  CLG06     1  0.346773417049  0.110698234855
CC3163 CLG06A     1  0.346773417049  0.110698234855
CC3163 CLG06B     1  0.346773417049  0.110698234855
CC3163  CLG07     1  0.338541512893  0.125520000000
CC3163  CLG08     1  0.338541512893  0.132309697301
CC3163  CLG09     1  0.346773417049  0.110698234855
CC3163  CLG10     1  0.334977918021  0.131646486622
CC3163  CLG11     1  0.338541512893  0.041840000000
CC3163  CLG12     1  0.338541512893  0.041840000000
CC3163  CLG13     1  0.338541512893  0.041840000000
CC3163  CLG14     1  0.338541512893  0.041840000000
CC3163  CLG15     1  0.338541512893  0.041840000000
CC3163  CLG16     1  0.338541512893  0.041840000000
CC3163  CLGA1     1  0.339432411611  0.245040988571
CC3163  CLGA3     1  0.339432411611  0.232955260941
CC3163  CLGR1     1  0.334977918021  0.200657590935
CC3163     CM     1  0.356359487256  0.138767581228
CC3163     CN     1  0.325178032121  0.187114168357
CC3163    CN1     1  0.338541512893  0.132309697301
CC3163   CN1A     1  0.347450500075  0.110698234855
CC3163   CN1T     1  0.338541512893  0.132309697301
CC3163    CN2     1  0.338541512893  0.132309697301
CC3163    CN3     1  0.338541512893  0.125520000000
CC3163   CN3A     1  0.329632525712  0.177512086349
CC3163   CN3B     1  0.329632525712  0.177512086349
CC3163   CN3C     1  0.329632525712  0.177512086349
CC3163   CN3D     1  0.338541512893  0.125520000000
CC3163   CN3T     1  0.338541512893  0.125520000000
CC3163    CN4     1  0.338541512893  0.114583559030
CC3163    CN5     1  0.338541512893  0.114583559030
CC3163   CN5G     1  0.338541512893  0.114583559030
CC3163    CN6     1  0.338541512893  0.041840000000
CC3163    CN7     1  0.338541512893  0.041840000000
CC3163   CN7B     1  0.338541512893  0.041840000000
CC3163   CN7E     1  0.338541512893  0.041840000000
CC3163    CN8     1  0.338541512893  0.041840000000
CC3163   CN8B     1  0.338541512893  0.041840000000
CC3163    CN9     1  0.338541512893  0.041840000000
CC3163    CNA     1  0.346773417049  0.110698234855
CC3163   CNA2     1  0.338541512893  0.110698234855
CC3163   CNE1     1  0.355468588538  0.109105371453
CC3163   CNE2     1  0.354577689820  0.105847757841
CC3163    CNG     1  0.347450500075  0.138767581228
CC3163   CO2P     1  0.251910521541  0.164138698618
CC3163   CO3P     1  0.192264852362  0.144393471099
CC3163    COA     1  0.347450500075  0.138767581228
CC3163    CP1     1  0.338541512893  0.041840000000
CC3163    CP2     1  0.338541512893  0.041840000000
CC3163    CP3     1  0.338541512893  0.041840000000
CC3163    CPA     1  0.329632525712  0.125520000000
CC3163    CPB     1  0.329632525712  0.125520000000
CC3163   CPD1     1  0.338541512893  0.041840000000
CC3163   CPH1     1  0.329632525712  0.093557084179
CC3163   CPH2     1  0.329632525712  0.093557084179
CC3163    CPM     1  0.329632525712  0.125520000000
CC3163    CPT     1  0.334977918021  0.131646486622
CC3163   CR2P     1  0.263634748672  0.170828164985
CC3163   CR33     1  0.338541512893  0.041840000000
CC3163   CR3P     1  0.244382427373  0.145299904804
CC3163   CRL1     1  0.338541512893  0.041840000000
CC3163   CRL2     1  0.338541512893  0.041840000000
CC3163   CRN1     1  0.347450500075  0.138767581228
CC3163     CS     1  0.365268474438  0.138767581228
CC3163    CST     1  0.308518226092  0.100764063435
CC3163     CT     1  0.338541512893  0.041840000000
CC3163    CT1     1  0.338541512893  0.041840000000
CC3163   CT1X     1  0.338541512893  0.041840000000
CC3163    CT2     1  0.338541512893  0.041840000000
CC3163   CT2A     1  0.338541512893  0.041840000000
CC3163   CT2P     1  0.338541512893  0.041840000000
CC3163   CT2X     1  0.338541512893  0.041840000000
CC3163    CT3     1  0.338541512893  0.041840000000
CC3163   CT3X     1  0.338541512893  0.041840000000
CC3163   CTD1     1  0.338541512893  0.041840000000
CC3163   CTL1     1  0.338541512893  0.041840000000
CC3163   CTL2     1  0.338541512893  0.041840000000
CC3163   CTL3     1  0.338541512893  0.041840000000
CC3163   CTL5     1  0.338541512893  0.041840000000
CC3163   CTO1     1  0.338541512893  0.041840000000
CC3163   CTO2     1  0.338541512893  0.041840000000
CC3163     CU     1  0.285800308779  0.908997471504
CC3163   CU1P     1  0.246066225950  0.180057894334
CC3163   CU2P     1  0.233869822499  0.162315474555
CC3163     CY     1  0.346559601357  0.113045454929
CC3163    DUM     1  0.169270756447  0.000000000000
CC3163   DY3P     1  0.297952167295  0.171135318061
CC3163   ER3P     1  0.291083338178  0.169232326746
CC3163   EU2P     1  0.333231756533  0.203602227414
CC3163   EU3P     1  0.304954631219  0.174528477447
CC3163     F1     1  0.314487247504  0.153729976257
CC3163     F2     1  0.314487247504  0.135577095411
CC3163     F3     1  0.311814551349  0.130309939452
CC3163     FA     1  0.320723538531  0.144938011577
CC3163     FE     1  0.227179173126  0.000000000000
CC3163   FE2P     1  0.265496726993  0.167098295383
CC3163   FE3P     1  0.219722350855  0.148045032716
CC3163   FGA1     1  0.314487247504  0.153729976257
CC3163   FGA2     1  0.314487247504  0.135577095411
CC3163   FGA3     1  0.311814551349  0.130309939452
CC3163   FGP1     1  0.311814551349  0.130309939452
CC3163   FGR1     1  0.320723538531  0.144938011577
CC3163    FNA     1  0.320723538531  0.144938011577
CC3163   GA3P     1  0.189485248361  0.145299904804
CC3163   GD3P     1  0.303351013527  0.173673803114
CC3163      H     1  0.189271432669  0.089736802707
CC3163     HA     1  0.286869387241  0.062058748940
CC3163    HA1     1  0.288651184677  0.088756043175
CC3163    HA2     1  0.288651184677  0.077149148019
CC3163    HA3     1  0.288651184677  0.064818249282
CC3163    HAL     1  0.286869387241  0.062058748940
CC3163   HAL1     1  0.286869387241  0.062058748940
CC3163   HAL2     1  0.288651184677  0.070011711020
CC3163   HAL3     1  0.288651184677  0.064818249282
CC3163     HB     1  0.286869387241  0.062058748940
CC3163    HB1     1  0.286869387241  0.062058748940
CC3163    HB2     1  0.288651184677  0.070011711020
CC3163    HBL     1  0.286869387241  0.062058748940
CC3163     HC     1  0.189271432669  0.089736802707
CC3163   HCA1     1  0.288651184677  0.088756043175
CC3163  HCA1A     1  0.288651184677  0.088756043175
CC3163 HCA1C2     1  0.288651184677  0.088756043175
CC3163   HCA2     1  0.288651184677  0.078275472531
CC3163 HCA25A     1  0.285087589805  0.078275472531
CC3163  HCA2A     1  0.288651184677  0.078275472531
CC3163 HCA2C2     1  0.285087589805  0.078275472531
CC3163   HCA3     1  0.288651184677  0.064818249282
CC3163  HCA3A     1  0.288651184677  0.064818249282
CC3163  HCA3M     1  0.288651184677  0.064818249282
CC3163    HCL     1  0.189271432669  0.089736802707
CC3163   HCP1     1  0.189271432669  0.089736802707
CC3163  HCP1M     1  0.189271432669  0.089736802707
CC3163   HCR1     1  0.240542653898  0.089736802707
CC3163     HE     1  0.301123766731  0.061020452073
CC3163    HE1     1  0.280633096214  0.073666921749
CC3163    HE2     1  0.281523994932  0.067464972838
CC3163   HEL1     1  0.280633096214  0.073666921749
CC3163   HEL2     1  0.281523994932  0.067464972838
CC3163    HF1     1  0.286869387241  0.070011711020
CC3163    HF2     1  0.285087589805  0.072469005789
CC3163   HG2P     1  0.274557166956  0.189623385225
CC3163   HGA1     1  0.288651184677  0.088756043175
CC3163   HGA2     1  0.288651184677  0.078275472531
CC3163   HGA3     1  0.288651184677  0.064818249282
CC3163   HGA4     1  0.280633096214  0.073666921749
CC3163   HGA5     1  0.281523994932  0.067464972838
CC3163   HGA6     1  0.286869387241  0.070011711020
CC3163   HGA7     1  0.285087589805  0.072469005789
CC3163 HGAAM0     1  0.283305792369  0.070011711020
CC3163 HGAAM1     1  0.283305792369  0.070011711020
CC3163 HGAAM2     1  0.281523994932  0.083680000000
CC3163   HGP1     1  0.189271432669  0.089736802707
CC3163   HGP2     1  0.189271432669  0.089736802707
CC3163   HGP3     1  0.209361198763  0.132309697301
CC3163   HGP4     1  0.189271432669  0.089736802707
CC3163   HGP5     1  0.231633666716  0.089736802707
CC3163 HGPAM1     1  0.247224394284  0.039692909190
CC3163 HGPAM2     1  0.247224394284  0.041840000000
CC3163 HGPAM3     1  0.246778944925  0.045833423612
CC3163  HGR51     1  0.290272620344  0.072469005789
CC3163  HGR52     1  0.249451641079  0.089736802707
CC3163  HGR53     1  0.231633666716  0.089736802707
CC3163  HGR61     1  0.290272620344  0.072469005789
CC3163  HGR62     1  0.267269615442  0.089736802707
CC3163  HGR63     1  0.249451641079  0.089736802707
CC3163  HGR71     1  0.290272620344  0.072469005789
CC3163     HL     1  0.231633666716  0.089736802707
CC3163  HLGA1     1  0.288651184677  0.088756043175
CC3163  HLGA2     1  0.288651184677  0.078275472531
CC3163  HLGA3     1  0.288651184677  0.064818249282
CC3163  HLGA4     1  0.280633096214  0.073666921749
CC3163  HLGP1     1  0.189271432669  0.089736802707
CC3163 HLGR52     1  0.249451641079  0.089736802707
CC3163 HLGR61     1  0.290272620344  0.072469005789
CC3163 HLGR62     1  0.267269615442  0.089736802707
CC3163    HN1     1  0.189271432669  0.089736802707
CC3163    HN2     1  0.189271432669  0.089736802707
CC3163    HN3     1  0.267269615442  0.089736802707
CC3163   HN3B     1  0.249451641079  0.089736802707
CC3163    HN4     1  0.189271432669  0.089736802707
CC3163    HN5     1  0.189271432669  0.089736802707
CC3163    HN6     1  0.286869387241  0.062058748940
CC3163    HN7     1  0.286869387241  0.062058748940
CC3163    HN8     1  0.288651184677  0.070011711020
CC3163    HN9     1  0.288651184677  0.064818249282
CC3163   HNE1     1  0.280633096214  0.073666921749
CC3163   HNE2     1  0.281523994932  0.067464972838
CC3163    HNP     1  0.290272620344  0.072469005789
CC3163   HO3P     1  0.293168041178  0.170263611896
CC3163    HOL     1  0.189271432669  0.089736802707
CC3163     HP     1  0.290272620344  0.072469005789
CC3163   HPER     1  0.189271432669  0.089736802707
CC3163    HR1     1  0.249451641079  0.089736802707
CC3163    HR2     1  0.231633666716  0.089736802707
CC3163    HR3     1  0.300054688270  0.036952087465
CC3163   HRA3     1  0.288651184677  0.064818249282
CC3163   HRM1     1  0.247224394284  0.039692909190
CC3163   HRM2     1  0.247224394284  0.041840000000
CC3163   HRP2     1  0.189271432669  0.089736802707
CC3163     HS     1  0.209361198763  0.132309697301
CC3163   HSIA     1  0.286869387241  0.062058748940
CC3163   HSIO     1  0.189271432669  0.089736802707
CC3163     HT     1  0.189271432669  0.089736802707
CC3163     HX     1  0.189271432669  0.089736802707
CC3163   IGR1     1  0.368832069310  0.301712530731
CC3163   IN3P     1  0.246449312399  0.160580590010
CC3163   LA3P     1  0.327200372211  0.182184255566
CC3163    LIT     1  0.284864865125  0.020196198771
CC3163    LPH     1  0.169270756447  0.000000000000
CC3163   LU3P     1  0.289648991242  0.166731218816
CC3163     MG     1  0.274842254546  0.051243325419
CC3163   MN2P     1  0.276508235149  0.171747976291
CC3163   MN3P     1  0.203516903172  0.148045032716
CC3163      N     1  0.334087019303  0.004184000000
CC3163     NC     1  0.334087019303  0.324091246411
CC3163    NC2     1  0.334087019303  0.187114168357
CC3163  NC2D1     1  0.307360057758  0.187114168357
CC3163  NC311     1  0.347450500075  0.088756043175
CC3163   ND3P     1  0.313587439798  0.177117175768
CC3163     NE     1  0.305578260322  0.122698965603
CC3163  NG1T1     1  0.328741626994  0.177512086349
CC3163  NG2D1     1  0.334087019303  0.187114168357
CC3163  NG2O1     1  0.334087019303  0.187114168357
CC3163  NG2P1     1  0.334087019303  0.187114168357
CC3163 NG2R43     1  0.334087019303  0.187114168357
CC3163 NG2R50     1  0.334087019303  0.187114168357
CC3163 NG2R51     1  0.334087019303  0.187114168357
CC3163 NG2R52     1  0.334087019303  0.187114168357
CC3163 NG2R53     1  0.334087019303  0.187114168357
CC3163 NG2R57     1  0.334087019303  0.187114168357
CC3163 NG2R60     1  0.337650614175  0.102486650838
CC3163 NG2R61     1  0.334087019303  0.187114168357
CC3163 NG2R62     1  0.352795892384  0.093557084179
CC3163 NG2R67     1  0.334087019303  0.187114168357
CC3163 NG2RC0     1  0.334087019303  0.187114168357
CC3163  NG2S0     1  0.334087019303  0.004184000000
CC3163  NG2S1     1  0.307360057758  0.187114168357
CC3163  NG2S2     1  0.334087019303  0.187114168357
CC3163  NG2S3     1  0.334087019303  0.187114168357
CC3163  NG301     1  0.347450500075  0.078275472531
CC3163  NG311     1  0.347450500075  0.088756043175
CC3163  NG321     1  0.346559601357  0.102486650838
CC3163  NG331     1  0.345668702638  0.110698234855
CC3163 NG3C51     1  0.334087019303  0.187114168357
CC3163  NG3N1     1  0.351904993665  0.102486650838
CC3163  NG3P0     1  0.334087019303  0.187114168357
CC3163  NG3P1     1  0.334087019303  0.187114168357
CC3163  NG3P2     1  0.334087019303  0.187114168357
CC3163  NG3P3     1  0.334087019303  0.187114168357
CC3163    NH1     1  0.307360057758  0.187114168357
CC3163    NH2     1  0.334087019303  0.187114168357
CC3163    NH3     1  0.334087019303  0.187114168357
CC3163   NH3L     1  0.334087019303  0.187114168357
CC3163    NHL     1  0.307360057758  0.187114168357
CC3163     NI     1  0.282949432881  0.994525446633
CC3163   NI2P     1  0.238787583423  0.158440517242
CC3163    NN1     1  0.334087019303  0.187114168357
CC3163   NN1C     1  0.334087019303  0.187114168357
CC3163    NN2     1  0.334087019303  0.187114168357
CC3163   NN2B     1  0.334087019303  0.187114168357
CC3163   NN2C     1  0.334087019303  0.187114168357
CC3163   NN2G     1  0.334087019303  0.187114168357
CC3163   NN2U     1  0.334087019303  0.187114168357
CC3163    NN3     1  0.334087019303  0.187114168357
CC3163   NN3A     1  0.334087019303  0.187114168357
CC3163   NN3G     1  0.334087019303  0.187114168357
CC3163   NN3I     1  0.334087019303  0.187114168357
CC3163    NN4     1  0.334087019303  0.187114168357
CC3163    NN6     1  0.334087019303  0.187114168357
CC3163    NNG     1  0.334087019303  0.187114168357
CC3163     NP     1  0.334087019303  0.187114168357
CC3163    NPH     1  0.334087019303  0.187114168357
CC3163    NR1     1  0.334087019303  0.187114168357
CC3163    NR2     1  0.334087019303  0.187114168357
CC3163    NR3     1  0.334087019303  0.187114168357
CC3163   NRC4     1  0.334087019303  0.187114168357
CC3163   NRN1     1  0.347450500075  0.280671252536
CC3163   NRN2     1  0.346559601357  0.102486650838
CC3163    NS1     1  0.334087019303  0.187114168357
CC3163    NS2     1  0.334087019303  0.187114168357
CC3163    NTL     1  0.334087019303  0.187114168357
CC3163     NY     1  0.334087019303  0.187114168357
CC3163      O     1  0.293996576986  0.144938011577
CC3163    O2L     1  0.320723538531  0.144938011577
CC3163    OAL     1  0.326959829558  0.163176000000
CC3163     OB     1  0.293996576986  0.144938011577
CC3163    OBL     1  0.293996576986  0.144938011577
CC3163     OC     1  0.320723538531  0.144938011577
CC3163  OC2D1     1  0.293996576986  0.144938011577
CC3163  OC2D2     1  0.320723538531  0.144938011577
CC3163  OC2D3     1  0.293996576986  0.144938011577
CC3163  OC2D4     1  0.293996576986  0.144938011577
CC3163  OC2DP     1  0.320723538531  0.144938011577
CC3163  OC301     1  0.316269044940  0.132309697301
CC3163  OC302     1  0.316269044940  0.132309697301
CC3163  OC303     1  0.316269044940  0.132309697301
CC3163 OC305A     1  0.316269044940  0.132309697301
CC3163  OC30A     1  0.316269044940  0.132309697301
CC3163  OC30P     1  0.326959829558  0.163176000000
CC3163  OC311     1  0.326514380198  0.183381431383
CC3163 OC311M     1  0.326514380198  0.183381431383
CC3163  OC312     1  0.326959829558  0.163176000000
CC3163 OC3C51     1  0.316269044940  0.132309697301
CC3163 OC3C5M     1  0.316269044940  0.132309697301
CC3163 OC3C61     1  0.316269044940  0.132309697301
CC3163    OCA     1  0.293996576986  0.144938011577
CC3163    OCL     1  0.320723538531  0.144938011577
CC3163  OG2D1     1  0.293996576986  0.144938011577
CC3163  OG2D2     1  0.320723538531  0.144938011577
CC3163  OG2D3     1  0.293996576986  0.144938011577
CC3163  OG2D4     1  0.320723538531  0.144938011577
CC3163  OG2D5     1  0.320010819556  0.169954883425
CC3163  OG2N1     1  0.320723538531  0.144938011577
CC3163  OG2P1     1  0.320723538531  0.144938011577
CC3163 OG2R50     1  0.320723538531  0.144938011577
CC3163  OG2S1     1  0.318906105146  0.157831660601
CC3163  OG301     1  0.316269044940  0.132309697301
CC3163  OG302     1  0.316269044940  0.132309697301
CC3163  OG303     1  0.316269044940  0.132309697301
CC3163  OG304     1  0.316269044940  0.132309697301
CC3163  OG311     1  0.326514380198  0.183381431383
CC3163  OG312     1  0.325178032121  0.144938011577
CC3163 OG3C31     1  0.316269044940  0.132309697301
CC3163 OG3C51     1  0.316269044940  0.132309697301
CC3163 OG3C61     1  0.316269044940  0.132309697301
CC3163 OG3R60     1  0.316269044940  0.132309697301
CC3163    OH1     1  0.326959829558  0.163176000000
CC3163    OHL     1  0.326959829558  0.163176000000
CC3163   OLG1     1  0.293996576986  0.144938011577
CC3163   OLG2     1  0.320723538531  0.144938011577
CC3163   OLG3     1  0.320723538531  0.144938011577
CC3163   OLG4     1  0.316269044940  0.132309697301
CC3163   OLG5     1  0.316269044940  0.132309697301
CC3163   OLG6     1  0.326514380198  0.183381431383
CC3163   OLG7     1  0.316269044940  0.132309697301
CC3163   OLG8     1  0.316269044940  0.132309697301
CC3163     OM     1  0.320723538531  0.144938011577
CC3163    ON1     1  0.320723538531  0.144938011577
CC3163   ON1C     1  0.320723538531  0.144938011577
CC3163    ON2     1  0.326959829558  0.163176000000
CC3163   ON2B     1  0.326959829558  0.163176000000
CC3163   ON2M     1  0.316269044940  0.132309697301
CC3163    ON3     1  0.320723538531  0.144938011577
CC3163    ON4     1  0.326959829558  0.163176000000
CC3163    ON5     1  0.326959829558  0.163176000000
CC3163    ON6     1  0.326959829558  0.163176000000
CC3163   ON6B     1  0.326959829558  0.163176000000
CC3163   OPER     1  0.318427692534  0.188901923946
CC3163     OS     1  0.326959829558  0.163176000000
CC3163   OSIA     1  0.326959829558  0.163176000000
CC3163   OSIE     1  0.326959829558  0.163176000000
CC3163   OSIH     1  0.326959829558  0.163176000000
CC3163    OSL     1  0.316269044940  0.132309697301
CC3163   OSLP     1  0.316269044940  0.132309697301
CC3163    OST     1  0.320010819556  0.169954883425
CC3163     OT     1  0.326799467788  0.163176000000
CC3163     OX     1  0.320723538531  0.144938011577
CC3163      P     1  0.360813980847  0.320014464673
CC3163     P2     1  0.360813980847  0.320014464673
CC3163     P3     1  0.360813980847  0.320014464673
CC3163     P4     1  0.360813980847  0.320014464673
CC3163     PB     1  0.328073452955  0.716185437439
CC3163   PB2P     1  0.325890751096  0.204716924713
CC3163     PC     1  0.360813980847  0.320014464673
CC3163     PD     1  0.294842930769  1.037598257516
CC3163   PD2P     1  0.251865976605  0.174628752363
CC3163    PG0     1  0.360813980847  0.320014464673
CC3163    PG1     1  0.360813980847  0.320014464673
CC3163    PG2     1  0.360813980847  0.320014464673
CC3163     PL     1  0.360813980847  0.320014464673
CC3163   PM3P     1  0.316910492017  0.176275053255
CC3163    POT     1  0.326403017859  0.123410269913
CC3163   PR3P     1  0.317079762773  0.178642591472
CC3163     PT     1  0.296001099102  1.168527606863
CC3163   PT2P     1  0.240284293270  0.168973521997
CC3163   PU3P     1  0.318024115415  0.179522368790
CC3163   RA2P     1  0.355459679551  0.229891668540
CC3163   RH3P     1  0.210367914314  0.149983415617
CC3163    RUB     1  0.338541512893  0.162045623205
CC3163      S     1  0.347450500075  0.280671252536
CC3163     SC     1  0.356359487256  0.286840588481
CC3163   SC3P     1  0.266993436839  0.157109060719
CC3163  SEGD1     1  0.363041227642  0.330244580395
CC3163  SG2D1     1  0.351904993665  0.314496560236
CC3163  SG2P1     1  0.355798221064  0.332305491450
CC3163  SG2P2     1  0.352314807076  0.329421919951
CC3163 SG2R50     1  0.347450500075  0.280671252536
CC3163  SG301     1  0.345223253279  0.257919081884
CC3163  SG302     1  0.365268474438  0.286840588481
CC3163  SG311     1  0.347450500075  0.280671252536
CC3163  SG3O1     1  0.356359487256  0.286840588481
CC3163  SG3O2     1  0.347450500075  0.247528778125
CC3163  SG3O3     1  0.347450500075  0.247528778125
CC3163     SI     1  0.365268474438  0.324091246411
CC3163   SIH3     1  0.365268474438  0.324091246411
CC3163     SL     1  0.356359487256  0.286840588481
CC3163     SM     1  0.345223253279  0.257919081884
CC3163   SM2P     1  0.334666103469  0.207012887251
CC3163   SM3P     1  0.308847858618  0.175378986746
CC3163   SN2P     1  0.316981763914  0.181365662197
CC3163    SOD     1  0.294954293108  0.090610410351
CC3163     SP     1  0.365268474438  0.280671252536
CC3163   SR2P     1  0.334612649546  0.200133451797
CC3163     SS     1  0.365268474438  0.286840588481
CC3163   TB3P     1  0.300678317372  0.172155203837
CC3163   TI1P     1  0.341276571958  0.266826378666
CC3163   TI3P     1  0.243117351193  0.149983415617
CC3163   TL3P     1  0.246716582015  0.168869889039
CC3163   TM3P     1  0.289417357575  0.168402751521
CC3163    U3P     1  0.320830446377  0.182184255566
CC3163    V2P     1  0.267599247968  0.167830039933
CC3163    V3P     1  0.223989755715  0.147096016316
CC3163    Y3P     1  0.295190381269  0.170263611896
CC3163   YB2P     1  0.312616360195  0.189623385225
CC3163   YB3P     1  0.284659958420  0.167569069413
CC3163     ZN     1  0.266378716724  0.209200000000
 CC31A  CC31A     1  0.338541512893  0.041840000000
 CC31A  CC321     1  0.338541512893  0.041840000000
 CC31A CC321C     1  0.338541512893  0.041840000000
 CC31A CC321D     1  0.338541512893  0.041840000000
 CC31A  CC322     1  0.338541512893  0.041840000000
 CC31A CC322C     1  0.338541512893  0.041840000000
 CC31A CC3251     1  0.338541512893  0.041840000000
 CC31A CC325A     1  0.338541512893  0.041840000000
 CC31A CC325B     1  0.338541512893  0.041840000000
 CC31A CC3261     1  0.338541512893  0.041840000000
 CC31A CC3263     1  0.338541512893  0.041840000000
 CC31A CC326A     1  0.338541512893  0.041840000000
 CC31A  CC32A     1  0.338541512893  0.041840000000
 CC31A  CC331     1  0.338541512893  0.041840000000
 CC31A  CC33A     1  0.338541512893  0.041840000000
 CC31A    CCL     1  0.347450500075  0.110698234855
 CC31A     CD     1  0.347450500075  0.110698234855
 CC31A    CE1     1  0.355468588538  0.109105371453
 CC31A    CE2     1  0.354577689820  0.105847757841
 CC31A   CE3P     1  0.321748072056  0.179522368790
 CC31A   CEL1     1  0.355468588538  0.109105371453
 CC31A   CEL2     1  0.354577689820  0.105847757841
 CC31A   CEL3     1  0.355468588538  0.109105371453
 CC31A    CES     1  0.356359487256  0.182376331798
 CC31A    CF1     1  0.338541512893  0.102486650838
 CC31A    CF2     1  0.351904993665  0.085746484010
 CC31A    CF3     1  0.374177461619  0.059170695450
 CC31A  CG1N1     1  0.335868816739  0.177512086349
 CC31A  CG1T1     1  0.333196120584  0.170981810495
 CC31A  CG1T2     1  0.346782326036  0.134409982486
 CC31A CG251O     1  0.355468588538  0.109105371453
 CC31A CG252O     1  0.355468588538  0.109105371453
 CC31A CG25C1     1  0.355468588538  0.109105371453
 CC31A CG25C2     1  0.355468588538  0.109105371453
 CC31A  CG2D1     1  0.355468588538  0.109105371453
 CC31A CG2D1O     1  0.355468588538  0.109105371453
 CC31A  CG2D2     1  0.354577689820  0.105847757841
 CC31A CG2D2O     1  0.355468588538  0.109105371453
 CC31A CG2DC1     1  0.355468588538  0.109105371453
 CC31A CG2DC2     1  0.355468588538  0.109105371453
 CC31A CG2DC3     1  0.354577689820  0.105847757841
 CC31A  CG2N1     1  0.347450500075  0.138767581228
 CC31A  CG2N2     1  0.347450500075  0.138767581228
 CC31A  CG2O1     1  0.347450500075  0.138767581228
 CC31A  CG2O2     1  0.320723538531  0.130979917850
 CC31A  CG2O3     1  0.347450500075  0.110698234855
 CC31A  CG2O4     1  0.329632525712  0.102486650838
 CC31A  CG2O5     1  0.347450500075  0.125520000000
 CC31A  CG2O6     1  0.347450500075  0.110698234855
 CC31A  CG2O7     1  0.308518226092  0.100764063435
 CC31A CG2R51     1  0.356359487256  0.093557084179
 CC31A CG2R52     1  0.365268474438  0.059170695450
 CC31A CG2R53     1  0.365268474438  0.059170695450
 CC31A CG2R57     1  0.356359487256  0.093557084179
 CC31A CG2R61     1  0.346773417049  0.110698234855
 CC31A CG2R62     1  0.338541512893  0.125520000000
 CC31A CG2R63     1  0.338541512893  0.132309697301
 CC31A CG2R64     1  0.356359487256  0.083680000000
 CC31A CG2R66     1  0.338541512893  0.110698234855
 CC31A CG2R67     1  0.346773417049  0.110698234855
 CC31A CG2R71     1  0.346987232741  0.108300154755
 CC31A CG2RC0     1  0.334977918021  0.131646486622
 CC31A CG2RC7     1  0.334977918021  0.131646486622
 CC31A  CG301     1  0.338541512893  0.041840000000
 CC31A  CG302     1  0.374177461619  0.059170695450
 CC31A  CG311     1  0.338541512893  0.041840000000
 CC31A  CG312     1  0.351904993665  0.085746484010
 CC31A  CG314     1  0.338541512893  0.041840000000
 CC31A  CG321     1  0.338541512893  0.041840000000
 CC31A  CG322     1  0.338541512893  0.102486650838
 CC31A  CG323     1  0.365268474438  0.138767581228
 CC31A  CG324     1  0.338541512893  0.041840000000
 CC31A  CG331     1  0.338541512893  0.041840000000
 CC31A  CG334     1  0.338541512893  0.041840000000
 CC31A CG3AM0     1  0.344777803920  0.110698234855
 CC31A CG3AM1     1  0.345668702638  0.116852760686
 CC31A CG3AM2     1  0.346559601357  0.118341390899
 CC31A CG3C31     1  0.338541512893  0.041840000000
 CC31A CG3C41     1  0.338541512893  0.041840000000
 CC31A CG3C50     1  0.338541512893  0.041840000000
 CC31A CG3C51     1  0.338541512893  0.041840000000
 CC31A CG3C52     1  0.338541512893  0.041840000000
 CC31A CG3C53     1  0.338541512893  0.041840000000
 CC31A CG3C54     1  0.338541512893  0.041840000000
 CC31A CG3RC1     1  0.338541512893  0.041840000000
 CC31A     CL     1  0.347450500075  0.110698234855
 CC31A    CLA     1  0.371504765465  0.162045623205
 CC31A   CLAL     1  0.339272049842  0.072469005789
 CC31A  CLG01     1  0.355468588538  0.109105371453
 CC31A  CLG02     1  0.355468588538  0.109105371453
 CC31A  CLG03     1  0.320723538531  0.130979917850
 CC31A  CLG04     1  0.347450500075  0.110698234855
 CC31A  CLG05     1  0.329632525712  0.102486650838
 CC31A  CLG06     1  0.346773417049  0.110698234855
 CC31A CLG06A     1  0.346773417049  0.110698234855
 CC31A CLG06B     1  0.346773417049  0.110698234855
 CC31A  CLG07     1  0.338541512893  0.125520000000
 CC31A  CLG08     1  0.338541512893  0.132309697301
 CC31A  CLG09     1  0.346773417049  0.110698234855
 CC31A  CLG10     1  0.334977918021  0.131646486622
 CC31A  CLG11     1  0.338541512893  0.041840000000
 CC31A  CLG12     1  0.338541512893  0.041840000000
 CC31A  CLG13     1  0.338541512893  0.041840000000
 CC31A  CLG14     1  0.338541512893  0.041840000000
 CC31A  CLG15     1  0.338541512893  0.041840000000
 CC31A  CLG16     1  0.338541512893  0.041840000000
 CC31A  CLGA1     1  0.339432411611  0.245040988571
 CC31A  CLGA3     1  0.339432411611  0.232955260941
 CC31A  CLGR1     1  0.334977918021  0.200657590935
 CC31A     CM     1  0.356359487256  0.138767581228
 CC31A     CN     1  0.325178032121  0.187114168357
 CC31A    CN1     1  0.338541512893  0.132309697301
 CC31A   CN1A     1  0.347450500075  0.110698234855
 CC31A   CN1T     1  0.338541512893  0.132309697301
 CC31A    CN2     1  0.338541512893  0.132309697301
 CC31A    CN3     1  0.338541512893  0.125520000000
 CC31A   CN3A     1  0.329632525712  0.177512086349
 CC31A   CN3B     1  0.329632525712  0.177512086349
 CC31A   CN3C     1  0.329632525712  0.177512086349
 CC31A   CN3D     1  0.338541512893  0.125520000000
 CC31A   CN3T     1  0.338541512893  0.125520000000
 CC31A    CN4     1  0.338541512893  0.114583559030
 CC31A    CN5     1  0.338541512893  0.114583559030
 CC31A   CN5G     1  0.338541512893  0.114583559030
 CC31A    CN6     1  0.338541512893  0.041840000000
 CC31A    CN7     1  0.338541512893  0.041840000000
 CC31A   CN7B     1  0.338541512893  0.041840000000
 CC31A   CN7E     1  0.338541512893  0.041840000000
 CC31A    CN8     1  0.338541512893  0.041840000000
 CC31A   CN8B     1  0.338541512893  0.041840000000
 CC31A    CN9     1  0.338541512893  0.041840000000
 CC31A    CNA     1  0.346773417049  0.110698234855
 CC31A   CNA2     1  0.338541512893  0.110698234855
 CC31A   CNE1     1  0.355468588538  0.109105371453
 CC31A   CNE2     1  0.354577689820  0.105847757841
 CC31A    CNG     1  0.347450500075  0.138767581228
 CC31A   CO2P     1  0.251910521541  0.164138698618
 CC31A   CO3P     1  0.192264852362  0.144393471099
 CC31A    COA     1  0.347450500075  0.138767581228
 CC31A    CP1     1  0.338541512893  0.041840000000
 CC31A    CP2     1  0.338541512893  0.041840000000
 CC31A    CP3     1  0.338541512893  0.041840000000
 CC31A    CPA     1  0.329632525712  0.125520000000
 CC31A    CPB     1  0.329632525712  0.125520000000
 CC31A   CPD1     1  0.338541512893  0.041840000000
 CC31A   CPH1     1  0.329632525712  0.093557084179
 CC31A   CPH2     1  0.329632525712  0.093557084179
 CC31A    CPM     1  0.329632525712  0.125520000000
 CC31A    CPT     1  0.334977918021  0.131646486622
 CC31A   CR2P     1  0.263634748672  0.170828164985
 CC31A   CR33     1  0.338541512893  0.041840000000
 CC31A   CR3P     1  0.244382427373  0.145299904804
 CC31A   CRL1     1  0.338541512893  0.041840000000
 CC31A   CRL2     1  0.338541512893  0.041840000000
 CC31A   CRN1     1  0.347450500075  0.138767581228
 CC31A     CS     1  0.365268474438  0.138767581228
 CC31A    CST     1  0.308518226092  0.100764063435
 CC31A     CT     1  0.338541512893  0.041840000000
 CC31A    CT1     1  0.338541512893  0.041840000000
 CC31A   CT1X     1  0.338541512893  0.041840000000
 CC31A    CT2     1  0.338541512893  0.041840000000
 CC31A   CT2A     1  0.338541512893  0.041840000000
 CC31A   CT2P     1  0.338541512893  0.041840000000
 CC31A   CT2X     1  0.338541512893  0.041840000000
 CC31A    CT3     1  0.338541512893  0.041840000000
 CC31A   CT3X     1  0.338541512893  0.041840000000
 CC31A   CTD1     1  0.338541512893  0.041840000000
 CC31A   CTL1     1  0.338541512893  0.041840000000
 CC31A   CTL2     1  0.338541512893  0.041840000000
 CC31A   CTL3     1  0.338541512893  0.041840000000
 CC31A   CTL5     1  0.338541512893  0.041840000000
 CC31A   CTO1     1  0.338541512893  0.041840000000
 CC31A   CTO2     1  0.338541512893  0.041840000000
 CC31A     CU     1  0.285800308779  0.908997471504
 CC31A   CU1P     1  0.246066225950  0.180057894334
 CC31A   CU2P     1  0.233869822499  0.162315474555
 CC31A     CY     1  0.346559601357  0.113045454929
 CC31A    DUM     1  0.169270756447  0.000000000000
 CC31A   DY3P     1  0.297952167295  0.171135318061
 CC31A   ER3P     1  0.291083338178  0.169232326746
 CC31A   EU2P     1  0.333231756533  0.203602227414
 CC31A   EU3P     1  0.304954631219  0.174528477447
 CC31A     F1     1  0.314487247504  0.153729976257
 CC31A     F2     1  0.314487247504  0.135577095411
 CC31A     F3     1  0.311814551349  0.130309939452
 CC31A     FA     1  0.320723538531  0.144938011577
 CC31A     FE     1  0.227179173126  0.000000000000
 CC31A   FE2P     1  0.265496726993  0.167098295383
 CC31A   FE3P     1  0.219722350855  0.148045032716
 CC31A   FGA1     1  0.314487247504  0.153729976257
 CC31A   FGA2     1  0.314487247504  0.135577095411
 CC31A   FGA3     1  0.311814551349  0.130309939452
 CC31A   FGP1     1  0.311814551349  0.130309939452
 CC31A   FGR1     1  0.320723538531  0.144938011577
 CC31A    FNA     1  0.320723538531  0.144938011577
 CC31A   GA3P     1  0.189485248361  0.145299904804
 CC31A   GD3P     1  0.303351013527  0.173673803114
 CC31A      H     1  0.189271432669  0.089736802707
 CC31A     HA     1  0.286869387241  0.062058748940
 CC31A    HA1     1  0.288651184677  0.088756043175
 CC31A    HA2     1  0.288651184677  0.077149148019
 CC31A    HA3     1  0.288651184677  0.064818249282
 CC31A    HAL     1  0.286869387241  0.062058748940
 CC31A   HAL1     1  0.286869387241  0.062058748940
 CC31A   HAL2     1  0.288651184677  0.070011711020
 CC31A   HAL3     1  0.288651184677  0.064818249282
 CC31A     HB     1  0.286869387241  0.062058748940
 CC31A    HB1     1  0.286869387241  0.062058748940
 CC31A    HB2     1  0.288651184677  0.070011711020
 CC31A    HBL     1  0.286869387241  0.062058748940
 CC31A     HC     1  0.189271432669  0.089736802707
 CC31A   HCA1     1  0.288651184677  0.088756043175
 CC31A  HCA1A     1  0.288651184677  0.088756043175
 CC31A HCA1C2     1  0.288651184677  0.088756043175
 CC31A   HCA2     1  0.288651184677  0.078275472531
 CC31A HCA25A     1  0.285087589805  0.078275472531
 CC31A  HCA2A     1  0.288651184677  0.078275472531
 CC31A HCA2C2     1  0.285087589805  0.078275472531
 CC31A   HCA3     1  0.288651184677  0.064818249282
 CC31A  HCA3A     1  0.288651184677  0.064818249282
 CC31A  HCA3M     1  0.288651184677  0.064818249282
 CC31A    HCL     1  0.189271432669  0.089736802707
 CC31A   HCP1     1  0.189271432669  0.089736802707
 CC31A  HCP1M     1  0.189271432669  0.089736802707
 CC31A   HCR1     1  0.240542653898  0.089736802707
 CC31A     HE     1  0.301123766731  0.061020452073
 CC31A    HE1     1  0.280633096214  0.073666921749
 CC31A    HE2     1  0.281523994932  0.067464972838
 CC31A   HEL1     1  0.280633096214  0.073666921749
 CC31A   HEL2     1  0.281523994932  0.067464972838
 CC31A    HF1     1  0.286869387241  0.070011711020
 CC31A    HF2     1  0.285087589805  0.072469005789
 CC31A   HG2P     1  0.274557166956  0.189623385225
 CC31A   HGA1     1  0.288651184677  0.088756043175
 CC31A   HGA2     1  0.288651184677  0.078275472531
 CC31A   HGA3     1  0.288651184677  0.064818249282
 CC31A   HGA4     1  0.280633096214  0.073666921749
 CC31A   HGA5     1  0.281523994932  0.067464972838
 CC31A   HGA6     1  0.286869387241  0.070011711020
 CC31A   HGA7     1  0.285087589805  0.072469005789
 CC31A HGAAM0     1  0.283305792369  0.070011711020
 CC31A HGAAM1     1  0.283305792369  0.070011711020
 CC31A HGAAM2     1  0.281523994932  0.083680000000
 CC31A   HGP1     1  0.189271432669  0.089736802707
 CC31A   HGP2     1  0.189271432669  0.089736802707
 CC31A   HGP3     1  0.209361198763  0.132309697301
 CC31A   HGP4     1  0.189271432669  0.089736802707
 CC31A   HGP5     1  0.231633666716  0.089736802707
 CC31A HGPAM1     1  0.247224394284  0.039692909190
 CC31A HGPAM2     1  0.247224394284  0.041840000000
 CC31A HGPAM3     1  0.246778944925  0.045833423612
 CC31A  HGR51     1  0.290272620344  0.072469005789
 CC31A  HGR52     1  0.249451641079  0.089736802707
 CC31A  HGR53     1  0.231633666716  0.089736802707
 CC31A  HGR61     1  0.290272620344  0.072469005789
 CC31A  HGR62     1  0.267269615442  0.089736802707
 CC31A  HGR63     1  0.249451641079  0.089736802707
 CC31A  HGR71     1  0.290272620344  0.072469005789
 CC31A     HL     1  0.231633666716  0.089736802707
 CC31A  HLGA1     1  0.288651184677  0.088756043175
 CC31A  HLGA2     1  0.288651184677  0.078275472531
 CC31A  HLGA3     1  0.288651184677  0.064818249282
 CC31A  HLGA4     1  0.280633096214  0.073666921749
 CC31A  HLGP1     1  0.189271432669  0.089736802707
 CC31A HLGR52     1  0.249451641079  0.089736802707
 CC31A HLGR61     1  0.290272620344  0.072469005789
 CC31A HLGR62     1  0.267269615442  0.089736802707
 CC31A    HN1     1  0.189271432669  0.089736802707
 CC31A    HN2     1  0.189271432669  0.089736802707
 CC31A    HN3     1  0.267269615442  0.089736802707
 CC31A   HN3B     1  0.249451641079  0.089736802707
 CC31A    HN4     1  0.189271432669  0.089736802707
 CC31A    HN5     1  0.189271432669  0.089736802707
 CC31A    HN6     1  0.286869387241  0.062058748940
 CC31A    HN7     1  0.286869387241  0.062058748940
 CC31A    HN8     1  0.288651184677  0.070011711020
 CC31A    HN9     1  0.288651184677  0.064818249282
 CC31A   HNE1     1  0.280633096214  0.073666921749
 CC31A   HNE2     1  0.281523994932  0.067464972838
 CC31A    HNP     1  0.290272620344  0.072469005789
 CC31A   HO3P     1  0.293168041178  0.170263611896
 CC31A    HOL     1  0.189271432669  0.089736802707
 CC31A     HP     1  0.290272620344  0.072469005789
 CC31A   HPER     1  0.189271432669  0.089736802707
 CC31A    HR1     1  0.249451641079  0.089736802707
 CC31A    HR2     1  0.231633666716  0.089736802707
 CC31A    HR3     1  0.300054688270  0.036952087465
 CC31A   HRA3     1  0.288651184677  0.064818249282
 CC31A   HRM1     1  0.247224394284  0.039692909190
 CC31A   HRM2     1  0.247224394284  0.041840000000
 CC31A   HRP2     1  0.189271432669  0.089736802707
 CC31A     HS     1  0.209361198763  0.132309697301
 CC31A   HSIA     1  0.286869387241  0.062058748940
 CC31A   HSIO     1  0.189271432669  0.089736802707
 CC31A     HT     1  0.189271432669  0.089736802707
 CC31A     HX     1  0.189271432669  0.089736802707
 CC31A   IGR1     1  0.368832069310  0.301712530731
 CC31A   IN3P     1  0.246449312399  0.160580590010
 CC31A   LA3P     1  0.327200372211  0.182184255566
 CC31A    LIT     1  0.284864865125  0.020196198771
 CC31A    LPH     1  0.169270756447  0.000000000000
 CC31A   LU3P     1  0.289648991242  0.166731218816
 CC31A     MG     1  0.274842254546  0.051243325419
 CC31A   MN2P     1  0.276508235149  0.171747976291
 CC31A   MN3P     1  0.203516903172  0.148045032716
 CC31A      N     1  0.334087019303  0.004184000000
 CC31A     NC     1  0.334087019303  0.324091246411
 CC31A    NC2     1  0.334087019303  0.187114168357
 CC31A  NC2D1     1  0.307360057758  0.187114168357
 CC31A  NC311     1  0.347450500075  0.088756043175
 CC31A   ND3P     1  0.313587439798  0.177117175768
 CC31A     NE     1  0.305578260322  0.122698965603
 CC31A  NG1T1     1  0.328741626994  0.177512086349
 CC31A  NG2D1     1  0.334087019303  0.187114168357
 CC31A  NG2O1     1  0.334087019303  0.187114168357
 CC31A  NG2P1     1  0.334087019303  0.187114168357
 CC31A NG2R43     1  0.334087019303  0.187114168357
 CC31A NG2R50     1  0.334087019303  0.187114168357
 CC31A NG2R51     1  0.334087019303  0.187114168357
 CC31A NG2R52     1  0.334087019303  0.187114168357
 CC31A NG2R53     1  0.334087019303  0.187114168357
 CC31A NG2R57     1  0.334087019303  0.187114168357
 CC31A NG2R60     1  0.337650614175  0.102486650838
 CC31A NG2R61     1  0.334087019303  0.187114168357
 CC31A NG2R62     1  0.352795892384  0.093557084179
 CC31A NG2R67     1  0.334087019303  0.187114168357
 CC31A NG2RC0     1  0.334087019303  0.187114168357
 CC31A  NG2S0     1  0.334087019303  0.004184000000
 CC31A  NG2S1     1  0.307360057758  0.187114168357
 CC31A  NG2S2     1  0.334087019303  0.187114168357
 CC31A  NG2S3     1  0.334087019303  0.187114168357
 CC31A  NG301     1  0.347450500075  0.078275472531
 CC31A  NG311     1  0.347450500075  0.088756043175
 CC31A  NG321     1  0.346559601357  0.102486650838
 CC31A  NG331     1  0.345668702638  0.110698234855
 CC31A NG3C51     1  0.334087019303  0.187114168357
 CC31A  NG3N1     1  0.351904993665  0.102486650838
 CC31A  NG3P0     1  0.334087019303  0.187114168357
 CC31A  NG3P1     1  0.334087019303  0.187114168357
 CC31A  NG3P2     1  0.334087019303  0.187114168357
 CC31A  NG3P3     1  0.334087019303  0.187114168357
 CC31A    NH1     1  0.307360057758  0.187114168357
 CC31A    NH2     1  0.334087019303  0.187114168357
 CC31A    NH3     1  0.334087019303  0.187114168357
 CC31A   NH3L     1  0.334087019303  0.187114168357
 CC31A    NHL     1  0.307360057758  0.187114168357
 CC31A     NI     1  0.282949432881  0.994525446633
 CC31A   NI2P     1  0.238787583423  0.158440517242
 CC31A    NN1     1  0.334087019303  0.187114168357
 CC31A   NN1C     1  0.334087019303  0.187114168357
 CC31A    NN2     1  0.334087019303  0.187114168357
 CC31A   NN2B     1  0.334087019303  0.187114168357
 CC31A   NN2C     1  0.334087019303  0.187114168357
 CC31A   NN2G     1  0.334087019303  0.187114168357
 CC31A   NN2U     1  0.334087019303  0.187114168357
 CC31A    NN3     1  0.334087019303  0.187114168357
 CC31A   NN3A     1  0.334087019303  0.187114168357
 CC31A   NN3G     1  0.334087019303  0.187114168357
 CC31A   NN3I     1  0.334087019303  0.187114168357
 CC31A    NN4     1  0.334087019303  0.187114168357
 CC31A    NN6     1  0.334087019303  0.187114168357
 CC31A    NNG     1  0.334087019303  0.187114168357
 CC31A     NP     1  0.334087019303  0.187114168357
 CC31A    NPH     1  0.334087019303  0.187114168357
 CC31A    NR1     1  0.334087019303  0.187114168357
 CC31A    NR2     1  0.334087019303  0.187114168357
 CC31A    NR3     1  0.334087019303  0.187114168357
 CC31A   NRC4     1  0.334087019303  0.187114168357
 CC31A   NRN1     1  0.347450500075  0.280671252536
 CC31A   NRN2     1  0.346559601357  0.102486650838
 CC31A    NS1     1  0.334087019303  0.187114168357
 CC31A    NS2     1  0.334087019303  0.187114168357
 CC31A    NTL     1  0.334087019303  0.187114168357
 CC31A     NY     1  0.334087019303  0.187114168357
 CC31A      O     1  0.293996576986  0.144938011577
 CC31A    O2L     1  0.320723538531  0.144938011577
 CC31A    OAL     1  0.326959829558  0.163176000000
 CC31A     OB     1  0.293996576986  0.144938011577
 CC31A    OBL     1  0.293996576986  0.144938011577
 CC31A     OC     1  0.320723538531  0.144938011577
 CC31A  OC2D1     1  0.293996576986  0.144938011577
 CC31A  OC2D2     1  0.320723538531  0.144938011577
 CC31A  OC2D3     1  0.293996576986  0.144938011577
 CC31A  OC2D4     1  0.293996576986  0.144938011577
 CC31A  OC2DP     1  0.320723538531  0.144938011577
 CC31A  OC301     1  0.316269044940  0.132309697301
 CC31A  OC302     1  0.316269044940  0.132309697301
 CC31A  OC303     1  0.316269044940  0.132309697301
 CC31A OC305A     1  0.316269044940  0.132309697301
 CC31A  OC30A     1  0.316269044940  0.132309697301
 CC31A  OC30P     1  0.326959829558  0.163176000000
 CC31A  OC311     1  0.326514380198  0.183381431383
 CC31A OC311M     1  0.326514380198  0.183381431383
 CC31A  OC312     1  0.326959829558  0.163176000000
 CC31A OC3C51     1  0.316269044940  0.132309697301
 CC31A OC3C5M     1  0.316269044940  0.132309697301
 CC31A OC3C61     1  0.316269044940  0.132309697301
 CC31A    OCA     1  0.293996576986  0.144938011577
 CC31A    OCL     1  0.320723538531  0.144938011577
 CC31A  OG2D1     1  0.293996576986  0.144938011577
 CC31A  OG2D2     1  0.320723538531  0.144938011577
 CC31A  OG2D3     1  0.293996576986  0.144938011577
 CC31A  OG2D4     1  0.320723538531  0.144938011577
 CC31A  OG2D5     1  0.320010819556  0.169954883425
 CC31A  OG2N1     1  0.320723538531  0.144938011577
 CC31A  OG2P1     1  0.320723538531  0.144938011577
 CC31A OG2R50     1  0.320723538531  0.144938011577
 CC31A  OG2S1     1  0.318906105146  0.157831660601
 CC31A  OG301     1  0.316269044940  0.132309697301
 CC31A  OG302     1  0.316269044940  0.132309697301
 CC31A  OG303     1  0.316269044940  0.132309697301
 CC31A  OG304     1  0.316269044940  0.132309697301
 CC31A  OG311     1  0.326514380198  0.183381431383
 CC31A  OG312     1  0.325178032121  0.144938011577
 CC31A OG3C31     1  0.316269044940  0.132309697301
 CC31A OG3C51     1  0.316269044940  0.132309697301
 CC31A OG3C61     1  0.316269044940  0.132309697301
 CC31A OG3R60     1  0.316269044940  0.132309697301
 CC31A    OH1     1  0.326959829558  0.163176000000
 CC31A    OHL     1  0.326959829558  0.163176000000
 CC31A   OLG1     1  0.293996576986  0.144938011577
 CC31A   OLG2     1  0.320723538531  0.144938011577
 CC31A   OLG3     1  0.320723538531  0.144938011577
 CC31A   OLG4     1  0.316269044940  0.132309697301
 CC31A   OLG5     1  0.316269044940  0.132309697301
 CC31A   OLG6     1  0.326514380198  0.183381431383
 CC31A   OLG7     1  0.316269044940  0.132309697301
 CC31A   OLG8     1  0.316269044940  0.132309697301
 CC31A     OM     1  0.320723538531  0.144938011577
 CC31A    ON1     1  0.320723538531  0.144938011577
 CC31A   ON1C     1  0.320723538531  0.144938011577
 CC31A    ON2     1  0.326959829558  0.163176000000
 CC31A   ON2B     1  0.326959829558  0.163176000000
 CC31A   ON2M     1  0.316269044940  0.132309697301
 CC31A    ON3     1  0.320723538531  0.144938011577
 CC31A    ON4     1  0.326959829558  0.163176000000
 CC31A    ON5     1  0.326959829558  0.163176000000
 CC31A    ON6     1  0.326959829558  0.163176000000
 CC31A   ON6B     1  0.326959829558  0.163176000000
 CC31A   OPER     1  0.318427692534  0.188901923946
 CC31A     OS     1  0.326959829558  0.163176000000
 CC31A   OSIA     1  0.326959829558  0.163176000000
 CC31A   OSIE     1  0.326959829558  0.163176000000
 CC31A   OSIH     1  0.326959829558  0.163176000000
 CC31A    OSL     1  0.316269044940  0.132309697301
 CC31A   OSLP     1  0.316269044940  0.132309697301
 CC31A    OST     1  0.320010819556  0.169954883425
 CC31A     OT     1  0.326799467788  0.163176000000
 CC31A     OX     1  0.320723538531  0.144938011577
 CC31A      P     1  0.360813980847  0.320014464673
 CC31A     P2     1  0.360813980847  0.320014464673
 CC31A     P3     1  0.360813980847  0.320014464673
 CC31A     P4     1  0.360813980847  0.320014464673
 CC31A     PB     1  0.328073452955  0.716185437439
 CC31A   PB2P     1  0.325890751096  0.204716924713
 CC31A     PC     1  0.360813980847  0.320014464673
 CC31A     PD     1  0.294842930769  1.037598257516
 CC31A   PD2P     1  0.251865976605  0.174628752363
 CC31A    PG0     1  0.360813980847  0.320014464673
 CC31A    PG1     1  0.360813980847  0.320014464673
 CC31A    PG2     1  0.360813980847  0.320014464673
 CC31A     PL     1  0.360813980847  0.320014464673
 CC31A   PM3P     1  0.316910492017  0.176275053255
 CC31A    POT     1  0.326403017859  0.123410269913
 CC31A   PR3P     1  0.317079762773  0.178642591472
 CC31A     PT     1  0.296001099102  1.168527606863
 CC31A   PT2P     1  0.240284293270  0.168973521997
 CC31A   PU3P     1  0.318024115415  0.179522368790
 CC31A   RA2P     1  0.355459679551  0.229891668540
 CC31A   RH3P     1  0.210367914314  0.149983415617
 CC31A    RUB     1  0.338541512893  0.162045623205
 CC31A      S     1  0.347450500075  0.280671252536
 CC31A     SC     1  0.356359487256  0.286840588481
 CC31A   SC3P     1  0.266993436839  0.157109060719
 CC31A  SEGD1     1  0.363041227642  0.330244580395
 CC31A  SG2D1     1  0.351904993665  0.314496560236
 CC31A  SG2P1     1  0.355798221064  0.332305491450
 CC31A  SG2P2     1  0.352314807076  0.329421919951
 CC31A SG2R50     1  0.347450500075  0.280671252536
 CC31A  SG301     1  0.345223253279  0.257919081884
 CC31A  SG302     1  0.365268474438  0.286840588481
 CC31A  SG311     1  0.347450500075  0.280671252536
 CC31A  SG3O1     1  0.356359487256  0.286840588481
 CC31A  SG3O2     1  0.347450500075  0.247528778125
 CC31A  SG3O3     1  0.347450500075  0.247528778125
 CC31A     SI     1  0.365268474438  0.324091246411
 CC31A   SIH3     1  0.365268474438  0.324091246411
 CC31A     SL     1  0.356359487256  0.286840588481
 CC31A     SM     1  0.345223253279  0.257919081884
 CC31A   SM2P     1  0.334666103469  0.207012887251
 CC31A   SM3P     1  0.308847858618  0.175378986746
 CC31A   SN2P     1  0.316981763914  0.181365662197
 CC31A    SOD     1  0.294954293108  0.090610410351
 CC31A     SP     1  0.365268474438  0.280671252536
 CC31A   SR2P     1  0.334612649546  0.200133451797
 CC31A     SS     1  0.365268474438  0.286840588481
 CC31A   TB3P     1  0.300678317372  0.172155203837
 CC31A   TI1P     1  0.341276571958  0.266826378666
 CC31A   TI3P     1  0.243117351193  0.149983415617
 CC31A   TL3P     1  0.246716582015  0.168869889039
 CC31A   TM3P     1  0.289417357575  0.168402751521
 CC31A    U3P     1  0.320830446377  0.182184255566
 CC31A    V2P     1  0.267599247968  0.167830039933
 CC31A    V3P     1  0.223989755715  0.147096016316
 CC31A    Y3P     1  0.295190381269  0.170263611896
 CC31A   YB2P     1  0.312616360195  0.189623385225
 CC31A   YB3P     1  0.284659958420  0.167569069413
 CC31A     ZN     1  0.266378716724  0.209200000000
 CC321  CC321     1  0.338541512893  0.041840000000
 CC321 CC321C     1  0.338541512893  0.041840000000
 CC321 CC321D     1  0.338541512893  0.041840000000
 CC321  CC322     1  0.338541512893  0.041840000000
 CC321 CC322C     1  0.338541512893  0.041840000000
 CC321 CC3251     1  0.338541512893  0.041840000000
 CC321 CC325A     1  0.338541512893  0.041840000000
 CC321 CC325B     1  0.338541512893  0.041840000000
 CC321 CC3261     1  0.338541512893  0.041840000000
 CC321 CC3263     1  0.338541512893  0.041840000000
 CC321 CC326A     1  0.338541512893  0.041840000000
 CC321  CC32A     1  0.338541512893  0.041840000000
 CC321  CC331     1  0.338541512893  0.041840000000
 CC321  CC33A     1  0.338541512893  0.041840000000
 CC321    CCL     1  0.347450500075  0.110698234855
 CC321     CD     1  0.347450500075  0.110698234855
 CC321    CE1     1  0.355468588538  0.109105371453
 CC321    CE2     1  0.354577689820  0.105847757841
 CC321   CE3P     1  0.321748072056  0.179522368790
 CC321   CEL1     1  0.355468588538  0.109105371453
 CC321   CEL2     1  0.354577689820  0.105847757841
 CC321   CEL3     1  0.355468588538  0.109105371453
 CC321    CES     1  0.356359487256  0.182376331798
 CC321    CF1     1  0.338541512893  0.102486650838
 CC321    CF2     1  0.351904993665  0.085746484010
 CC321    CF3     1  0.374177461619  0.059170695450
 CC321  CG1N1     1  0.335868816739  0.177512086349
 CC321  CG1T1     1  0.333196120584  0.170981810495
 CC321  CG1T2     1  0.346782326036  0.134409982486
 CC321 CG251O     1  0.355468588538  0.109105371453
 CC321 CG252O     1  0.355468588538  0.109105371453
 CC321 CG25C1     1  0.355468588538  0.109105371453
 CC321 CG25C2     1  0.355468588538  0.109105371453
 CC321  CG2D1     1  0.355468588538  0.109105371453
 CC321 CG2D1O     1  0.355468588538  0.109105371453
 CC321  CG2D2     1  0.354577689820  0.105847757841
 CC321 CG2D2O     1  0.355468588538  0.109105371453
 CC321 CG2DC1     1  0.355468588538  0.109105371453
 CC321 CG2DC2     1  0.355468588538  0.109105371453
 CC321 CG2DC3     1  0.354577689820  0.105847757841
 CC321  CG2N1     1  0.347450500075  0.138767581228
 CC321  CG2N2     1  0.347450500075  0.138767581228
 CC321  CG2O1     1  0.347450500075  0.138767581228
 CC321  CG2O2     1  0.320723538531  0.130979917850
 CC321  CG2O3     1  0.347450500075  0.110698234855
 CC321  CG2O4     1  0.329632525712  0.102486650838
 CC321  CG2O5     1  0.347450500075  0.125520000000
 CC321  CG2O6     1  0.347450500075  0.110698234855
 CC321  CG2O7     1  0.308518226092  0.100764063435
 CC321 CG2R51     1  0.356359487256  0.093557084179
 CC321 CG2R52     1  0.365268474438  0.059170695450
 CC321 CG2R53     1  0.365268474438  0.059170695450
 CC321 CG2R57     1  0.356359487256  0.093557084179
 CC321 CG2R61     1  0.346773417049  0.110698234855
 CC321 CG2R62     1  0.338541512893  0.125520000000
 CC321 CG2R63     1  0.338541512893  0.132309697301
 CC321 CG2R64     1  0.356359487256  0.083680000000
 CC321 CG2R66     1  0.338541512893  0.110698234855
 CC321 CG2R67     1  0.346773417049  0.110698234855
 CC321 CG2R71     1  0.346987232741  0.108300154755
 CC321 CG2RC0     1  0.334977918021  0.131646486622
 CC321 CG2RC7     1  0.334977918021  0.131646486622
 CC321  CG301     1  0.338541512893  0.041840000000
 CC321  CG302     1  0.374177461619  0.059170695450
 CC321  CG311     1  0.338541512893  0.041840000000
 CC321  CG312     1  0.351904993665  0.085746484010
 CC321  CG314     1  0.338541512893  0.041840000000
 CC321  CG321     1  0.338541512893  0.041840000000
 CC321  CG322     1  0.338541512893  0.102486650838
 CC321  CG323     1  0.365268474438  0.138767581228
 CC321  CG324     1  0.338541512893  0.041840000000
 CC321  CG331     1  0.338541512893  0.041840000000
 CC321  CG334     1  0.338541512893  0.041840000000
 CC321 CG3AM0     1  0.344777803920  0.110698234855
 CC321 CG3AM1     1  0.345668702638  0.116852760686
 CC321 CG3AM2     1  0.346559601357  0.118341390899
 CC321 CG3C31     1  0.338541512893  0.041840000000
 CC321 CG3C41     1  0.338541512893  0.041840000000
 CC321 CG3C50     1  0.338541512893  0.041840000000
 CC321 CG3C51     1  0.338541512893  0.041840000000
 CC321 CG3C52     1  0.338541512893  0.041840000000
 CC321 CG3C53     1  0.338541512893  0.041840000000
 CC321 CG3C54     1  0.338541512893  0.041840000000
 CC321 CG3RC1     1  0.338541512893  0.041840000000
 CC321     CL     1  0.347450500075  0.110698234855
 CC321    CLA     1  0.371504765465  0.162045623205
 CC321   CLAL     1  0.339272049842  0.072469005789
 CC321  CLG01     1  0.355468588538  0.109105371453
 CC321  CLG02     1  0.355468588538  0.109105371453
 CC321  CLG03     1  0.320723538531  0.130979917850
 CC321  CLG04     1  0.347450500075  0.110698234855
 CC321  CLG05     1  0.329632525712  0.102486650838
 CC321  CLG06     1  0.346773417049  0.110698234855
 CC321 CLG06A     1  0.346773417049  0.110698234855
 CC321 CLG06B     1  0.346773417049  0.110698234855
 CC321  CLG07     1  0.338541512893  0.125520000000
 CC321  CLG08     1  0.338541512893  0.132309697301
 CC321  CLG09     1  0.346773417049  0.110698234855
 CC321  CLG10     1  0.334977918021  0.131646486622
 CC321  CLG11     1  0.338541512893  0.041840000000
 CC321  CLG12     1  0.338541512893  0.041840000000
 CC321  CLG13     1  0.338541512893  0.041840000000
 CC321  CLG14     1  0.338541512893  0.041840000000
 CC321  CLG15     1  0.338541512893  0.041840000000
 CC321  CLG16     1  0.338541512893  0.041840000000
 CC321  CLGA1     1  0.339432411611  0.245040988571
 CC321  CLGA3     1  0.339432411611  0.232955260941
 CC321  CLGR1     1  0.334977918021  0.200657590935
 CC321     CM     1  0.356359487256  0.138767581228
 CC321     CN     1  0.325178032121  0.187114168357
 CC321    CN1     1  0.338541512893  0.132309697301
 CC321   CN1A     1  0.347450500075  0.110698234855
 CC321   CN1T     1  0.338541512893  0.132309697301
 CC321    CN2     1  0.338541512893  0.132309697301
 CC321    CN3     1  0.338541512893  0.125520000000
 CC321   CN3A     1  0.329632525712  0.177512086349
 CC321   CN3B     1  0.329632525712  0.177512086349
 CC321   CN3C     1  0.329632525712  0.177512086349
 CC321   CN3D     1  0.338541512893  0.125520000000
 CC321   CN3T     1  0.338541512893  0.125520000000
 CC321    CN4     1  0.338541512893  0.114583559030
 CC321    CN5     1  0.338541512893  0.114583559030
 CC321   CN5G     1  0.338541512893  0.114583559030
 CC321    CN6     1  0.338541512893  0.041840000000
 CC321    CN7     1  0.338541512893  0.041840000000
 CC321   CN7B     1  0.338541512893  0.041840000000
 CC321   CN7E     1  0.338541512893  0.041840000000
 CC321    CN8     1  0.338541512893  0.041840000000
 CC321   CN8B     1  0.338541512893  0.041840000000
 CC321    CN9     1  0.338541512893  0.041840000000
 CC321    CNA     1  0.346773417049  0.110698234855
 CC321   CNA2     1  0.338541512893  0.110698234855
 CC321   CNE1     1  0.355468588538  0.109105371453
 CC321   CNE2     1  0.354577689820  0.105847757841
 CC321    CNG     1  0.347450500075  0.138767581228
 CC321   CO2P     1  0.251910521541  0.164138698618
 CC321   CO3P     1  0.192264852362  0.144393471099
 CC321    COA     1  0.347450500075  0.138767581228
 CC321    CP1     1  0.338541512893  0.041840000000
 CC321    CP2     1  0.338541512893  0.041840000000
 CC321    CP3     1  0.338541512893  0.041840000000
 CC321    CPA     1  0.329632525712  0.125520000000
 CC321    CPB     1  0.329632525712  0.125520000000
 CC321   CPD1     1  0.338541512893  0.041840000000
 CC321   CPH1     1  0.329632525712  0.093557084179
 CC321   CPH2     1  0.329632525712  0.093557084179
 CC321    CPM     1  0.329632525712  0.125520000000
 CC321    CPT     1  0.334977918021  0.131646486622
 CC321   CR2P     1  0.263634748672  0.170828164985
 CC321   CR33     1  0.338541512893  0.041840000000
 CC321   CR3P     1  0.244382427373  0.145299904804
 CC321   CRL1     1  0.338541512893  0.041840000000
 CC321   CRL2     1  0.338541512893  0.041840000000
 CC321   CRN1     1  0.347450500075  0.138767581228
 CC321     CS     1  0.365268474438  0.138767581228
 CC321    CST     1  0.308518226092  0.100764063435
 CC321     CT     1  0.338541512893  0.041840000000
 CC321    CT1     1  0.338541512893  0.041840000000
 CC321   CT1X     1  0.338541512893  0.041840000000
 CC321    CT2     1  0.338541512893  0.041840000000
 CC321   CT2A     1  0.338541512893  0.041840000000
 CC321   CT2P     1  0.338541512893  0.041840000000
 CC321   CT2X     1  0.338541512893  0.041840000000
 CC321    CT3     1  0.338541512893  0.041840000000
 CC321   CT3X     1  0.338541512893  0.041840000000
 CC321   CTD1     1  0.338541512893  0.041840000000
 CC321   CTL1     1  0.338541512893  0.041840000000
 CC321   CTL2     1  0.338541512893  0.041840000000
 CC321   CTL3     1  0.338541512893  0.041840000000
 CC321   CTL5     1  0.338541512893  0.041840000000
 CC321   CTO1     1  0.338541512893  0.041840000000
 CC321   CTO2     1  0.338541512893  0.041840000000
 CC321     CU     1  0.285800308779  0.908997471504
 CC321   CU1P     1  0.246066225950  0.180057894334
 CC321   CU2P     1  0.233869822499  0.162315474555
 CC321     CY     1  0.346559601357  0.113045454929
 CC321    DUM     1  0.169270756447  0.000000000000
 CC321   DY3P     1  0.297952167295  0.171135318061
 CC321   ER3P     1  0.291083338178  0.169232326746
 CC321   EU2P     1  0.333231756533  0.203602227414
 CC321   EU3P     1  0.304954631219  0.174528477447
 CC321     F1     1  0.314487247504  0.153729976257
 CC321     F2     1  0.314487247504  0.135577095411
 CC321     F3     1  0.311814551349  0.130309939452
 CC321     FA     1  0.320723538531  0.144938011577
 CC321     FE     1  0.227179173126  0.000000000000
 CC321   FE2P     1  0.265496726993  0.167098295383
 CC321   FE3P     1  0.219722350855  0.148045032716
 CC321   FGA1     1  0.314487247504  0.153729976257
 CC321   FGA2     1  0.314487247504  0.135577095411
 CC321   FGA3     1  0.311814551349  0.130309939452
 CC321   FGP1     1  0.311814551349  0.130309939452
 CC321   FGR1     1  0.320723538531  0.144938011577
 CC321    FNA     1  0.320723538531  0.144938011577
 CC321   GA3P     1  0.189485248361  0.145299904804
 CC321   GD3P     1  0.303351013527  0.173673803114
 CC321      H     1  0.189271432669  0.089736802707
 CC321     HA     1  0.286869387241  0.062058748940
 CC321    HA1     1  0.288651184677  0.088756043175
 CC321    HA2     1  0.288651184677  0.077149148019
 CC321    HA3     1  0.288651184677  0.064818249282
 CC321    HAL     1  0.286869387241  0.062058748940
 CC321   HAL1     1  0.286869387241  0.062058748940
 CC321   HAL2     1  0.288651184677  0.070011711020
 CC321   HAL3     1  0.288651184677  0.064818249282
 CC321     HB     1  0.286869387241  0.062058748940
 CC321    HB1     1  0.286869387241  0.062058748940
 CC321    HB2     1  0.288651184677  0.070011711020
 CC321    HBL     1  0.286869387241  0.062058748940
 CC321     HC     1  0.189271432669  0.089736802707
 CC321   HCA1     1  0.288651184677  0.088756043175
 CC321  HCA1A     1  0.288651184677  0.088756043175
 CC321 HCA1C2     1  0.288651184677  0.088756043175
 CC321   HCA2     1  0.288651184677  0.078275472531
 CC321 HCA25A     1  0.285087589805  0.078275472531
 CC321  HCA2A     1  0.288651184677  0.078275472531
 CC321 HCA2C2     1  0.285087589805  0.078275472531
 CC321   HCA3     1  0.288651184677  0.064818249282
 CC321  HCA3A     1  0.288651184677  0.064818249282
 CC321  HCA3M     1  0.288651184677  0.064818249282
 CC321    HCL     1  0.189271432669  0.089736802707
 CC321   HCP1     1  0.189271432669  0.089736802707
 CC321  HCP1M     1  0.189271432669  0.089736802707
 CC321   HCR1     1  0.240542653898  0.089736802707
 CC321     HE     1  0.301123766731  0.061020452073
 CC321    HE1     1  0.280633096214  0.073666921749
 CC321    HE2     1  0.281523994932  0.067464972838
 CC321   HEL1     1  0.280633096214  0.073666921749
 CC321   HEL2     1  0.281523994932  0.067464972838
 CC321    HF1     1  0.286869387241  0.070011711020
 CC321    HF2     1  0.285087589805  0.072469005789
 CC321   HG2P     1  0.274557166956  0.189623385225
 CC321   HGA1     1  0.288651184677  0.088756043175
 CC321   HGA2     1  0.288651184677  0.078275472531
 CC321   HGA3     1  0.288651184677  0.064818249282
 CC321   HGA4     1  0.280633096214  0.073666921749
 CC321   HGA5     1  0.281523994932  0.067464972838
 CC321   HGA6     1  0.286869387241  0.070011711020
 CC321   HGA7     1  0.285087589805  0.072469005789
 CC321 HGAAM0     1  0.283305792369  0.070011711020
 CC321 HGAAM1     1  0.283305792369  0.070011711020
 CC321 HGAAM2     1  0.281523994932  0.083680000000
 CC321   HGP1     1  0.189271432669  0.089736802707
 CC321   HGP2     1  0.189271432669  0.089736802707
 CC321   HGP3     1  0.209361198763  0.132309697301
 CC321   HGP4     1  0.189271432669  0.089736802707
 CC321   HGP5     1  0.231633666716  0.089736802707
 CC321 HGPAM1     1  0.247224394284  0.039692909190
 CC321 HGPAM2     1  0.247224394284  0.041840000000
 CC321 HGPAM3     1  0.246778944925  0.045833423612
 CC321  HGR51     1  0.290272620344  0.072469005789
 CC321  HGR52     1  0.249451641079  0.089736802707
 CC321  HGR53     1  0.231633666716  0.089736802707
 CC321  HGR61     1  0.290272620344  0.072469005789
 CC321  HGR62     1  0.267269615442  0.089736802707
 CC321  HGR63     1  0.249451641079  0.089736802707
 CC321  HGR71     1  0.290272620344  0.072469005789
 CC321     HL     1  0.231633666716  0.089736802707
 CC321  HLGA1     1  0.288651184677  0.088756043175
 CC321  HLGA2     1  0.288651184677  0.078275472531
 CC321  HLGA3     1  0.288651184677  0.064818249282
 CC321  HLGA4     1  0.280633096214  0.073666921749
 CC321  HLGP1     1  0.189271432669  0.089736802707
 CC321 HLGR52     1  0.249451641079  0.089736802707
 CC321 HLGR61     1  0.290272620344  0.072469005789
 CC321 HLGR62     1  0.267269615442  0.089736802707
 CC321    HN1     1  0.189271432669  0.089736802707
 CC321    HN2     1  0.189271432669  0.089736802707
 CC321    HN3     1  0.267269615442  0.089736802707
 CC321   HN3B     1  0.249451641079  0.089736802707
 CC321    HN4     1  0.189271432669  0.089736802707
 CC321    HN5     1  0.189271432669  0.089736802707
 CC321    HN6     1  0.286869387241  0.062058748940
 CC321    HN7     1  0.286869387241  0.062058748940
 CC321    HN8     1  0.288651184677  0.070011711020
 CC321    HN9     1  0.288651184677  0.064818249282
 CC321   HNE1     1  0.280633096214  0.073666921749
 CC321   HNE2     1  0.281523994932  0.067464972838
 CC321    HNP     1  0.290272620344  0.072469005789
 CC321   HO3P     1  0.293168041178  0.170263611896
 CC321    HOL     1  0.189271432669  0.089736802707
 CC321     HP     1  0.290272620344  0.072469005789
 CC321   HPER     1  0.189271432669  0.089736802707
 CC321    HR1     1  0.249451641079  0.089736802707
 CC321    HR2     1  0.231633666716  0.089736802707
 CC321    HR3     1  0.300054688270  0.036952087465
 CC321   HRA3     1  0.288651184677  0.064818249282
 CC321   HRM1     1  0.247224394284  0.039692909190
 CC321   HRM2     1  0.247224394284  0.041840000000
 CC321   HRP2     1  0.189271432669  0.089736802707
 CC321     HS     1  0.209361198763  0.132309697301
 CC321   HSIA     1  0.286869387241  0.062058748940
 CC321   HSIO     1  0.189271432669  0.089736802707
 CC321     HT     1  0.189271432669  0.089736802707
 CC321     HX     1  0.189271432669  0.089736802707
 CC321   IGR1     1  0.368832069310  0.301712530731
 CC321   IN3P     1  0.246449312399  0.160580590010
 CC321   LA3P     1  0.327200372211  0.182184255566
 CC321    LIT     1  0.284864865125  0.020196198771
 CC321    LPH     1  0.169270756447  0.000000000000
 CC321   LU3P     1  0.289648991242  0.166731218816
 CC321     MG     1  0.274842254546  0.051243325419
 CC321   MN2P     1  0.276508235149  0.171747976291
 CC321   MN3P     1  0.203516903172  0.148045032716
 CC321      N     1  0.334087019303  0.004184000000
 CC321     NC     1  0.334087019303  0.324091246411
 CC321    NC2     1  0.334087019303  0.187114168357
 CC321  NC2D1     1  0.307360057758  0.187114168357
 CC321  NC311     1  0.347450500075  0.088756043175
 CC321   ND3P     1  0.313587439798  0.177117175768
 CC321     NE     1  0.305578260322  0.122698965603
 CC321  NG1T1     1  0.328741626994  0.177512086349
 CC321  NG2D1     1  0.334087019303  0.187114168357
 CC321  NG2O1     1  0.334087019303  0.187114168357
 CC321  NG2P1     1  0.334087019303  0.187114168357
 CC321 NG2R43     1  0.334087019303  0.187114168357
 CC321 NG2R50     1  0.334087019303  0.187114168357
 CC321 NG2R51     1  0.334087019303  0.187114168357
 CC321 NG2R52     1  0.334087019303  0.187114168357
 CC321 NG2R53     1  0.334087019303  0.187114168357
 CC321 NG2R57     1  0.334087019303  0.187114168357
 CC321 NG2R60     1  0.337650614175  0.102486650838
 CC321 NG2R61     1  0.334087019303  0.187114168357
 CC321 NG2R62     1  0.352795892384  0.093557084179
 CC321 NG2R67     1  0.334087019303  0.187114168357
 CC321 NG2RC0     1  0.334087019303  0.187114168357
 CC321  NG2S0     1  0.334087019303  0.004184000000
 CC321  NG2S1     1  0.307360057758  0.187114168357
 CC321  NG2S2     1  0.334087019303  0.187114168357
 CC321  NG2S3     1  0.334087019303  0.187114168357
 CC321  NG301     1  0.347450500075  0.078275472531
 CC321  NG311     1  0.347450500075  0.088756043175
 CC321  NG321     1  0.346559601357  0.102486650838
 CC321  NG331     1  0.345668702638  0.110698234855
 CC321 NG3C51     1  0.334087019303  0.187114168357
 CC321  NG3N1     1  0.351904993665  0.102486650838
 CC321  NG3P0     1  0.334087019303  0.187114168357
 CC321  NG3P1     1  0.334087019303  0.187114168357
 CC321  NG3P2     1  0.334087019303  0.187114168357
 CC321  NG3P3     1  0.334087019303  0.187114168357
 CC321    NH1     1  0.307360057758  0.187114168357
 CC321    NH2     1  0.334087019303  0.187114168357
 CC321    NH3     1  0.334087019303  0.187114168357
 CC321   NH3L     1  0.334087019303  0.187114168357
 CC321    NHL     1  0.307360057758  0.187114168357
 CC321     NI     1  0.282949432881  0.994525446633
 CC321   NI2P     1  0.238787583423  0.158440517242
 CC321    NN1     1  0.334087019303  0.187114168357
 CC321   NN1C     1  0.334087019303  0.187114168357
 CC321    NN2     1  0.334087019303  0.187114168357
 CC321   NN2B     1  0.334087019303  0.187114168357
 CC321   NN2C     1  0.334087019303  0.187114168357
 CC321   NN2G     1  0.334087019303  0.187114168357
 CC321   NN2U     1  0.334087019303  0.187114168357
 CC321    NN3     1  0.334087019303  0.187114168357
 CC321   NN3A     1  0.334087019303  0.187114168357
 CC321   NN3G     1  0.334087019303  0.187114168357
 CC321   NN3I     1  0.334087019303  0.187114168357
 CC321    NN4     1  0.334087019303  0.187114168357
 CC321    NN6     1  0.334087019303  0.187114168357
 CC321    NNG     1  0.334087019303  0.187114168357
 CC321     NP     1  0.334087019303  0.187114168357
 CC321    NPH     1  0.334087019303  0.187114168357
 CC321    NR1     1  0.334087019303  0.187114168357
 CC321    NR2     1  0.334087019303  0.187114168357
 CC321    NR3     1  0.334087019303  0.187114168357
 CC321   NRC4     1  0.334087019303  0.187114168357
 CC321   NRN1     1  0.347450500075  0.280671252536
 CC321   NRN2     1  0.346559601357  0.102486650838
 CC321    NS1     1  0.334087019303  0.187114168357
 CC321    NS2     1  0.334087019303  0.187114168357
 CC321    NTL     1  0.334087019303  0.187114168357
 CC321     NY     1  0.334087019303  0.187114168357
 CC321      O     1  0.293996576986  0.144938011577
 CC321    O2L     1  0.320723538531  0.144938011577
 CC321    OAL     1  0.326959829558  0.163176000000
 CC321     OB     1  0.293996576986  0.144938011577
 CC321    OBL     1  0.293996576986  0.144938011577
 CC321     OC     1  0.320723538531  0.144938011577
 CC321  OC2D1     1  0.293996576986  0.144938011577
 CC321  OC2D2     1  0.320723538531  0.144938011577
 CC321  OC2D3     1  0.293996576986  0.144938011577
 CC321  OC2D4     1  0.293996576986  0.144938011577
 CC321  OC2DP     1  0.320723538531  0.144938011577
 CC321  OC301     1  0.316269044940  0.132309697301
 CC321  OC302     1  0.316269044940  0.132309697301
 CC321  OC303     1  0.316269044940  0.132309697301
 CC321 OC305A     1  0.316269044940  0.132309697301
 CC321  OC30A     1  0.316269044940  0.132309697301
 CC321  OC30P     1  0.326959829558  0.163176000000
 CC321  OC311     1  0.326514380198  0.183381431383
 CC321 OC311M     1  0.326514380198  0.183381431383
 CC321  OC312     1  0.326959829558  0.163176000000
 CC321 OC3C51     1  0.316269044940  0.132309697301
 CC321 OC3C5M     1  0.316269044940  0.132309697301
 CC321 OC3C61     1  0.316269044940  0.132309697301
 CC321    OCA     1  0.293996576986  0.144938011577
 CC321    OCL     1  0.320723538531  0.144938011577
 CC321  OG2D1     1  0.293996576986  0.144938011577
 CC321  OG2D2     1  0.320723538531  0.144938011577
 CC321  OG2D3     1  0.293996576986  0.144938011577
 CC321  OG2D4     1  0.320723538531  0.144938011577
 CC321  OG2D5     1  0.320010819556  0.169954883425
 CC321  OG2N1     1  0.320723538531  0.144938011577
 CC321  OG2P1     1  0.320723538531  0.144938011577
 CC321 OG2R50     1  0.320723538531  0.144938011577
 CC321  OG2S1     1  0.318906105146  0.157831660601
 CC321  OG301     1  0.316269044940  0.132309697301
 CC321  OG302     1  0.316269044940  0.132309697301
 CC321  OG303     1  0.316269044940  0.132309697301
 CC321  OG304     1  0.316269044940  0.132309697301
 CC321  OG311     1  0.326514380198  0.183381431383
 CC321  OG312     1  0.325178032121  0.144938011577
 CC321 OG3C31     1  0.316269044940  0.132309697301
 CC321 OG3C51     1  0.316269044940  0.132309697301
 CC321 OG3C61     1  0.316269044940  0.132309697301
 CC321 OG3R60     1  0.316269044940  0.132309697301
 CC321    OH1     1  0.326959829558  0.163176000000
 CC321    OHL     1  0.326959829558  0.163176000000
 CC321   OLG1     1  0.293996576986  0.144938011577
 CC321   OLG2     1  0.320723538531  0.144938011577
 CC321   OLG3     1  0.320723538531  0.144938011577
 CC321   OLG4     1  0.316269044940  0.132309697301
 CC321   OLG5     1  0.316269044940  0.132309697301
 CC321   OLG6     1  0.326514380198  0.183381431383
 CC321   OLG7     1  0.316269044940  0.132309697301
 CC321   OLG8     1  0.316269044940  0.132309697301
 CC321     OM     1  0.320723538531  0.144938011577
 CC321    ON1     1  0.320723538531  0.144938011577
 CC321   ON1C     1  0.320723538531  0.144938011577
 CC321    ON2     1  0.326959829558  0.163176000000
 CC321   ON2B     1  0.326959829558  0.163176000000
 CC321   ON2M     1  0.316269044940  0.132309697301
 CC321    ON3     1  0.320723538531  0.144938011577
 CC321    ON4     1  0.326959829558  0.163176000000
 CC321    ON5     1  0.326959829558  0.163176000000
 CC321    ON6     1  0.326959829558  0.163176000000
 CC321   ON6B     1  0.326959829558  0.163176000000
 CC321   OPER     1  0.318427692534  0.188901923946
 CC321     OS     1  0.326959829558  0.163176000000
 CC321   OSIA     1  0.326959829558  0.163176000000
 CC321   OSIE     1  0.326959829558  0.163176000000
 CC321   OSIH     1  0.326959829558  0.163176000000
 CC321    OSL     1  0.316269044940  0.132309697301
 CC321   OSLP     1  0.316269044940  0.132309697301
 CC321    OST     1  0.320010819556  0.169954883425
 CC321     OT     1  0.326799467788  0.163176000000
 CC321     OX     1  0.320723538531  0.144938011577
 CC321      P     1  0.360813980847  0.320014464673
 CC321     P2     1  0.360813980847  0.320014464673
 CC321     P3     1  0.360813980847  0.320014464673
 CC321     P4     1  0.360813980847  0.320014464673
 CC321     PB     1  0.328073452955  0.716185437439
 CC321   PB2P     1  0.325890751096  0.204716924713
 CC321     PC     1  0.360813980847  0.320014464673
 CC321     PD     1  0.294842930769  1.037598257516
 CC321   PD2P     1  0.251865976605  0.174628752363
 CC321    PG0     1  0.360813980847  0.320014464673
 CC321    PG1     1  0.360813980847  0.320014464673
 CC321    PG2     1  0.360813980847  0.320014464673
 CC321     PL     1  0.360813980847  0.320014464673
 CC321   PM3P     1  0.316910492017  0.176275053255
 CC321    POT     1  0.326403017859  0.123410269913
 CC321   PR3P     1  0.317079762773  0.178642591472
 CC321     PT     1  0.296001099102  1.168527606863
 CC321   PT2P     1  0.240284293270  0.168973521997
 CC321   PU3P     1  0.318024115415  0.179522368790
 CC321   RA2P     1  0.355459679551  0.229891668540
 CC321   RH3P     1  0.210367914314  0.149983415617
 CC321    RUB     1  0.338541512893  0.162045623205
 CC321      S     1  0.347450500075  0.280671252536
 CC321     SC     1  0.356359487256  0.286840588481
 CC321   SC3P     1  0.266993436839  0.157109060719
 CC321  SEGD1     1  0.363041227642  0.330244580395
 CC321  SG2D1     1  0.351904993665  0.314496560236
 CC321  SG2P1     1  0.355798221064  0.332305491450
 CC321  SG2P2     1  0.352314807076  0.329421919951
 CC321 SG2R50     1  0.347450500075  0.280671252536
 CC321  SG301     1  0.345223253279  0.257919081884
 CC321  SG302     1  0.365268474438  0.286840588481
 CC321  SG311     1  0.347450500075  0.280671252536
 CC321  SG3O1     1  0.356359487256  0.286840588481
 CC321  SG3O2     1  0.347450500075  0.247528778125
 CC321  SG3O3     1  0.347450500075  0.247528778125
 CC321     SI     1  0.365268474438  0.324091246411
 CC321   SIH3     1  0.365268474438  0.324091246411
 CC321     SL     1  0.356359487256  0.286840588481
 CC321     SM     1  0.345223253279  0.257919081884
 CC321   SM2P     1  0.334666103469  0.207012887251
 CC321   SM3P     1  0.308847858618  0.175378986746
 CC321   SN2P     1  0.316981763914  0.181365662197
 CC321    SOD     1  0.294954293108  0.090610410351
 CC321     SP     1  0.365268474438  0.280671252536
 CC321   SR2P     1  0.334612649546  0.200133451797
 CC321     SS     1  0.365268474438  0.286840588481
 CC321   TB3P     1  0.300678317372  0.172155203837
 CC321   TI1P     1  0.341276571958  0.266826378666
 CC321   TI3P     1  0.243117351193  0.149983415617
 CC321   TL3P     1  0.246716582015  0.168869889039
 CC321   TM3P     1  0.289417357575  0.168402751521
 CC321    U3P     1  0.320830446377  0.182184255566
 CC321    V2P     1  0.267599247968  0.167830039933
 CC321    V3P     1  0.223989755715  0.147096016316
 CC321    Y3P     1  0.295190381269  0.170263611896
 CC321   YB2P     1  0.312616360195  0.189623385225
 CC321   YB3P     1  0.284659958420  0.167569069413
 CC321     ZN     1  0.266378716724  0.209200000000
CC321C CC321C     1  0.338541512893  0.041840000000
CC321C CC321D     1  0.338541512893  0.041840000000
CC321C  CC322     1  0.338541512893  0.041840000000
CC321C CC322C     1  0.338541512893  0.041840000000
CC321C CC3251     1  0.338541512893  0.041840000000
CC321C CC325A     1  0.338541512893  0.041840000000
CC321C CC325B     1  0.338541512893  0.041840000000
CC321C CC3261     1  0.338541512893  0.041840000000
CC321C CC3263     1  0.338541512893  0.041840000000
CC321C CC326A     1  0.338541512893  0.041840000000
CC321C  CC32A     1  0.338541512893  0.041840000000
CC321C  CC331     1  0.338541512893  0.041840000000
CC321C  CC33A     1  0.338541512893  0.041840000000
CC321C    CCL     1  0.347450500075  0.110698234855
CC321C     CD     1  0.347450500075  0.110698234855
CC321C    CE1     1  0.355468588538  0.109105371453
CC321C    CE2     1  0.354577689820  0.105847757841
CC321C   CE3P     1  0.321748072056  0.179522368790
CC321C   CEL1     1  0.355468588538  0.109105371453
CC321C   CEL2     1  0.354577689820  0.105847757841
CC321C   CEL3     1  0.355468588538  0.109105371453
CC321C    CES     1  0.356359487256  0.182376331798
CC321C    CF1     1  0.338541512893  0.102486650838
CC321C    CF2     1  0.351904993665  0.085746484010
CC321C    CF3     1  0.374177461619  0.059170695450
CC321C  CG1N1     1  0.335868816739  0.177512086349
CC321C  CG1T1     1  0.333196120584  0.170981810495
CC321C  CG1T2     1  0.346782326036  0.134409982486
CC321C CG251O     1  0.355468588538  0.109105371453
CC321C CG252O     1  0.355468588538  0.109105371453
CC321C CG25C1     1  0.355468588538  0.109105371453
CC321C CG25C2     1  0.355468588538  0.109105371453
CC321C  CG2D1     1  0.355468588538  0.109105371453
CC321C CG2D1O     1  0.355468588538  0.109105371453
CC321C  CG2D2     1  0.354577689820  0.105847757841
CC321C CG2D2O     1  0.355468588538  0.109105371453
CC321C CG2DC1     1  0.355468588538  0.109105371453
CC321C CG2DC2     1  0.355468588538  0.109105371453
CC321C CG2DC3     1  0.354577689820  0.105847757841
CC321C  CG2N1     1  0.347450500075  0.138767581228
CC321C  CG2N2     1  0.347450500075  0.138767581228
CC321C  CG2O1     1  0.347450500075  0.138767581228
CC321C  CG2O2     1  0.320723538531  0.130979917850
CC321C  CG2O3     1  0.347450500075  0.110698234855
CC321C  CG2O4     1  0.329632525712  0.102486650838
CC321C  CG2O5     1  0.347450500075  0.125520000000
CC321C  CG2O6     1  0.347450500075  0.110698234855
CC321C  CG2O7     1  0.308518226092  0.100764063435
CC321C CG2R51     1  0.356359487256  0.093557084179
CC321C CG2R52     1  0.365268474438  0.059170695450
CC321C CG2R53     1  0.365268474438  0.059170695450
CC321C CG2R57     1  0.356359487256  0.093557084179
CC321C CG2R61     1  0.346773417049  0.110698234855
CC321C CG2R62     1  0.338541512893  0.125520000000
CC321C CG2R63     1  0.338541512893  0.132309697301
CC321C CG2R64     1  0.356359487256  0.083680000000
CC321C CG2R66     1  0.338541512893  0.110698234855
CC321C CG2R67     1  0.346773417049  0.110698234855
CC321C CG2R71     1  0.346987232741  0.108300154755
CC321C CG2RC0     1  0.334977918021  0.131646486622
CC321C CG2RC7     1  0.334977918021  0.131646486622
CC321C  CG301     1  0.338541512893  0.041840000000
CC321C  CG302     1  0.374177461619  0.059170695450
CC321C  CG311     1  0.338541512893  0.041840000000
CC321C  CG312     1  0.351904993665  0.085746484010
CC321C  CG314     1  0.338541512893  0.041840000000
CC321C  CG321     1  0.338541512893  0.041840000000
CC321C  CG322     1  0.338541512893  0.102486650838
CC321C  CG323     1  0.365268474438  0.138767581228
CC321C  CG324     1  0.338541512893  0.041840000000
CC321C  CG331     1  0.338541512893  0.041840000000
CC321C  CG334     1  0.338541512893  0.041840000000
CC321C CG3AM0     1  0.344777803920  0.110698234855
CC321C CG3AM1     1  0.345668702638  0.116852760686
CC321C CG3AM2     1  0.346559601357  0.118341390899
CC321C CG3C31     1  0.338541512893  0.041840000000
CC321C CG3C41     1  0.338541512893  0.041840000000
CC321C CG3C50     1  0.338541512893  0.041840000000
CC321C CG3C51     1  0.338541512893  0.041840000000
CC321C CG3C52     1  0.338541512893  0.041840000000
CC321C CG3C53     1  0.338541512893  0.041840000000
CC321C CG3C54     1  0.338541512893  0.041840000000
CC321C CG3RC1     1  0.338541512893  0.041840000000
CC321C     CL     1  0.347450500075  0.110698234855
CC321C    CLA     1  0.371504765465  0.162045623205
CC321C   CLAL     1  0.339272049842  0.072469005789
CC321C  CLG01     1  0.355468588538  0.109105371453
CC321C  CLG02     1  0.355468588538  0.109105371453
CC321C  CLG03     1  0.320723538531  0.130979917850
CC321C  CLG04     1  0.347450500075  0.110698234855
CC321C  CLG05     1  0.329632525712  0.102486650838
CC321C  CLG06     1  0.346773417049  0.110698234855
CC321C CLG06A     1  0.346773417049  0.110698234855
CC321C CLG06B     1  0.346773417049  0.110698234855
CC321C  CLG07     1  0.338541512893  0.125520000000
CC321C  CLG08     1  0.338541512893  0.132309697301
CC321C  CLG09     1  0.346773417049  0.110698234855
CC321C  CLG10     1  0.334977918021  0.131646486622
CC321C  CLG11     1  0.338541512893  0.041840000000
CC321C  CLG12     1  0.338541512893  0.041840000000
CC321C  CLG13     1  0.338541512893  0.041840000000
CC321C  CLG14     1  0.338541512893  0.041840000000
CC321C  CLG15     1  0.338541512893  0.041840000000
CC321C  CLG16     1  0.338541512893  0.041840000000
CC321C  CLGA1     1  0.339432411611  0.245040988571
CC321C  CLGA3     1  0.339432411611  0.232955260941
CC321C  CLGR1     1  0.334977918021  0.200657590935
CC321C     CM     1  0.356359487256  0.138767581228
CC321C     CN     1  0.325178032121  0.187114168357
CC321C    CN1     1  0.338541512893  0.132309697301
CC321C   CN1A     1  0.347450500075  0.110698234855
CC321C   CN1T     1  0.338541512893  0.132309697301
CC321C    CN2     1  0.338541512893  0.132309697301
CC321C    CN3     1  0.338541512893  0.125520000000
CC321C   CN3A     1  0.329632525712  0.177512086349
CC321C   CN3B     1  0.329632525712  0.177512086349
CC321C   CN3C     1  0.329632525712  0.177512086349
CC321C   CN3D     1  0.338541512893  0.125520000000
CC321C   CN3T     1  0.338541512893  0.125520000000
CC321C    CN4     1  0.338541512893  0.114583559030
CC321C    CN5     1  0.338541512893  0.114583559030
CC321C   CN5G     1  0.338541512893  0.114583559030
CC321C    CN6     1  0.338541512893  0.041840000000
CC321C    CN7     1  0.338541512893  0.041840000000
CC321C   CN7B     1  0.338541512893  0.041840000000
CC321C   CN7E     1  0.338541512893  0.041840000000
CC321C    CN8     1  0.338541512893  0.041840000000
CC321C   CN8B     1  0.338541512893  0.041840000000
CC321C    CN9     1  0.338541512893  0.041840000000
CC321C    CNA     1  0.346773417049  0.110698234855
CC321C   CNA2     1  0.338541512893  0.110698234855
CC321C   CNE1     1  0.355468588538  0.109105371453
CC321C   CNE2     1  0.354577689820  0.105847757841
CC321C    CNG     1  0.347450500075  0.138767581228
CC321C   CO2P     1  0.251910521541  0.164138698618
CC321C   CO3P     1  0.192264852362  0.144393471099
CC321C    COA     1  0.347450500075  0.138767581228
CC321C    CP1     1  0.338541512893  0.041840000000
CC321C    CP2     1  0.338541512893  0.041840000000
CC321C    CP3     1  0.338541512893  0.041840000000
CC321C    CPA     1  0.329632525712  0.125520000000
CC321C    CPB     1  0.329632525712  0.125520000000
CC321C   CPD1     1  0.338541512893  0.041840000000
CC321C   CPH1     1  0.329632525712  0.093557084179
CC321C   CPH2     1  0.329632525712  0.093557084179
CC321C    CPM     1  0.329632525712  0.125520000000
CC321C    CPT     1  0.334977918021  0.131646486622
CC321C   CR2P     1  0.263634748672  0.170828164985
CC321C   CR33     1  0.338541512893  0.041840000000
CC321C   CR3P     1  0.244382427373  0.145299904804
CC321C   CRL1     1  0.338541512893  0.041840000000
CC321C   CRL2     1  0.338541512893  0.041840000000
CC321C   CRN1     1  0.347450500075  0.138767581228
CC321C     CS     1  0.365268474438  0.138767581228
CC321C    CST     1  0.308518226092  0.100764063435
CC321C     CT     1  0.338541512893  0.041840000000
CC321C    CT1     1  0.338541512893  0.041840000000
CC321C   CT1X     1  0.338541512893  0.041840000000
CC321C    CT2     1  0.338541512893  0.041840000000
CC321C   CT2A     1  0.338541512893  0.041840000000
CC321C   CT2P     1  0.338541512893  0.041840000000
CC321C   CT2X     1  0.338541512893  0.041840000000
CC321C    CT3     1  0.338541512893  0.041840000000
CC321C   CT3X     1  0.338541512893  0.041840000000
CC321C   CTD1     1  0.338541512893  0.041840000000
CC321C   CTL1     1  0.338541512893  0.041840000000
CC321C   CTL2     1  0.338541512893  0.041840000000
CC321C   CTL3     1  0.338541512893  0.041840000000
CC321C   CTL5     1  0.338541512893  0.041840000000
CC321C   CTO1     1  0.338541512893  0.041840000000
CC321C   CTO2     1  0.338541512893  0.041840000000
CC321C     CU     1  0.285800308779  0.908997471504
CC321C   CU1P     1  0.246066225950  0.180057894334
CC321C   CU2P     1  0.233869822499  0.162315474555
CC321C     CY     1  0.346559601357  0.113045454929
CC321C    DUM     1  0.169270756447  0.000000000000
CC321C   DY3P     1  0.297952167295  0.171135318061
CC321C   ER3P     1  0.291083338178  0.169232326746
CC321C   EU2P     1  0.333231756533  0.203602227414
CC321C   EU3P     1  0.304954631219  0.174528477447
CC321C     F1     1  0.314487247504  0.153729976257
CC321C     F2     1  0.314487247504  0.135577095411
CC321C     F3     1  0.311814551349  0.130309939452
CC321C     FA     1  0.320723538531  0.144938011577
CC321C     FE     1  0.227179173126  0.000000000000
CC321C   FE2P     1  0.265496726993  0.167098295383
CC321C   FE3P     1  0.219722350855  0.148045032716
CC321C   FGA1     1  0.314487247504  0.153729976257
CC321C   FGA2     1  0.314487247504  0.135577095411
CC321C   FGA3     1  0.311814551349  0.130309939452
CC321C   FGP1     1  0.311814551349  0.130309939452
CC321C   FGR1     1  0.320723538531  0.144938011577
CC321C    FNA     1  0.320723538531  0.144938011577
CC321C   GA3P     1  0.189485248361  0.145299904804
CC321C   GD3P     1  0.303351013527  0.173673803114
CC321C      H     1  0.189271432669  0.089736802707
CC321C     HA     1  0.286869387241  0.062058748940
CC321C    HA1     1  0.288651184677  0.088756043175
CC321C    HA2     1  0.288651184677  0.077149148019
CC321C    HA3     1  0.288651184677  0.064818249282
CC321C    HAL     1  0.286869387241  0.062058748940
CC321C   HAL1     1  0.286869387241  0.062058748940
CC321C   HAL2     1  0.288651184677  0.070011711020
CC321C   HAL3     1  0.288651184677  0.064818249282
CC321C     HB     1  0.286869387241  0.062058748940
CC321C    HB1     1  0.286869387241  0.062058748940
CC321C    HB2     1  0.288651184677  0.070011711020
CC321C    HBL     1  0.286869387241  0.062058748940
CC321C     HC     1  0.189271432669  0.089736802707
CC321C   HCA1     1  0.288651184677  0.088756043175
CC321C  HCA1A     1  0.288651184677  0.088756043175
CC321C HCA1C2     1  0.288651184677  0.088756043175
CC321C   HCA2     1  0.288651184677  0.078275472531
CC321C HCA25A     1  0.285087589805  0.078275472531
CC321C  HCA2A     1  0.288651184677  0.078275472531
CC321C HCA2C2     1  0.285087589805  0.078275472531
CC321C   HCA3     1  0.288651184677  0.064818249282
CC321C  HCA3A     1  0.288651184677  0.064818249282
CC321C  HCA3M     1  0.288651184677  0.064818249282
CC321C    HCL     1  0.189271432669  0.089736802707
CC321C   HCP1     1  0.189271432669  0.089736802707
CC321C  HCP1M     1  0.189271432669  0.089736802707
CC321C   HCR1     1  0.240542653898  0.089736802707
CC321C     HE     1  0.301123766731  0.061020452073
CC321C    HE1     1  0.280633096214  0.073666921749
CC321C    HE2     1  0.281523994932  0.067464972838
CC321C   HEL1     1  0.280633096214  0.073666921749
CC321C   HEL2     1  0.281523994932  0.067464972838
CC321C    HF1     1  0.286869387241  0.070011711020
CC321C    HF2     1  0.285087589805  0.072469005789
CC321C   HG2P     1  0.274557166956  0.189623385225
CC321C   HGA1     1  0.288651184677  0.088756043175
CC321C   HGA2     1  0.288651184677  0.078275472531
CC321C   HGA3     1  0.288651184677  0.064818249282
CC321C   HGA4     1  0.280633096214  0.073666921749
CC321C   HGA5     1  0.281523994932  0.067464972838
CC321C   HGA6     1  0.286869387241  0.070011711020
CC321C   HGA7     1  0.285087589805  0.072469005789
CC321C HGAAM0     1  0.283305792369  0.070011711020
CC321C HGAAM1     1  0.283305792369  0.070011711020
CC321C HGAAM2     1  0.281523994932  0.083680000000
CC321C   HGP1     1  0.189271432669  0.089736802707
CC321C   HGP2     1  0.189271432669  0.089736802707
CC321C   HGP3     1  0.209361198763  0.132309697301
CC321C   HGP4     1  0.189271432669  0.089736802707
CC321C   HGP5     1  0.231633666716  0.089736802707
CC321C HGPAM1     1  0.247224394284  0.039692909190
CC321C HGPAM2     1  0.247224394284  0.041840000000
CC321C HGPAM3     1  0.246778944925  0.045833423612
CC321C  HGR51     1  0.290272620344  0.072469005789
CC321C  HGR52     1  0.249451641079  0.089736802707
CC321C  HGR53     1  0.231633666716  0.089736802707
CC321C  HGR61     1  0.290272620344  0.072469005789
CC321C  HGR62     1  0.267269615442  0.089736802707
CC321C  HGR63     1  0.249451641079  0.089736802707
CC321C  HGR71     1  0.290272620344  0.072469005789
CC321C     HL     1  0.231633666716  0.089736802707
CC321C  HLGA1     1  0.288651184677  0.088756043175
CC321C  HLGA2     1  0.288651184677  0.078275472531
CC321C  HLGA3     1  0.288651184677  0.064818249282
CC321C  HLGA4     1  0.280633096214  0.073666921749
CC321C  HLGP1     1  0.189271432669  0.089736802707
CC321C HLGR52     1  0.249451641079  0.089736802707
CC321C HLGR61     1  0.290272620344  0.072469005789
CC321C HLGR62     1  0.267269615442  0.089736802707
CC321C    HN1     1  0.189271432669  0.089736802707
CC321C    HN2     1  0.189271432669  0.089736802707
CC321C    HN3     1  0.267269615442  0.089736802707
CC321C   HN3B     1  0.249451641079  0.089736802707
CC321C    HN4     1  0.189271432669  0.089736802707
CC321C    HN5     1  0.189271432669  0.089736802707
CC321C    HN6     1  0.286869387241  0.062058748940
CC321C    HN7     1  0.286869387241  0.062058748940
CC321C    HN8     1  0.288651184677  0.070011711020
CC321C    HN9     1  0.288651184677  0.064818249282
CC321C   HNE1     1  0.280633096214  0.073666921749
CC321C   HNE2     1  0.281523994932  0.067464972838
CC321C    HNP     1  0.290272620344  0.072469005789
CC321C   HO3P     1  0.293168041178  0.170263611896
CC321C    HOL     1  0.189271432669  0.089736802707
CC321C     HP     1  0.290272620344  0.072469005789
CC321C   HPER     1  0.189271432669  0.089736802707
CC321C    HR1     1  0.249451641079  0.089736802707
CC321C    HR2     1  0.231633666716  0.089736802707
CC321C    HR3     1  0.300054688270  0.036952087465
CC321C   HRA3     1  0.288651184677  0.064818249282
CC321C   HRM1     1  0.247224394284  0.039692909190
CC321C   HRM2     1  0.247224394284  0.041840000000
CC321C   HRP2     1  0.189271432669  0.089736802707
CC321C     HS     1  0.209361198763  0.132309697301
CC321C   HSIA     1  0.286869387241  0.062058748940
CC321C   HSIO     1  0.189271432669  0.089736802707
CC321C     HT     1  0.189271432669  0.089736802707
CC321C     HX     1  0.189271432669  0.089736802707
CC321C   IGR1     1  0.368832069310  0.301712530731
CC321C   IN3P     1  0.246449312399  0.160580590010
CC321C   LA3P     1  0.327200372211  0.182184255566
CC321C    LIT     1  0.284864865125  0.020196198771
CC321C    LPH     1  0.169270756447  0.000000000000
CC321C   LU3P     1  0.289648991242  0.166731218816
CC321C     MG     1  0.274842254546  0.051243325419
CC321C   MN2P     1  0.276508235149  0.171747976291
CC321C   MN3P     1  0.203516903172  0.148045032716
CC321C      N     1  0.334087019303  0.004184000000
CC321C     NC     1  0.334087019303  0.324091246411
CC321C    NC2     1  0.334087019303  0.187114168357
CC321C  NC2D1     1  0.307360057758  0.187114168357
CC321C  NC311     1  0.347450500075  0.088756043175
CC321C   ND3P     1  0.313587439798  0.177117175768
CC321C     NE     1  0.305578260322  0.122698965603
CC321C  NG1T1     1  0.328741626994  0.177512086349
CC321C  NG2D1     1  0.334087019303  0.187114168357
CC321C  NG2O1     1  0.334087019303  0.187114168357
CC321C  NG2P1     1  0.334087019303  0.187114168357
CC321C NG2R43     1  0.334087019303  0.187114168357
CC321C NG2R50     1  0.334087019303  0.187114168357
CC321C NG2R51     1  0.334087019303  0.187114168357
CC321C NG2R52     1  0.334087019303  0.187114168357
CC321C NG2R53     1  0.334087019303  0.187114168357
CC321C NG2R57     1  0.334087019303  0.187114168357
CC321C NG2R60     1  0.337650614175  0.102486650838
CC321C NG2R61     1  0.334087019303  0.187114168357
CC321C NG2R62     1  0.352795892384  0.093557084179
CC321C NG2R67     1  0.334087019303  0.187114168357
CC321C NG2RC0     1  0.334087019303  0.187114168357
CC321C  NG2S0     1  0.334087019303  0.004184000000
CC321C  NG2S1     1  0.307360057758  0.187114168357
CC321C  NG2S2     1  0.334087019303  0.187114168357
CC321C  NG2S3     1  0.334087019303  0.187114168357
CC321C  NG301     1  0.347450500075  0.078275472531
CC321C  NG311     1  0.347450500075  0.088756043175
CC321C  NG321     1  0.346559601357  0.102486650838
CC321C  NG331     1  0.345668702638  0.110698234855
CC321C NG3C51     1  0.334087019303  0.187114168357
CC321C  NG3N1     1  0.351904993665  0.102486650838
CC321C  NG3P0     1  0.334087019303  0.187114168357
CC321C  NG3P1     1  0.334087019303  0.187114168357
CC321C  NG3P2     1  0.334087019303  0.187114168357
CC321C  NG3P3     1  0.334087019303  0.187114168357
CC321C    NH1     1  0.307360057758  0.187114168357
CC321C    NH2     1  0.334087019303  0.187114168357
CC321C    NH3     1  0.334087019303  0.187114168357
CC321C   NH3L     1  0.334087019303  0.187114168357
CC321C    NHL     1  0.307360057758  0.187114168357
CC321C     NI     1  0.282949432881  0.994525446633
CC321C   NI2P     1  0.238787583423  0.158440517242
CC321C    NN1     1  0.334087019303  0.187114168357
CC321C   NN1C     1  0.334087019303  0.187114168357
CC321C    NN2     1  0.334087019303  0.187114168357
CC321C   NN2B     1  0.334087019303  0.187114168357
CC321C   NN2C     1  0.334087019303  0.187114168357
CC321C   NN2G     1  0.334087019303  0.187114168357
CC321C   NN2U     1  0.334087019303  0.187114168357
CC321C    NN3     1  0.334087019303  0.187114168357
CC321C   NN3A     1  0.334087019303  0.187114168357
CC321C   NN3G     1  0.334087019303  0.187114168357
CC321C   NN3I     1  0.334087019303  0.187114168357
CC321C    NN4     1  0.334087019303  0.187114168357
CC321C    NN6     1  0.334087019303  0.187114168357
CC321C    NNG     1  0.334087019303  0.187114168357
CC321C     NP     1  0.334087019303  0.187114168357
CC321C    NPH     1  0.334087019303  0.187114168357
CC321C    NR1     1  0.334087019303  0.187114168357
CC321C    NR2     1  0.334087019303  0.187114168357
CC321C    NR3     1  0.334087019303  0.187114168357
CC321C   NRC4     1  0.334087019303  0.187114168357
CC321C   NRN1     1  0.347450500075  0.280671252536
CC321C   NRN2     1  0.346559601357  0.102486650838
CC321C    NS1     1  0.334087019303  0.187114168357
CC321C    NS2     1  0.334087019303  0.187114168357
CC321C    NTL     1  0.334087019303  0.187114168357
CC321C     NY     1  0.334087019303  0.187114168357
CC321C      O     1  0.293996576986  0.144938011577
CC321C    O2L     1  0.320723538531  0.144938011577
CC321C    OAL     1  0.326959829558  0.163176000000
CC321C     OB     1  0.293996576986  0.144938011577
CC321C    OBL     1  0.293996576986  0.144938011577
CC321C     OC     1  0.320723538531  0.144938011577
CC321C  OC2D1     1  0.293996576986  0.144938011577
CC321C  OC2D2     1  0.320723538531  0.144938011577
CC321C  OC2D3     1  0.293996576986  0.144938011577
CC321C  OC2D4     1  0.293996576986  0.144938011577
CC321C  OC2DP     1  0.320723538531  0.144938011577
CC321C  OC301     1  0.316269044940  0.132309697301
CC321C  OC302     1  0.316269044940  0.132309697301
CC321C  OC303     1  0.316269044940  0.132309697301
CC321C OC305A     1  0.316269044940  0.132309697301
CC321C  OC30A     1  0.316269044940  0.132309697301
CC321C  OC30P     1  0.326959829558  0.163176000000
CC321C  OC311     1  0.326514380198  0.183381431383
CC321C OC311M     1  0.326514380198  0.183381431383
CC321C  OC312     1  0.326959829558  0.163176000000
CC321C OC3C51     1  0.316269044940  0.132309697301
CC321C OC3C5M     1  0.316269044940  0.132309697301
CC321C OC3C61     1  0.316269044940  0.132309697301
CC321C    OCA     1  0.293996576986  0.144938011577
CC321C    OCL     1  0.320723538531  0.144938011577
CC321C  OG2D1     1  0.293996576986  0.144938011577
CC321C  OG2D2     1  0.320723538531  0.144938011577
CC321C  OG2D3     1  0.293996576986  0.144938011577
CC321C  OG2D4     1  0.320723538531  0.144938011577
CC321C  OG2D5     1  0.320010819556  0.169954883425
CC321C  OG2N1     1  0.320723538531  0.144938011577
CC321C  OG2P1     1  0.320723538531  0.144938011577
CC321C OG2R50     1  0.320723538531  0.144938011577
CC321C  OG2S1     1  0.318906105146  0.157831660601
CC321C  OG301     1  0.316269044940  0.132309697301
CC321C  OG302     1  0.316269044940  0.132309697301
CC321C  OG303     1  0.316269044940  0.132309697301
CC321C  OG304     1  0.316269044940  0.132309697301
CC321C  OG311     1  0.326514380198  0.183381431383
CC321C  OG312     1  0.325178032121  0.144938011577
CC321C OG3C31     1  0.316269044940  0.132309697301
CC321C OG3C51     1  0.316269044940  0.132309697301
CC321C OG3C61     1  0.316269044940  0.132309697301
CC321C OG3R60     1  0.316269044940  0.132309697301
CC321C    OH1     1  0.326959829558  0.163176000000
CC321C    OHL     1  0.326959829558  0.163176000000
CC321C   OLG1     1  0.293996576986  0.144938011577
CC321C   OLG2     1  0.320723538531  0.144938011577
CC321C   OLG3     1  0.320723538531  0.144938011577
CC321C   OLG4     1  0.316269044940  0.132309697301
CC321C   OLG5     1  0.316269044940  0.132309697301
CC321C   OLG6     1  0.326514380198  0.183381431383
CC321C   OLG7     1  0.316269044940  0.132309697301
CC321C   OLG8     1  0.316269044940  0.132309697301
CC321C     OM     1  0.320723538531  0.144938011577
CC321C    ON1     1  0.320723538531  0.144938011577
CC321C   ON1C     1  0.320723538531  0.144938011577
CC321C    ON2     1  0.326959829558  0.163176000000
CC321C   ON2B     1  0.326959829558  0.163176000000
CC321C   ON2M     1  0.316269044940  0.132309697301
CC321C    ON3     1  0.320723538531  0.144938011577
CC321C    ON4     1  0.326959829558  0.163176000000
CC321C    ON5     1  0.326959829558  0.163176000000
CC321C    ON6     1  0.326959829558  0.163176000000
CC321C   ON6B     1  0.326959829558  0.163176000000
CC321C   OPER     1  0.318427692534  0.188901923946
CC321C     OS     1  0.326959829558  0.163176000000
CC321C   OSIA     1  0.326959829558  0.163176000000
CC321C   OSIE     1  0.326959829558  0.163176000000
CC321C   OSIH     1  0.326959829558  0.163176000000
CC321C    OSL     1  0.316269044940  0.132309697301
CC321C   OSLP     1  0.316269044940  0.132309697301
CC321C    OST     1  0.320010819556  0.169954883425
CC321C     OT     1  0.326799467788  0.163176000000
CC321C     OX     1  0.320723538531  0.144938011577
CC321C      P     1  0.360813980847  0.320014464673
CC321C     P2     1  0.360813980847  0.320014464673
CC321C     P3     1  0.360813980847  0.320014464673
CC321C     P4     1  0.360813980847  0.320014464673
CC321C     PB     1  0.328073452955  0.716185437439
CC321C   PB2P     1  0.325890751096  0.204716924713
CC321C     PC     1  0.360813980847  0.320014464673
CC321C     PD     1  0.294842930769  1.037598257516
CC321C   PD2P     1  0.251865976605  0.174628752363
CC321C    PG0     1  0.360813980847  0.320014464673
CC321C    PG1     1  0.360813980847  0.320014464673
CC321C    PG2     1  0.360813980847  0.320014464673
CC321C     PL     1  0.360813980847  0.320014464673
CC321C   PM3P     1  0.316910492017  0.176275053255
CC321C    POT     1  0.326403017859  0.123410269913
CC321C   PR3P     1  0.317079762773  0.178642591472
CC321C     PT     1  0.296001099102  1.168527606863
CC321C   PT2P     1  0.240284293270  0.168973521997
CC321C   PU3P     1  0.318024115415  0.179522368790
CC321C   RA2P     1  0.355459679551  0.229891668540
CC321C   RH3P     1  0.210367914314  0.149983415617
CC321C    RUB     1  0.338541512893  0.162045623205
CC321C      S     1  0.347450500075  0.280671252536
CC321C     SC     1  0.356359487256  0.286840588481
CC321C   SC3P     1  0.266993436839  0.157109060719
CC321C  SEGD1     1  0.363041227642  0.330244580395
CC321C  SG2D1     1  0.351904993665  0.314496560236
CC321C  SG2P1     1  0.355798221064  0.332305491450
CC321C  SG2P2     1  0.352314807076  0.329421919951
CC321C SG2R50     1  0.347450500075  0.280671252536
CC321C  SG301     1  0.345223253279  0.257919081884
CC321C  SG302     1  0.365268474438  0.286840588481
CC321C  SG311     1  0.347450500075  0.280671252536
CC321C  SG3O1     1  0.356359487256  0.286840588481
CC321C  SG3O2     1  0.347450500075  0.247528778125
CC321C  SG3O3     1  0.347450500075  0.247528778125
CC321C     SI     1  0.365268474438  0.324091246411
CC321C   SIH3     1  0.365268474438  0.324091246411
CC321C     SL     1  0.356359487256  0.286840588481
CC321C     SM     1  0.345223253279  0.257919081884
CC321C   SM2P     1  0.334666103469  0.207012887251
CC321C   SM3P     1  0.308847858618  0.175378986746
CC321C   SN2P     1  0.316981763914  0.181365662197
CC321C    SOD     1  0.294954293108  0.090610410351
CC321C     SP     1  0.365268474438  0.280671252536
CC321C   SR2P     1  0.334612649546  0.200133451797
CC321C     SS     1  0.365268474438  0.286840588481
CC321C   TB3P     1  0.300678317372  0.172155203837
CC321C   TI1P     1  0.341276571958  0.266826378666
CC321C   TI3P     1  0.243117351193  0.149983415617
CC321C   TL3P     1  0.246716582015  0.168869889039
CC321C   TM3P     1  0.289417357575  0.168402751521
CC321C    U3P     1  0.320830446377  0.182184255566
CC321C    V2P     1  0.267599247968  0.167830039933
CC321C    V3P     1  0.223989755715  0.147096016316
CC321C    Y3P     1  0.295190381269  0.170263611896
CC321C   YB2P     1  0.312616360195  0.189623385225
CC321C   YB3P     1  0.284659958420  0.167569069413
CC321C     ZN     1  0.266378716724  0.209200000000
CC321D CC321D     1  0.338541512893  0.041840000000
CC321D  CC322     1  0.338541512893  0.041840000000
CC321D CC322C     1  0.338541512893  0.041840000000
CC321D CC3251     1  0.338541512893  0.041840000000
CC321D CC325A     1  0.338541512893  0.041840000000
CC321D CC325B     1  0.338541512893  0.041840000000
CC321D CC3261     1  0.338541512893  0.041840000000
CC321D CC3263     1  0.338541512893  0.041840000000
CC321D CC326A     1  0.338541512893  0.041840000000
CC321D  CC32A     1  0.338541512893  0.041840000000
CC321D  CC331     1  0.338541512893  0.041840000000
CC321D  CC33A     1  0.338541512893  0.041840000000
CC321D    CCL     1  0.347450500075  0.110698234855
CC321D     CD     1  0.347450500075  0.110698234855
CC321D    CE1     1  0.355468588538  0.109105371453
CC321D    CE2     1  0.354577689820  0.105847757841
CC321D   CE3P     1  0.321748072056  0.179522368790
CC321D   CEL1     1  0.355468588538  0.109105371453
CC321D   CEL2     1  0.354577689820  0.105847757841
CC321D   CEL3     1  0.355468588538  0.109105371453
CC321D    CES     1  0.356359487256  0.182376331798
CC321D    CF1     1  0.338541512893  0.102486650838
CC321D    CF2     1  0.351904993665  0.085746484010
CC321D    CF3     1  0.374177461619  0.059170695450
CC321D  CG1N1     1  0.335868816739  0.177512086349
CC321D  CG1T1     1  0.333196120584  0.170981810495
CC321D  CG1T2     1  0.346782326036  0.134409982486
CC321D CG251O     1  0.355468588538  0.109105371453
CC321D CG252O     1  0.355468588538  0.109105371453
CC321D CG25C1     1  0.355468588538  0.109105371453
CC321D CG25C2     1  0.355468588538  0.109105371453
CC321D  CG2D1     1  0.355468588538  0.109105371453
CC321D CG2D1O     1  0.355468588538  0.109105371453
CC321D  CG2D2     1  0.354577689820  0.105847757841
CC321D CG2D2O     1  0.355468588538  0.109105371453
CC321D CG2DC1     1  0.355468588538  0.109105371453
CC321D CG2DC2     1  0.355468588538  0.109105371453
CC321D CG2DC3     1  0.354577689820  0.105847757841
CC321D  CG2N1     1  0.347450500075  0.138767581228
CC321D  CG2N2     1  0.347450500075  0.138767581228
CC321D  CG2O1     1  0.347450500075  0.138767581228
CC321D  CG2O2     1  0.320723538531  0.130979917850
CC321D  CG2O3     1  0.347450500075  0.110698234855
CC321D  CG2O4     1  0.329632525712  0.102486650838
CC321D  CG2O5     1  0.347450500075  0.125520000000
CC321D  CG2O6     1  0.347450500075  0.110698234855
CC321D  CG2O7     1  0.308518226092  0.100764063435
CC321D CG2R51     1  0.356359487256  0.093557084179
CC321D CG2R52     1  0.365268474438  0.059170695450
CC321D CG2R53     1  0.365268474438  0.059170695450
CC321D CG2R57     1  0.356359487256  0.093557084179
CC321D CG2R61     1  0.346773417049  0.110698234855
CC321D CG2R62     1  0.338541512893  0.125520000000
CC321D CG2R63     1  0.338541512893  0.132309697301
CC321D CG2R64     1  0.356359487256  0.083680000000
CC321D CG2R66     1  0.338541512893  0.110698234855
CC321D CG2R67     1  0.346773417049  0.110698234855
CC321D CG2R71     1  0.346987232741  0.108300154755
CC321D CG2RC0     1  0.334977918021  0.131646486622
CC321D CG2RC7     1  0.334977918021  0.131646486622
CC321D  CG301     1  0.338541512893  0.041840000000
CC321D  CG302     1  0.374177461619  0.059170695450
CC321D  CG311     1  0.338541512893  0.041840000000
CC321D  CG312     1  0.351904993665  0.085746484010
CC321D  CG314     1  0.338541512893  0.041840000000
CC321D  CG321     1  0.338541512893  0.041840000000
CC321D  CG322     1  0.338541512893  0.102486650838
CC321D  CG323     1  0.365268474438  0.138767581228
CC321D  CG324     1  0.338541512893  0.041840000000
CC321D  CG331     1  0.338541512893  0.041840000000
CC321D  CG334     1  0.338541512893  0.041840000000
CC321D CG3AM0     1  0.344777803920  0.110698234855
CC321D CG3AM1     1  0.345668702638  0.116852760686
CC321D CG3AM2     1  0.346559601357  0.118341390899
CC321D CG3C31     1  0.338541512893  0.041840000000
CC321D CG3C41     1  0.338541512893  0.041840000000
CC321D CG3C50     1  0.338541512893  0.041840000000
CC321D CG3C51     1  0.338541512893  0.041840000000
CC321D CG3C52     1  0.338541512893  0.041840000000
CC321D CG3C53     1  0.338541512893  0.041840000000
CC321D CG3C54     1  0.338541512893  0.041840000000
CC321D CG3RC1     1  0.338541512893  0.041840000000
CC321D     CL     1  0.347450500075  0.110698234855
CC321D    CLA     1  0.371504765465  0.162045623205
CC321D   CLAL     1  0.339272049842  0.072469005789
CC321D  CLG01     1  0.355468588538  0.109105371453
CC321D  CLG02     1  0.355468588538  0.109105371453
CC321D  CLG03     1  0.320723538531  0.130979917850
CC321D  CLG04     1  0.347450500075  0.110698234855
CC321D  CLG05     1  0.329632525712  0.102486650838
CC321D  CLG06     1  0.346773417049  0.110698234855
CC321D CLG06A     1  0.346773417049  0.110698234855
CC321D CLG06B     1  0.346773417049  0.110698234855
CC321D  CLG07     1  0.338541512893  0.125520000000
CC321D  CLG08     1  0.338541512893  0.132309697301
CC321D  CLG09     1  0.346773417049  0.110698234855
CC321D  CLG10     1  0.334977918021  0.131646486622
CC321D  CLG11     1  0.338541512893  0.041840000000
CC321D  CLG12     1  0.338541512893  0.041840000000
CC321D  CLG13     1  0.338541512893  0.041840000000
CC321D  CLG14     1  0.338541512893  0.041840000000
CC321D  CLG15     1  0.338541512893  0.041840000000
CC321D  CLG16     1  0.338541512893  0.041840000000
CC321D  CLGA1     1  0.339432411611  0.245040988571
CC321D  CLGA3     1  0.339432411611  0.232955260941
CC321D  CLGR1     1  0.334977918021  0.200657590935
CC321D     CM     1  0.356359487256  0.138767581228
CC321D     CN     1  0.325178032121  0.187114168357
CC321D    CN1     1  0.338541512893  0.132309697301
CC321D   CN1A     1  0.347450500075  0.110698234855
CC321D   CN1T     1  0.338541512893  0.132309697301
CC321D    CN2     1  0.338541512893  0.132309697301
CC321D    CN3     1  0.338541512893  0.125520000000
CC321D   CN3A     1  0.329632525712  0.177512086349
CC321D   CN3B     1  0.329632525712  0.177512086349
CC321D   CN3C     1  0.329632525712  0.177512086349
CC321D   CN3D     1  0.338541512893  0.125520000000
CC321D   CN3T     1  0.338541512893  0.125520000000
CC321D    CN4     1  0.338541512893  0.114583559030
CC321D    CN5     1  0.338541512893  0.114583559030
CC321D   CN5G     1  0.338541512893  0.114583559030
CC321D    CN6     1  0.338541512893  0.041840000000
CC321D    CN7     1  0.338541512893  0.041840000000
CC321D   CN7B     1  0.338541512893  0.041840000000
CC321D   CN7E     1  0.338541512893  0.041840000000
CC321D    CN8     1  0.338541512893  0.041840000000
CC321D   CN8B     1  0.338541512893  0.041840000000
CC321D    CN9     1  0.338541512893  0.041840000000
CC321D    CNA     1  0.346773417049  0.110698234855
CC321D   CNA2     1  0.338541512893  0.110698234855
CC321D   CNE1     1  0.355468588538  0.109105371453
CC321D   CNE2     1  0.354577689820  0.105847757841
CC321D    CNG     1  0.347450500075  0.138767581228
CC321D   CO2P     1  0.251910521541  0.164138698618
CC321D   CO3P     1  0.192264852362  0.144393471099
CC321D    COA     1  0.347450500075  0.138767581228
CC321D    CP1     1  0.338541512893  0.041840000000
CC321D    CP2     1  0.338541512893  0.041840000000
CC321D    CP3     1  0.338541512893  0.041840000000
CC321D    CPA     1  0.329632525712  0.125520000000
CC321D    CPB     1  0.329632525712  0.125520000000
CC321D   CPD1     1  0.338541512893  0.041840000000
CC321D   CPH1     1  0.329632525712  0.093557084179
CC321D   CPH2     1  0.329632525712  0.093557084179
CC321D    CPM     1  0.329632525712  0.125520000000
CC321D    CPT     1  0.334977918021  0.131646486622
CC321D   CR2P     1  0.263634748672  0.170828164985
CC321D   CR33     1  0.338541512893  0.041840000000
CC321D   CR3P     1  0.244382427373  0.145299904804
CC321D   CRL1     1  0.338541512893  0.041840000000
CC321D   CRL2     1  0.338541512893  0.041840000000
CC321D   CRN1     1  0.347450500075  0.138767581228
CC321D     CS     1  0.365268474438  0.138767581228
CC321D    CST     1  0.308518226092  0.100764063435
CC321D     CT     1  0.338541512893  0.041840000000
CC321D    CT1     1  0.338541512893  0.041840000000
CC321D   CT1X     1  0.338541512893  0.041840000000
CC321D    CT2     1  0.338541512893  0.041840000000
CC321D   CT2A     1  0.338541512893  0.041840000000
CC321D   CT2P     1  0.338541512893  0.041840000000
CC321D   CT2X     1  0.338541512893  0.041840000000
CC321D    CT3     1  0.338541512893  0.041840000000
CC321D   CT3X     1  0.338541512893  0.041840000000
CC321D   CTD1     1  0.338541512893  0.041840000000
CC321D   CTL1     1  0.338541512893  0.041840000000
CC321D   CTL2     1  0.338541512893  0.041840000000
CC321D   CTL3     1  0.338541512893  0.041840000000
CC321D   CTL5     1  0.338541512893  0.041840000000
CC321D   CTO1     1  0.338541512893  0.041840000000
CC321D   CTO2     1  0.338541512893  0.041840000000
CC321D     CU     1  0.285800308779  0.908997471504
CC321D   CU1P     1  0.246066225950  0.180057894334
CC321D   CU2P     1  0.233869822499  0.162315474555
CC321D     CY     1  0.346559601357  0.113045454929
CC321D    DUM     1  0.169270756447  0.000000000000
CC321D   DY3P     1  0.297952167295  0.171135318061
CC321D   ER3P     1  0.291083338178  0.169232326746
CC321D   EU2P     1  0.333231756533  0.203602227414
CC321D   EU3P     1  0.304954631219  0.174528477447
CC321D     F1     1  0.314487247504  0.153729976257
CC321D     F2     1  0.314487247504  0.135577095411
CC321D     F3     1  0.311814551349  0.130309939452
CC321D     FA     1  0.320723538531  0.144938011577
CC321D     FE     1  0.227179173126  0.000000000000
CC321D   FE2P     1  0.265496726993  0.167098295383
CC321D   FE3P     1  0.219722350855  0.148045032716
CC321D   FGA1     1  0.314487247504  0.153729976257
CC321D   FGA2     1  0.314487247504  0.135577095411
CC321D   FGA3     1  0.311814551349  0.130309939452
CC321D   FGP1     1  0.311814551349  0.130309939452
CC321D   FGR1     1  0.320723538531  0.144938011577
CC321D    FNA     1  0.320723538531  0.144938011577
CC321D   GA3P     1  0.189485248361  0.145299904804
CC321D   GD3P     1  0.303351013527  0.173673803114
CC321D      H     1  0.189271432669  0.089736802707
CC321D     HA     1  0.286869387241  0.062058748940
CC321D    HA1     1  0.288651184677  0.088756043175
CC321D    HA2     1  0.288651184677  0.077149148019
CC321D    HA3     1  0.288651184677  0.064818249282
CC321D    HAL     1  0.286869387241  0.062058748940
CC321D   HAL1     1  0.286869387241  0.062058748940
CC321D   HAL2     1  0.288651184677  0.070011711020
CC321D   HAL3     1  0.288651184677  0.064818249282
CC321D     HB     1  0.286869387241  0.062058748940
CC321D    HB1     1  0.286869387241  0.062058748940
CC321D    HB2     1  0.288651184677  0.070011711020
CC321D    HBL     1  0.286869387241  0.062058748940
CC321D     HC     1  0.189271432669  0.089736802707
CC321D   HCA1     1  0.288651184677  0.088756043175
CC321D  HCA1A     1  0.288651184677  0.088756043175
CC321D HCA1C2     1  0.288651184677  0.088756043175
CC321D   HCA2     1  0.288651184677  0.078275472531
CC321D HCA25A     1  0.285087589805  0.078275472531
CC321D  HCA2A     1  0.288651184677  0.078275472531
CC321D HCA2C2     1  0.285087589805  0.078275472531
CC321D   HCA3     1  0.288651184677  0.064818249282
CC321D  HCA3A     1  0.288651184677  0.064818249282
CC321D  HCA3M     1  0.288651184677  0.064818249282
CC321D    HCL     1  0.189271432669  0.089736802707
CC321D   HCP1     1  0.189271432669  0.089736802707
CC321D  HCP1M     1  0.189271432669  0.089736802707
CC321D   HCR1     1  0.240542653898  0.089736802707
CC321D     HE     1  0.301123766731  0.061020452073
CC321D    HE1     1  0.280633096214  0.073666921749
CC321D    HE2     1  0.281523994932  0.067464972838
CC321D   HEL1     1  0.280633096214  0.073666921749
CC321D   HEL2     1  0.281523994932  0.067464972838
CC321D    HF1     1  0.286869387241  0.070011711020
CC321D    HF2     1  0.285087589805  0.072469005789
CC321D   HG2P     1  0.274557166956  0.189623385225
CC321D   HGA1     1  0.288651184677  0.088756043175
CC321D   HGA2     1  0.288651184677  0.078275472531
CC321D   HGA3     1  0.288651184677  0.064818249282
CC321D   HGA4     1  0.280633096214  0.073666921749
CC321D   HGA5     1  0.281523994932  0.067464972838
CC321D   HGA6     1  0.286869387241  0.070011711020
CC321D   HGA7     1  0.285087589805  0.072469005789
CC321D HGAAM0     1  0.283305792369  0.070011711020
CC321D HGAAM1     1  0.283305792369  0.070011711020
CC321D HGAAM2     1  0.281523994932  0.083680000000
CC321D   HGP1     1  0.189271432669  0.089736802707
CC321D   HGP2     1  0.189271432669  0.089736802707
CC321D   HGP3     1  0.209361198763  0.132309697301
CC321D   HGP4     1  0.189271432669  0.089736802707
CC321D   HGP5     1  0.231633666716  0.089736802707
CC321D HGPAM1     1  0.247224394284  0.039692909190
CC321D HGPAM2     1  0.247224394284  0.041840000000
CC321D HGPAM3     1  0.246778944925  0.045833423612
CC321D  HGR51     1  0.290272620344  0.072469005789
CC321D  HGR52     1  0.249451641079  0.089736802707
CC321D  HGR53     1  0.231633666716  0.089736802707
CC321D  HGR61     1  0.290272620344  0.072469005789
CC321D  HGR62     1  0.267269615442  0.089736802707
CC321D  HGR63     1  0.249451641079  0.089736802707
CC321D  HGR71     1  0.290272620344  0.072469005789
CC321D     HL     1  0.231633666716  0.089736802707
CC321D  HLGA1     1  0.288651184677  0.088756043175
CC321D  HLGA2     1  0.288651184677  0.078275472531
CC321D  HLGA3     1  0.288651184677  0.064818249282
CC321D  HLGA4     1  0.280633096214  0.073666921749
CC321D  HLGP1     1  0.189271432669  0.089736802707
CC321D HLGR52     1  0.249451641079  0.089736802707
CC321D HLGR61     1  0.290272620344  0.072469005789
CC321D HLGR62     1  0.267269615442  0.089736802707
CC321D    HN1     1  0.189271432669  0.089736802707
CC321D    HN2     1  0.189271432669  0.089736802707
CC321D    HN3     1  0.267269615442  0.089736802707
CC321D   HN3B     1  0.249451641079  0.089736802707
CC321D    HN4     1  0.189271432669  0.089736802707
CC321D    HN5     1  0.189271432669  0.089736802707
CC321D    HN6     1  0.286869387241  0.062058748940
CC321D    HN7     1  0.286869387241  0.062058748940
CC321D    HN8     1  0.288651184677  0.070011711020
CC321D    HN9     1  0.288651184677  0.064818249282
CC321D   HNE1     1  0.280633096214  0.073666921749
CC321D   HNE2     1  0.281523994932  0.067464972838
CC321D    HNP     1  0.290272620344  0.072469005789
CC321D   HO3P     1  0.293168041178  0.170263611896
CC321D    HOL     1  0.189271432669  0.089736802707
CC321D     HP     1  0.290272620344  0.072469005789
CC321D   HPER     1  0.189271432669  0.089736802707
CC321D    HR1     1  0.249451641079  0.089736802707
CC321D    HR2     1  0.231633666716  0.089736802707
CC321D    HR3     1  0.300054688270  0.036952087465
CC321D   HRA3     1  0.288651184677  0.064818249282
CC321D   HRM1     1  0.247224394284  0.039692909190
CC321D   HRM2     1  0.247224394284  0.041840000000
CC321D   HRP2     1  0.189271432669  0.089736802707
CC321D     HS     1  0.209361198763  0.132309697301
CC321D   HSIA     1  0.286869387241  0.062058748940
CC321D   HSIO     1  0.189271432669  0.089736802707
CC321D     HT     1  0.189271432669  0.089736802707
CC321D     HX     1  0.189271432669  0.089736802707
CC321D   IGR1     1  0.368832069310  0.301712530731
CC321D   IN3P     1  0.246449312399  0.160580590010
CC321D   LA3P     1  0.327200372211  0.182184255566
CC321D    LIT     1  0.284864865125  0.020196198771
CC321D    LPH     1  0.169270756447  0.000000000000
CC321D   LU3P     1  0.289648991242  0.166731218816
CC321D     MG     1  0.274842254546  0.051243325419
CC321D   MN2P     1  0.276508235149  0.171747976291
CC321D   MN3P     1  0.203516903172  0.148045032716
CC321D      N     1  0.334087019303  0.004184000000
CC321D     NC     1  0.334087019303  0.324091246411
CC321D    NC2     1  0.334087019303  0.187114168357
CC321D  NC2D1     1  0.307360057758  0.187114168357
CC321D  NC311     1  0.347450500075  0.088756043175
CC321D   ND3P     1  0.313587439798  0.177117175768
CC321D     NE     1  0.305578260322  0.122698965603
CC321D  NG1T1     1  0.328741626994  0.177512086349
CC321D  NG2D1     1  0.334087019303  0.187114168357
CC321D  NG2O1     1  0.334087019303  0.187114168357
CC321D  NG2P1     1  0.334087019303  0.187114168357
CC321D NG2R43     1  0.334087019303  0.187114168357
CC321D NG2R50     1  0.334087019303  0.187114168357
CC321D NG2R51     1  0.334087019303  0.187114168357
CC321D NG2R52     1  0.334087019303  0.187114168357
CC321D NG2R53     1  0.334087019303  0.187114168357
CC321D NG2R57     1  0.334087019303  0.187114168357
CC321D NG2R60     1  0.337650614175  0.102486650838
CC321D NG2R61     1  0.334087019303  0.187114168357
CC321D NG2R62     1  0.352795892384  0.093557084179
CC321D NG2R67     1  0.334087019303  0.187114168357
CC321D NG2RC0     1  0.334087019303  0.187114168357
CC321D  NG2S0     1  0.334087019303  0.004184000000
CC321D  NG2S1     1  0.307360057758  0.187114168357
CC321D  NG2S2     1  0.334087019303  0.187114168357
CC321D  NG2S3     1  0.334087019303  0.187114168357
CC321D  NG301     1  0.347450500075  0.078275472531
CC321D  NG311     1  0.347450500075  0.088756043175
CC321D  NG321     1  0.346559601357  0.102486650838
CC321D  NG331     1  0.345668702638  0.110698234855
CC321D NG3C51     1  0.334087019303  0.187114168357
CC321D  NG3N1     1  0.351904993665  0.102486650838
CC321D  NG3P0     1  0.334087019303  0.187114168357
CC321D  NG3P1     1  0.334087019303  0.187114168357
CC321D  NG3P2     1  0.334087019303  0.187114168357
CC321D  NG3P3     1  0.334087019303  0.187114168357
CC321D    NH1     1  0.307360057758  0.187114168357
CC321D    NH2     1  0.334087019303  0.187114168357
CC321D    NH3     1  0.334087019303  0.187114168357
CC321D   NH3L     1  0.334087019303  0.187114168357
CC321D    NHL     1  0.307360057758  0.187114168357
CC321D     NI     1  0.282949432881  0.994525446633
CC321D   NI2P     1  0.238787583423  0.158440517242
CC321D    NN1     1  0.334087019303  0.187114168357
CC321D   NN1C     1  0.334087019303  0.187114168357
CC321D    NN2     1  0.334087019303  0.187114168357
CC321D   NN2B     1  0.334087019303  0.187114168357
CC321D   NN2C     1  0.334087019303  0.187114168357
CC321D   NN2G     1  0.334087019303  0.187114168357
CC321D   NN2U     1  0.334087019303  0.187114168357
CC321D    NN3     1  0.334087019303  0.187114168357
CC321D   NN3A     1  0.334087019303  0.187114168357
CC321D   NN3G     1  0.334087019303  0.187114168357
CC321D   NN3I     1  0.334087019303  0.187114168357
CC321D    NN4     1  0.334087019303  0.187114168357
CC321D    NN6     1  0.334087019303  0.187114168357
CC321D    NNG     1  0.334087019303  0.187114168357
CC321D     NP     1  0.334087019303  0.187114168357
CC321D    NPH     1  0.334087019303  0.187114168357
CC321D    NR1     1  0.334087019303  0.187114168357
CC321D    NR2     1  0.334087019303  0.187114168357
CC321D    NR3     1  0.334087019303  0.187114168357
CC321D   NRC4     1  0.334087019303  0.187114168357
CC321D   NRN1     1  0.347450500075  0.280671252536
CC321D   NRN2     1  0.346559601357  0.102486650838
CC321D    NS1     1  0.334087019303  0.187114168357
CC321D    NS2     1  0.334087019303  0.187114168357
CC321D    NTL     1  0.334087019303  0.187114168357
CC321D     NY     1  0.334087019303  0.187114168357
CC321D      O     1  0.293996576986  0.144938011577
CC321D    O2L     1  0.320723538531  0.144938011577
CC321D    OAL     1  0.326959829558  0.163176000000
CC321D     OB     1  0.293996576986  0.144938011577
CC321D    OBL     1  0.293996576986  0.144938011577
CC321D     OC     1  0.320723538531  0.144938011577
CC321D  OC2D1     1  0.293996576986  0.144938011577
CC321D  OC2D2     1  0.320723538531  0.144938011577
CC321D  OC2D3     1  0.293996576986  0.144938011577
CC321D  OC2D4     1  0.293996576986  0.144938011577
CC321D  OC2DP     1  0.320723538531  0.144938011577
CC321D  OC301     1  0.316269044940  0.132309697301
CC321D  OC302     1  0.316269044940  0.132309697301
CC321D  OC303     1  0.316269044940  0.132309697301
CC321D OC305A     1  0.316269044940  0.132309697301
CC321D  OC30A     1  0.316269044940  0.132309697301
CC321D  OC30P     1  0.326959829558  0.163176000000
CC321D  OC311     1  0.326514380198  0.183381431383
CC321D OC311M     1  0.326514380198  0.183381431383
CC321D  OC312     1  0.326959829558  0.163176000000
CC321D OC3C51     1  0.316269044940  0.132309697301
CC321D OC3C5M     1  0.316269044940  0.132309697301
CC321D OC3C61     1  0.316269044940  0.132309697301
CC321D    OCA     1  0.293996576986  0.144938011577
CC321D    OCL     1  0.320723538531  0.144938011577
CC321D  OG2D1     1  0.293996576986  0.144938011577
CC321D  OG2D2     1  0.320723538531  0.144938011577
CC321D  OG2D3     1  0.293996576986  0.144938011577
CC321D  OG2D4     1  0.320723538531  0.144938011577
CC321D  OG2D5     1  0.320010819556  0.169954883425
CC321D  OG2N1     1  0.320723538531  0.144938011577
CC321D  OG2P1     1  0.320723538531  0.144938011577
CC321D OG2R50     1  0.320723538531  0.144938011577
CC321D  OG2S1     1  0.318906105146  0.157831660601
CC321D  OG301     1  0.316269044940  0.132309697301
CC321D  OG302     1  0.316269044940  0.132309697301
CC321D  OG303     1  0.316269044940  0.132309697301
CC321D  OG304     1  0.316269044940  0.132309697301
CC321D  OG311     1  0.326514380198  0.183381431383
CC321D  OG312     1  0.325178032121  0.144938011577
CC321D OG3C31     1  0.316269044940  0.132309697301
CC321D OG3C51     1  0.316269044940  0.132309697301
CC321D OG3C61     1  0.316269044940  0.132309697301
CC321D OG3R60     1  0.316269044940  0.132309697301
CC321D    OH1     1  0.326959829558  0.163176000000
CC321D    OHL     1  0.326959829558  0.163176000000
CC321D   OLG1     1  0.293996576986  0.144938011577
CC321D   OLG2     1  0.320723538531  0.144938011577
CC321D   OLG3     1  0.320723538531  0.144938011577
CC321D   OLG4     1  0.316269044940  0.132309697301
CC321D   OLG5     1  0.316269044940  0.132309697301
CC321D   OLG6     1  0.326514380198  0.183381431383
CC321D   OLG7     1  0.316269044940  0.132309697301
CC321D   OLG8     1  0.316269044940  0.132309697301
CC321D     OM     1  0.320723538531  0.144938011577
CC321D    ON1     1  0.320723538531  0.144938011577
CC321D   ON1C     1  0.320723538531  0.144938011577
CC321D    ON2     1  0.326959829558  0.163176000000
CC321D   ON2B     1  0.326959829558  0.163176000000
CC321D   ON2M     1  0.316269044940  0.132309697301
CC321D    ON3     1  0.320723538531  0.144938011577
CC321D    ON4     1  0.326959829558  0.163176000000
CC321D    ON5     1  0.326959829558  0.163176000000
CC321D    ON6     1  0.326959829558  0.163176000000
CC321D   ON6B     1  0.326959829558  0.163176000000
CC321D   OPER     1  0.318427692534  0.188901923946
CC321D     OS     1  0.326959829558  0.163176000000
CC321D   OSIA     1  0.326959829558  0.163176000000
CC321D   OSIE     1  0.326959829558  0.163176000000
CC321D   OSIH     1  0.326959829558  0.163176000000
CC321D    OSL     1  0.316269044940  0.132309697301
CC321D   OSLP     1  0.316269044940  0.132309697301
CC321D    OST     1  0.320010819556  0.169954883425
CC321D     OT     1  0.326799467788  0.163176000000
CC321D     OX     1  0.320723538531  0.144938011577
CC321D      P     1  0.360813980847  0.320014464673
CC321D     P2     1  0.360813980847  0.320014464673
CC321D     P3     1  0.360813980847  0.320014464673
CC321D     P4     1  0.360813980847  0.320014464673
CC321D     PB     1  0.328073452955  0.716185437439
CC321D   PB2P     1  0.325890751096  0.204716924713
CC321D     PC     1  0.360813980847  0.320014464673
CC321D     PD     1  0.294842930769  1.037598257516
CC321D   PD2P     1  0.251865976605  0.174628752363
CC321D    PG0     1  0.360813980847  0.320014464673
CC321D    PG1     1  0.360813980847  0.320014464673
CC321D    PG2     1  0.360813980847  0.320014464673
CC321D     PL     1  0.360813980847  0.320014464673
CC321D   PM3P     1  0.316910492017  0.176275053255
CC321D    POT     1  0.326403017859  0.123410269913
CC321D   PR3P     1  0.317079762773  0.178642591472
CC321D     PT     1  0.296001099102  1.168527606863
CC321D   PT2P     1  0.240284293270  0.168973521997
CC321D   PU3P     1  0.318024115415  0.179522368790
CC321D   RA2P     1  0.355459679551  0.229891668540
CC321D   RH3P     1  0.210367914314  0.149983415617
CC321D    RUB     1  0.338541512893  0.162045623205
CC321D      S     1  0.347450500075  0.280671252536
CC321D     SC     1  0.356359487256  0.286840588481
CC321D   SC3P     1  0.266993436839  0.157109060719
CC321D  SEGD1     1  0.363041227642  0.330244580395
CC321D  SG2D1     1  0.351904993665  0.314496560236
CC321D  SG2P1     1  0.355798221064  0.332305491450
CC321D  SG2P2     1  0.352314807076  0.329421919951
CC321D SG2R50     1  0.347450500075  0.280671252536
CC321D  SG301     1  0.345223253279  0.257919081884
CC321D  SG302     1  0.365268474438  0.286840588481
CC321D  SG311     1  0.347450500075  0.280671252536
CC321D  SG3O1     1  0.356359487256  0.286840588481
CC321D  SG3O2     1  0.347450500075  0.247528778125
CC321D  SG3O3     1  0.347450500075  0.247528778125
CC321D     SI     1  0.365268474438  0.324091246411
CC321D   SIH3     1  0.365268474438  0.324091246411
CC321D     SL     1  0.356359487256  0.286840588481
CC321D     SM     1  0.345223253279  0.257919081884
CC321D   SM2P     1  0.334666103469  0.207012887251
CC321D   SM3P     1  0.308847858618  0.175378986746
CC321D   SN2P     1  0.316981763914  0.181365662197
CC321D    SOD     1  0.294954293108  0.090610410351
CC321D     SP     1  0.365268474438  0.280671252536
CC321D   SR2P     1  0.334612649546  0.200133451797
CC321D     SS     1  0.365268474438  0.286840588481
CC321D   TB3P     1  0.300678317372  0.172155203837
CC321D   TI1P     1  0.341276571958  0.266826378666
CC321D   TI3P     1  0.243117351193  0.149983415617
CC321D   TL3P     1  0.246716582015  0.168869889039
CC321D   TM3P     1  0.289417357575  0.168402751521
CC321D    U3P     1  0.320830446377  0.182184255566
CC321D    V2P     1  0.267599247968  0.167830039933
CC321D    V3P     1  0.223989755715  0.147096016316
CC321D    Y3P     1  0.295190381269  0.170263611896
CC321D   YB2P     1  0.312616360195  0.189623385225
CC321D   YB3P     1  0.284659958420  0.167569069413
CC321D     ZN     1  0.266378716724  0.209200000000
 CC322  CC322     1  0.338541512893  0.041840000000
 CC322 CC322C     1  0.338541512893  0.041840000000
 CC322 CC3251     1  0.338541512893  0.041840000000
 CC322 CC325A     1  0.338541512893  0.041840000000
 CC322 CC325B     1  0.338541512893  0.041840000000
 CC322 CC3261     1  0.338541512893  0.041840000000
 CC322 CC3263     1  0.338541512893  0.041840000000
 CC322 CC326A     1  0.338541512893  0.041840000000
 CC322  CC32A     1  0.338541512893  0.041840000000
 CC322  CC331     1  0.338541512893  0.041840000000
 CC322  CC33A     1  0.338541512893  0.041840000000
 CC322    CCL     1  0.347450500075  0.110698234855
 CC322     CD     1  0.347450500075  0.110698234855
 CC322    CE1     1  0.355468588538  0.109105371453
 CC322    CE2     1  0.354577689820  0.105847757841
 CC322   CE3P     1  0.321748072056  0.179522368790
 CC322   CEL1     1  0.355468588538  0.109105371453
 CC322   CEL2     1  0.354577689820  0.105847757841
 CC322   CEL3     1  0.355468588538  0.109105371453
 CC322    CES     1  0.356359487256  0.182376331798
 CC322    CF1     1  0.338541512893  0.102486650838
 CC322    CF2     1  0.351904993665  0.085746484010
 CC322    CF3     1  0.374177461619  0.059170695450
 CC322  CG1N1     1  0.335868816739  0.177512086349
 CC322  CG1T1     1  0.333196120584  0.170981810495
 CC322  CG1T2     1  0.346782326036  0.134409982486
 CC322 CG251O     1  0.355468588538  0.109105371453
 CC322 CG252O     1  0.355468588538  0.109105371453
 CC322 CG25C1     1  0.355468588538  0.109105371453
 CC322 CG25C2     1  0.355468588538  0.109105371453
 CC322  CG2D1     1  0.355468588538  0.109105371453
 CC322 CG2D1O     1  0.355468588538  0.109105371453
 CC322  CG2D2     1  0.354577689820  0.105847757841
 CC322 CG2D2O     1  0.355468588538  0.109105371453
 CC322 CG2DC1     1  0.355468588538  0.109105371453
 CC322 CG2DC2     1  0.355468588538  0.109105371453
 CC322 CG2DC3     1  0.354577689820  0.105847757841
 CC322  CG2N1     1  0.347450500075  0.138767581228
 CC322  CG2N2     1  0.347450500075  0.138767581228
 CC322  CG2O1     1  0.347450500075  0.138767581228
 CC322  CG2O2     1  0.320723538531  0.130979917850
 CC322  CG2O3     1  0.347450500075  0.110698234855
 CC322  CG2O4     1  0.329632525712  0.102486650838
 CC322  CG2O5     1  0.347450500075  0.125520000000
 CC322  CG2O6     1  0.347450500075  0.110698234855
 CC322  CG2O7     1  0.308518226092  0.100764063435
 CC322 CG2R51     1  0.356359487256  0.093557084179
 CC322 CG2R52     1  0.365268474438  0.059170695450
 CC322 CG2R53     1  0.365268474438  0.059170695450
 CC322 CG2R57     1  0.356359487256  0.093557084179
 CC322 CG2R61     1  0.346773417049  0.110698234855
 CC322 CG2R62     1  0.338541512893  0.125520000000
 CC322 CG2R63     1  0.338541512893  0.132309697301
 CC322 CG2R64     1  0.356359487256  0.083680000000
 CC322 CG2R66     1  0.338541512893  0.110698234855
 CC322 CG2R67     1  0.346773417049  0.110698234855
 CC322 CG2R71     1  0.346987232741  0.108300154755
 CC322 CG2RC0     1  0.334977918021  0.131646486622
 CC322 CG2RC7     1  0.334977918021  0.131646486622
 CC322  CG301     1  0.338541512893  0.041840000000
 CC322  CG302     1  0.374177461619  0.059170695450
 CC322  CG311     1  0.338541512893  0.041840000000
 CC322  CG312     1  0.351904993665  0.085746484010
 CC322  CG314     1  0.338541512893  0.041840000000
 CC322  CG321     1  0.338541512893  0.041840000000
 CC322  CG322     1  0.338541512893  0.102486650838
 CC322  CG323     1  0.365268474438  0.138767581228
 CC322  CG324     1  0.338541512893  0.041840000000
 CC322  CG331     1  0.338541512893  0.041840000000
 CC322  CG334     1  0.338541512893  0.041840000000
 CC322 CG3AM0     1  0.344777803920  0.110698234855
 CC322 CG3AM1     1  0.345668702638  0.116852760686
 CC322 CG3AM2     1  0.346559601357  0.118341390899
 CC322 CG3C31     1  0.338541512893  0.041840000000
 CC322 CG3C41     1  0.338541512893  0.041840000000
 CC322 CG3C50     1  0.338541512893  0.041840000000
 CC322 CG3C51     1  0.338541512893  0.041840000000
 CC322 CG3C52     1  0.338541512893  0.041840000000
 CC322 CG3C53     1  0.338541512893  0.041840000000
 CC322 CG3C54     1  0.338541512893  0.041840000000
 CC322 CG3RC1     1  0.338541512893  0.041840000000
 CC322     CL     1  0.347450500075  0.110698234855
 CC322    CLA     1  0.371504765465  0.162045623205
 CC322   CLAL     1  0.339272049842  0.072469005789
 CC322  CLG01     1  0.355468588538  0.109105371453
 CC322  CLG02     1  0.355468588538  0.109105371453
 CC322  CLG03     1  0.320723538531  0.130979917850
 CC322  CLG04     1  0.347450500075  0.110698234855
 CC322  CLG05     1  0.329632525712  0.102486650838
 CC322  CLG06     1  0.346773417049  0.110698234855
 CC322 CLG06A     1  0.346773417049  0.110698234855
 CC322 CLG06B     1  0.346773417049  0.110698234855
 CC322  CLG07     1  0.338541512893  0.125520000000
 CC322  CLG08     1  0.338541512893  0.132309697301
 CC322  CLG09     1  0.346773417049  0.110698234855
 CC322  CLG10     1  0.334977918021  0.131646486622
 CC322  CLG11     1  0.338541512893  0.041840000000
 CC322  CLG12     1  0.338541512893  0.041840000000
 CC322  CLG13     1  0.338541512893  0.041840000000
 CC322  CLG14     1  0.338541512893  0.041840000000
 CC322  CLG15     1  0.338541512893  0.041840000000
 CC322  CLG16     1  0.338541512893  0.041840000000
 CC322  CLGA1     1  0.339432411611  0.245040988571
 CC322  CLGA3     1  0.339432411611  0.232955260941
 CC322  CLGR1     1  0.334977918021  0.200657590935
 CC322     CM     1  0.356359487256  0.138767581228
 CC322     CN     1  0.325178032121  0.187114168357
 CC322    CN1     1  0.338541512893  0.132309697301
 CC322   CN1A     1  0.347450500075  0.110698234855
 CC322   CN1T     1  0.338541512893  0.132309697301
 CC322    CN2     1  0.338541512893  0.132309697301
 CC322    CN3     1  0.338541512893  0.125520000000
 CC322   CN3A     1  0.329632525712  0.177512086349
 CC322   CN3B     1  0.329632525712  0.177512086349
 CC322   CN3C     1  0.329632525712  0.177512086349
 CC322   CN3D     1  0.338541512893  0.125520000000
 CC322   CN3T     1  0.338541512893  0.125520000000
 CC322    CN4     1  0.338541512893  0.114583559030
 CC322    CN5     1  0.338541512893  0.114583559030
 CC322   CN5G     1  0.338541512893  0.114583559030
 CC322    CN6     1  0.338541512893  0.041840000000
 CC322    CN7     1  0.338541512893  0.041840000000
 CC322   CN7B     1  0.338541512893  0.041840000000
 CC322   CN7E     1  0.338541512893  0.041840000000
 CC322    CN8     1  0.338541512893  0.041840000000
 CC322   CN8B     1  0.338541512893  0.041840000000
 CC322    CN9     1  0.338541512893  0.041840000000
 CC322    CNA     1  0.346773417049  0.110698234855
 CC322   CNA2     1  0.338541512893  0.110698234855
 CC322   CNE1     1  0.355468588538  0.109105371453
 CC322   CNE2     1  0.354577689820  0.105847757841
 CC322    CNG     1  0.347450500075  0.138767581228
 CC322   CO2P     1  0.251910521541  0.164138698618
 CC322   CO3P     1  0.192264852362  0.144393471099
 CC322    COA     1  0.347450500075  0.138767581228
 CC322    CP1     1  0.338541512893  0.041840000000
 CC322    CP2     1  0.338541512893  0.041840000000
 CC322    CP3     1  0.338541512893  0.041840000000
 CC322    CPA     1  0.329632525712  0.125520000000
 CC322    CPB     1  0.329632525712  0.125520000000
 CC322   CPD1     1  0.338541512893  0.041840000000
 CC322   CPH1     1  0.329632525712  0.093557084179
 CC322   CPH2     1  0.329632525712  0.093557084179
 CC322    CPM     1  0.329632525712  0.125520000000
 CC322    CPT     1  0.334977918021  0.131646486622
 CC322   CR2P     1  0.263634748672  0.170828164985
 CC322   CR33     1  0.338541512893  0.041840000000
 CC322   CR3P     1  0.244382427373  0.145299904804
 CC322   CRL1     1  0.338541512893  0.041840000000
 CC322   CRL2     1  0.338541512893  0.041840000000
 CC322   CRN1     1  0.347450500075  0.138767581228
 CC322     CS     1  0.365268474438  0.138767581228
 CC322    CST     1  0.308518226092  0.100764063435
 CC322     CT     1  0.338541512893  0.041840000000
 CC322    CT1     1  0.338541512893  0.041840000000
 CC322   CT1X     1  0.338541512893  0.041840000000
 CC322    CT2     1  0.338541512893  0.041840000000
 CC322   CT2A     1  0.338541512893  0.041840000000
 CC322   CT2P     1  0.338541512893  0.041840000000
 CC322   CT2X     1  0.338541512893  0.041840000000
 CC322    CT3     1  0.338541512893  0.041840000000
 CC322   CT3X     1  0.338541512893  0.041840000000
 CC322   CTD1     1  0.338541512893  0.041840000000
 CC322   CTL1     1  0.338541512893  0.041840000000
 CC322   CTL2     1  0.338541512893  0.041840000000
 CC322   CTL3     1  0.338541512893  0.041840000000
 CC322   CTL5     1  0.338541512893  0.041840000000
 CC322   CTO1     1  0.338541512893  0.041840000000
 CC322   CTO2     1  0.338541512893  0.041840000000
 CC322     CU     1  0.285800308779  0.908997471504
 CC322   CU1P     1  0.246066225950  0.180057894334
 CC322   CU2P     1  0.233869822499  0.162315474555
 CC322     CY     1  0.346559601357  0.113045454929
 CC322    DUM     1  0.169270756447  0.000000000000
 CC322   DY3P     1  0.297952167295  0.171135318061
 CC322   ER3P     1  0.291083338178  0.169232326746
 CC322   EU2P     1  0.333231756533  0.203602227414
 CC322   EU3P     1  0.304954631219  0.174528477447
 CC322     F1     1  0.314487247504  0.153729976257
 CC322     F2     1  0.314487247504  0.135577095411
 CC322     F3     1  0.311814551349  0.130309939452
 CC322     FA     1  0.320723538531  0.144938011577
 CC322     FE     1  0.227179173126  0.000000000000
 CC322   FE2P     1  0.265496726993  0.167098295383
 CC322   FE3P     1  0.219722350855  0.148045032716
 CC322   FGA1     1  0.314487247504  0.153729976257
 CC322   FGA2     1  0.314487247504  0.135577095411
 CC322   FGA3     1  0.311814551349  0.130309939452
 CC322   FGP1     1  0.311814551349  0.130309939452
 CC322   FGR1     1  0.320723538531  0.144938011577
 CC322    FNA     1  0.320723538531  0.144938011577
 CC322   GA3P     1  0.189485248361  0.145299904804
 CC322   GD3P     1  0.303351013527  0.173673803114
 CC322      H     1  0.189271432669  0.089736802707
 CC322     HA     1  0.286869387241  0.062058748940
 CC322    HA1     1  0.288651184677  0.088756043175
 CC322    HA2     1  0.288651184677  0.077149148019
 CC322    HA3     1  0.288651184677  0.064818249282
 CC322    HAL     1  0.286869387241  0.062058748940
 CC322   HAL1     1  0.286869387241  0.062058748940
 CC322   HAL2     1  0.288651184677  0.070011711020
 CC322   HAL3     1  0.288651184677  0.064818249282
 CC322     HB     1  0.286869387241  0.062058748940
 CC322    HB1     1  0.286869387241  0.062058748940
 CC322    HB2     1  0.288651184677  0.070011711020
 CC322    HBL     1  0.286869387241  0.062058748940
 CC322     HC     1  0.189271432669  0.089736802707
 CC322   HCA1     1  0.288651184677  0.088756043175
 CC322  HCA1A     1  0.288651184677  0.088756043175
 CC322 HCA1C2     1  0.288651184677  0.088756043175
 CC322   HCA2     1  0.288651184677  0.078275472531
 CC322 HCA25A     1  0.285087589805  0.078275472531
 CC322  HCA2A     1  0.288651184677  0.078275472531
 CC322 HCA2C2     1  0.285087589805  0.078275472531
 CC322   HCA3     1  0.288651184677  0.064818249282
 CC322  HCA3A     1  0.288651184677  0.064818249282
 CC322  HCA3M     1  0.288651184677  0.064818249282
 CC322    HCL     1  0.189271432669  0.089736802707
 CC322   HCP1     1  0.189271432669  0.089736802707
 CC322  HCP1M     1  0.189271432669  0.089736802707
 CC322   HCR1     1  0.240542653898  0.089736802707
 CC322     HE     1  0.301123766731  0.061020452073
 CC322    HE1     1  0.280633096214  0.073666921749
 CC322    HE2     1  0.281523994932  0.067464972838
 CC322   HEL1     1  0.280633096214  0.073666921749
 CC322   HEL2     1  0.281523994932  0.067464972838
 CC322    HF1     1  0.286869387241  0.070011711020
 CC322    HF2     1  0.285087589805  0.072469005789
 CC322   HG2P     1  0.274557166956  0.189623385225
 CC322   HGA1     1  0.288651184677  0.088756043175
 CC322   HGA2     1  0.288651184677  0.078275472531
 CC322   HGA3     1  0.288651184677  0.064818249282
 CC322   HGA4     1  0.280633096214  0.073666921749
 CC322   HGA5     1  0.281523994932  0.067464972838
 CC322   HGA6     1  0.286869387241  0.070011711020
 CC322   HGA7     1  0.285087589805  0.072469005789
 CC322 HGAAM0     1  0.283305792369  0.070011711020
 CC322 HGAAM1     1  0.283305792369  0.070011711020
 CC322 HGAAM2     1  0.281523994932  0.083680000000
 CC322   HGP1     1  0.189271432669  0.089736802707
 CC322   HGP2     1  0.189271432669  0.089736802707
 CC322   HGP3     1  0.209361198763  0.132309697301
 CC322   HGP4     1  0.189271432669  0.089736802707
 CC322   HGP5     1  0.231633666716  0.089736802707
 CC322 HGPAM1     1  0.247224394284  0.039692909190
 CC322 HGPAM2     1  0.247224394284  0.041840000000
 CC322 HGPAM3     1  0.246778944925  0.045833423612
 CC322  HGR51     1  0.290272620344  0.072469005789
 CC322  HGR52     1  0.249451641079  0.089736802707
 CC322  HGR53     1  0.231633666716  0.089736802707
 CC322  HGR61     1  0.290272620344  0.072469005789
 CC322  HGR62     1  0.267269615442  0.089736802707
 CC322  HGR63     1  0.249451641079  0.089736802707
 CC322  HGR71     1  0.290272620344  0.072469005789
 CC322     HL     1  0.231633666716  0.089736802707
 CC322  HLGA1     1  0.288651184677  0.088756043175
 CC322  HLGA2     1  0.288651184677  0.078275472531
 CC322  HLGA3     1  0.288651184677  0.064818249282
 CC322  HLGA4     1  0.280633096214  0.073666921749
 CC322  HLGP1     1  0.189271432669  0.089736802707
 CC322 HLGR52     1  0.249451641079  0.089736802707
 CC322 HLGR61     1  0.290272620344  0.072469005789
 CC322 HLGR62     1  0.267269615442  0.089736802707
 CC322    HN1     1  0.189271432669  0.089736802707
 CC322    HN2     1  0.189271432669  0.089736802707
 CC322    HN3     1  0.267269615442  0.089736802707
 CC322   HN3B     1  0.249451641079  0.089736802707
 CC322    HN4     1  0.189271432669  0.089736802707
 CC322    HN5     1  0.189271432669  0.089736802707
 CC322    HN6     1  0.286869387241  0.062058748940
 CC322    HN7     1  0.286869387241  0.062058748940
 CC322    HN8     1  0.288651184677  0.070011711020
 CC322    HN9     1  0.288651184677  0.064818249282
 CC322   HNE1     1  0.280633096214  0.073666921749
 CC322   HNE2     1  0.281523994932  0.067464972838
 CC322    HNP     1  0.290272620344  0.072469005789
 CC322   HO3P     1  0.293168041178  0.170263611896
 CC322    HOL     1  0.189271432669  0.089736802707
 CC322     HP     1  0.290272620344  0.072469005789
 CC322   HPER     1  0.189271432669  0.089736802707
 CC322    HR1     1  0.249451641079  0.089736802707
 CC322    HR2     1  0.231633666716  0.089736802707
 CC322    HR3     1  0.300054688270  0.036952087465
 CC322   HRA3     1  0.288651184677  0.064818249282
 CC322   HRM1     1  0.247224394284  0.039692909190
 CC322   HRM2     1  0.247224394284  0.041840000000
 CC322   HRP2     1  0.189271432669  0.089736802707
 CC322     HS     1  0.209361198763  0.132309697301
 CC322   HSIA     1  0.286869387241  0.062058748940
 CC322   HSIO     1  0.189271432669  0.089736802707
 CC322     HT     1  0.189271432669  0.089736802707
 CC322     HX     1  0.189271432669  0.089736802707
 CC322   IGR1     1  0.368832069310  0.301712530731
 CC322   IN3P     1  0.246449312399  0.160580590010
 CC322   LA3P     1  0.327200372211  0.182184255566
 CC322    LIT     1  0.284864865125  0.020196198771
 CC322    LPH     1  0.169270756447  0.000000000000
 CC322   LU3P     1  0.289648991242  0.166731218816
 CC322     MG     1  0.274842254546  0.051243325419
 CC322   MN2P     1  0.276508235149  0.171747976291
 CC322   MN3P     1  0.203516903172  0.148045032716
 CC322      N     1  0.334087019303  0.004184000000
 CC322     NC     1  0.334087019303  0.324091246411
 CC322    NC2     1  0.334087019303  0.187114168357
 CC322  NC2D1     1  0.307360057758  0.187114168357
 CC322  NC311     1  0.347450500075  0.088756043175
 CC322   ND3P     1  0.313587439798  0.177117175768
 CC322     NE     1  0.305578260322  0.122698965603
 CC322  NG1T1     1  0.328741626994  0.177512086349
 CC322  NG2D1     1  0.334087019303  0.187114168357
 CC322  NG2O1     1  0.334087019303  0.187114168357
 CC322  NG2P1     1  0.334087019303  0.187114168357
 CC322 NG2R43     1  0.334087019303  0.187114168357
 CC322 NG2R50     1  0.334087019303  0.187114168357
 CC322 NG2R51     1  0.334087019303  0.187114168357
 CC322 NG2R52     1  0.334087019303  0.187114168357
 CC322 NG2R53     1  0.334087019303  0.187114168357
 CC322 NG2R57     1  0.334087019303  0.187114168357
 CC322 NG2R60     1  0.337650614175  0.102486650838
 CC322 NG2R61     1  0.334087019303  0.187114168357
 CC322 NG2R62     1  0.352795892384  0.093557084179
 CC322 NG2R67     1  0.334087019303  0.187114168357
 CC322 NG2RC0     1  0.334087019303  0.187114168357
 CC322  NG2S0     1  0.334087019303  0.004184000000
 CC322  NG2S1     1  0.307360057758  0.187114168357
 CC322  NG2S2     1  0.334087019303  0.187114168357
 CC322  NG2S3     1  0.334087019303  0.187114168357
 CC322  NG301     1  0.347450500075  0.078275472531
 CC322  NG311     1  0.347450500075  0.088756043175
 CC322  NG321     1  0.346559601357  0.102486650838
 CC322  NG331     1  0.345668702638  0.110698234855
 CC322 NG3C51     1  0.334087019303  0.187114168357
 CC322  NG3N1     1  0.351904993665  0.102486650838
 CC322  NG3P0     1  0.334087019303  0.187114168357
 CC322  NG3P1     1  0.334087019303  0.187114168357
 CC322  NG3P2     1  0.334087019303  0.187114168357
 CC322  NG3P3     1  0.334087019303  0.187114168357
 CC322    NH1     1  0.307360057758  0.187114168357
 CC322    NH2     1  0.334087019303  0.187114168357
 CC322    NH3     1  0.334087019303  0.187114168357
 CC322   NH3L     1  0.334087019303  0.187114168357
 CC322    NHL     1  0.307360057758  0.187114168357
 CC322     NI     1  0.282949432881  0.994525446633
 CC322   NI2P     1  0.238787583423  0.158440517242
 CC322    NN1     1  0.334087019303  0.187114168357
 CC322   NN1C     1  0.334087019303  0.187114168357
 CC322    NN2     1  0.334087019303  0.187114168357
 CC322   NN2B     1  0.334087019303  0.187114168357
 CC322   NN2C     1  0.334087019303  0.187114168357
 CC322   NN2G     1  0.334087019303  0.187114168357
 CC322   NN2U     1  0.334087019303  0.187114168357
 CC322    NN3     1  0.334087019303  0.187114168357
 CC322   NN3A     1  0.334087019303  0.187114168357
 CC322   NN3G     1  0.334087019303  0.187114168357
 CC322   NN3I     1  0.334087019303  0.187114168357
 CC322    NN4     1  0.334087019303  0.187114168357
 CC322    NN6     1  0.334087019303  0.187114168357
 CC322    NNG     1  0.334087019303  0.187114168357
 CC322     NP     1  0.334087019303  0.187114168357
 CC322    NPH     1  0.334087019303  0.187114168357
 CC322    NR1     1  0.334087019303  0.187114168357
 CC322    NR2     1  0.334087019303  0.187114168357
 CC322    NR3     1  0.334087019303  0.187114168357
 CC322   NRC4     1  0.334087019303  0.187114168357
 CC322   NRN1     1  0.347450500075  0.280671252536
 CC322   NRN2     1  0.346559601357  0.102486650838
 CC322    NS1     1  0.334087019303  0.187114168357
 CC322    NS2     1  0.334087019303  0.187114168357
 CC322    NTL     1  0.334087019303  0.187114168357
 CC322     NY     1  0.334087019303  0.187114168357
 CC322      O     1  0.293996576986  0.144938011577
 CC322    O2L     1  0.320723538531  0.144938011577
 CC322    OAL     1  0.326959829558  0.163176000000
 CC322     OB     1  0.293996576986  0.144938011577
 CC322    OBL     1  0.293996576986  0.144938011577
 CC322     OC     1  0.320723538531  0.144938011577
 CC322  OC2D1     1  0.293996576986  0.144938011577
 CC322  OC2D2     1  0.320723538531  0.144938011577
 CC322  OC2D3     1  0.293996576986  0.144938011577
 CC322  OC2D4     1  0.293996576986  0.144938011577
 CC322  OC2DP     1  0.320723538531  0.144938011577
 CC322  OC301     1  0.316269044940  0.132309697301
 CC322  OC302     1  0.316269044940  0.132309697301
 CC322  OC303     1  0.316269044940  0.132309697301
 CC322 OC305A     1  0.316269044940  0.132309697301
 CC322  OC30A     1  0.316269044940  0.132309697301
 CC322  OC30P     1  0.326959829558  0.163176000000
 CC322  OC311     1  0.326514380198  0.183381431383
 CC322 OC311M     1  0.326514380198  0.183381431383
 CC322  OC312     1  0.326959829558  0.163176000000
 CC322 OC3C51     1  0.316269044940  0.132309697301
 CC322 OC3C5M     1  0.316269044940  0.132309697301
 CC322 OC3C61     1  0.316269044940  0.132309697301
 CC322    OCA     1  0.293996576986  0.144938011577
 CC322    OCL     1  0.320723538531  0.144938011577
 CC322  OG2D1     1  0.293996576986  0.144938011577
 CC322  OG2D2     1  0.320723538531  0.144938011577
 CC322  OG2D3     1  0.293996576986  0.144938011577
 CC322  OG2D4     1  0.320723538531  0.144938011577
 CC322  OG2D5     1  0.320010819556  0.169954883425
 CC322  OG2N1     1  0.320723538531  0.144938011577
 CC322  OG2P1     1  0.320723538531  0.144938011577
 CC322 OG2R50     1  0.320723538531  0.144938011577
 CC322  OG2S1     1  0.318906105146  0.157831660601
 CC322  OG301     1  0.316269044940  0.132309697301
 CC322  OG302     1  0.316269044940  0.132309697301
 CC322  OG303     1  0.316269044940  0.132309697301
 CC322  OG304     1  0.316269044940  0.132309697301
 CC322  OG311     1  0.326514380198  0.183381431383
 CC322  OG312     1  0.325178032121  0.144938011577
 CC322 OG3C31     1  0.316269044940  0.132309697301
 CC322 OG3C51     1  0.316269044940  0.132309697301
 CC322 OG3C61     1  0.316269044940  0.132309697301
 CC322 OG3R60     1  0.316269044940  0.132309697301
 CC322    OH1     1  0.326959829558  0.163176000000
 CC322    OHL     1  0.326959829558  0.163176000000
 CC322   OLG1     1  0.293996576986  0.144938011577
 CC322   OLG2     1  0.320723538531  0.144938011577
 CC322   OLG3     1  0.320723538531  0.144938011577
 CC322   OLG4     1  0.316269044940  0.132309697301
 CC322   OLG5     1  0.316269044940  0.132309697301
 CC322   OLG6     1  0.326514380198  0.183381431383
 CC322   OLG7     1  0.316269044940  0.132309697301
 CC322   OLG8     1  0.316269044940  0.132309697301
 CC322     OM     1  0.320723538531  0.144938011577
 CC322    ON1     1  0.320723538531  0.144938011577
 CC322   ON1C     1  0.320723538531  0.144938011577
 CC322    ON2     1  0.326959829558  0.163176000000
 CC322   ON2B     1  0.326959829558  0.163176000000
 CC322   ON2M     1  0.316269044940  0.132309697301
 CC322    ON3     1  0.320723538531  0.144938011577
 CC322    ON4     1  0.326959829558  0.163176000000
 CC322    ON5     1  0.326959829558  0.163176000000
 CC322    ON6     1  0.326959829558  0.163176000000
 CC322   ON6B     1  0.326959829558  0.163176000000
 CC322   OPER     1  0.318427692534  0.188901923946
 CC322     OS     1  0.326959829558  0.163176000000
 CC322   OSIA     1  0.326959829558  0.163176000000
 CC322   OSIE     1  0.326959829558  0.163176000000
 CC322   OSIH     1  0.326959829558  0.163176000000
 CC322    OSL     1  0.316269044940  0.132309697301
 CC322   OSLP     1  0.316269044940  0.132309697301
 CC322    OST     1  0.320010819556  0.169954883425
 CC322     OT     1  0.326799467788  0.163176000000
 CC322     OX     1  0.320723538531  0.144938011577
 CC322      P     1  0.360813980847  0.320014464673
 CC322     P2     1  0.360813980847  0.320014464673
 CC322     P3     1  0.360813980847  0.320014464673
 CC322     P4     1  0.360813980847  0.320014464673
 CC322     PB     1  0.328073452955  0.716185437439
 CC322   PB2P     1  0.325890751096  0.204716924713
 CC322     PC     1  0.360813980847  0.320014464673
 CC322     PD     1  0.294842930769  1.037598257516
 CC322   PD2P     1  0.251865976605  0.174628752363
 CC322    PG0     1  0.360813980847  0.320014464673
 CC322    PG1     1  0.360813980847  0.320014464673
 CC322    PG2     1  0.360813980847  0.320014464673
 CC322     PL     1  0.360813980847  0.320014464673
 CC322   PM3P     1  0.316910492017  0.176275053255
 CC322    POT     1  0.326403017859  0.123410269913
 CC322   PR3P     1  0.317079762773  0.178642591472
 CC322     PT     1  0.296001099102  1.168527606863
 CC322   PT2P     1  0.240284293270  0.168973521997
 CC322   PU3P     1  0.318024115415  0.179522368790
 CC322   RA2P     1  0.355459679551  0.229891668540
 CC322   RH3P     1  0.210367914314  0.149983415617
 CC322    RUB     1  0.338541512893  0.162045623205
 CC322      S     1  0.347450500075  0.280671252536
 CC322     SC     1  0.356359487256  0.286840588481
 CC322   SC3P     1  0.266993436839  0.157109060719
 CC322  SEGD1     1  0.363041227642  0.330244580395
 CC322  SG2D1     1  0.351904993665  0.314496560236
 CC322  SG2P1     1  0.355798221064  0.332305491450
 CC322  SG2P2     1  0.352314807076  0.329421919951
 CC322 SG2R50     1  0.347450500075  0.280671252536
 CC322  SG301     1  0.345223253279  0.257919081884
 CC322  SG302     1  0.365268474438  0.286840588481
 CC322  SG311     1  0.347450500075  0.280671252536
 CC322  SG3O1     1  0.356359487256  0.286840588481
 CC322  SG3O2     1  0.347450500075  0.247528778125
 CC322  SG3O3     1  0.347450500075  0.247528778125
 CC322     SI     1  0.365268474438  0.324091246411
 CC322   SIH3     1  0.365268474438  0.324091246411
 CC322     SL     1  0.356359487256  0.286840588481
 CC322     SM     1  0.345223253279  0.257919081884
 CC322   SM2P     1  0.334666103469  0.207012887251
 CC322   SM3P     1  0.308847858618  0.175378986746
 CC322   SN2P     1  0.316981763914  0.181365662197
 CC322    SOD     1  0.294954293108  0.090610410351
 CC322     SP     1  0.365268474438  0.280671252536
 CC322   SR2P     1  0.334612649546  0.200133451797
 CC322     SS     1  0.365268474438  0.286840588481
 CC322   TB3P     1  0.300678317372  0.172155203837
 CC322   TI1P     1  0.341276571958  0.266826378666
 CC322   TI3P     1  0.243117351193  0.149983415617
 CC322   TL3P     1  0.246716582015  0.168869889039
 CC322   TM3P     1  0.289417357575  0.168402751521
 CC322    U3P     1  0.320830446377  0.182184255566
 CC322    V2P     1  0.267599247968  0.167830039933
 CC322    V3P     1  0.223989755715  0.147096016316
 CC322    Y3P     1  0.295190381269  0.170263611896
 CC322   YB2P     1  0.312616360195  0.189623385225
 CC322   YB3P     1  0.284659958420  0.167569069413
 CC322     ZN     1  0.266378716724  0.209200000000
CC322C CC322C     1  0.338541512893  0.041840000000
CC322C CC3251     1  0.338541512893  0.041840000000
CC322C CC325A     1  0.338541512893  0.041840000000
CC322C CC325B     1  0.338541512893  0.041840000000
CC322C CC3261     1  0.338541512893  0.041840000000
CC322C CC3263     1  0.338541512893  0.041840000000
CC322C CC326A     1  0.338541512893  0.041840000000
CC322C  CC32A     1  0.338541512893  0.041840000000
CC322C  CC331     1  0.338541512893  0.041840000000
CC322C  CC33A     1  0.338541512893  0.041840000000
CC322C    CCL     1  0.347450500075  0.110698234855
CC322C     CD     1  0.347450500075  0.110698234855
CC322C    CE1     1  0.355468588538  0.109105371453
CC322C    CE2     1  0.354577689820  0.105847757841
CC322C   CE3P     1  0.321748072056  0.179522368790
CC322C   CEL1     1  0.355468588538  0.109105371453
CC322C   CEL2     1  0.354577689820  0.105847757841
CC322C   CEL3     1  0.355468588538  0.109105371453
CC322C    CES     1  0.356359487256  0.182376331798
CC322C    CF1     1  0.338541512893  0.102486650838
CC322C    CF2     1  0.351904993665  0.085746484010
CC322C    CF3     1  0.374177461619  0.059170695450
CC322C  CG1N1     1  0.335868816739  0.177512086349
CC322C  CG1T1     1  0.333196120584  0.170981810495
CC322C  CG1T2     1  0.346782326036  0.134409982486
CC322C CG251O     1  0.355468588538  0.109105371453
CC322C CG252O     1  0.355468588538  0.109105371453
CC322C CG25C1     1  0.355468588538  0.109105371453
CC322C CG25C2     1  0.355468588538  0.109105371453
CC322C  CG2D1     1  0.355468588538  0.109105371453
CC322C CG2D1O     1  0.355468588538  0.109105371453
CC322C  CG2D2     1  0.354577689820  0.105847757841
CC322C CG2D2O     1  0.355468588538  0.109105371453
CC322C CG2DC1     1  0.355468588538  0.109105371453
CC322C CG2DC2     1  0.355468588538  0.109105371453
CC322C CG2DC3     1  0.354577689820  0.105847757841
CC322C  CG2N1     1  0.347450500075  0.138767581228
CC322C  CG2N2     1  0.347450500075  0.138767581228
CC322C  CG2O1     1  0.347450500075  0.138767581228
CC322C  CG2O2     1  0.320723538531  0.130979917850
CC322C  CG2O3     1  0.347450500075  0.110698234855
CC322C  CG2O4     1  0.329632525712  0.102486650838
CC322C  CG2O5     1  0.347450500075  0.125520000000
CC322C  CG2O6     1  0.347450500075  0.110698234855
CC322C  CG2O7     1  0.308518226092  0.100764063435
CC322C CG2R51     1  0.356359487256  0.093557084179
CC322C CG2R52     1  0.365268474438  0.059170695450
CC322C CG2R53     1  0.365268474438  0.059170695450
CC322C CG2R57     1  0.356359487256  0.093557084179
CC322C CG2R61     1  0.346773417049  0.110698234855
CC322C CG2R62     1  0.338541512893  0.125520000000
CC322C CG2R63     1  0.338541512893  0.132309697301
CC322C CG2R64     1  0.356359487256  0.083680000000
CC322C CG2R66     1  0.338541512893  0.110698234855
CC322C CG2R67     1  0.346773417049  0.110698234855
CC322C CG2R71     1  0.346987232741  0.108300154755
CC322C CG2RC0     1  0.334977918021  0.131646486622
CC322C CG2RC7     1  0.334977918021  0.131646486622
CC322C  CG301     1  0.338541512893  0.041840000000
CC322C  CG302     1  0.374177461619  0.059170695450
CC322C  CG311     1  0.338541512893  0.041840000000
CC322C  CG312     1  0.351904993665  0.085746484010
CC322C  CG314     1  0.338541512893  0.041840000000
CC322C  CG321     1  0.338541512893  0.041840000000
CC322C  CG322     1  0.338541512893  0.102486650838
CC322C  CG323     1  0.365268474438  0.138767581228
CC322C  CG324     1  0.338541512893  0.041840000000
CC322C  CG331     1  0.338541512893  0.041840000000
CC322C  CG334     1  0.338541512893  0.041840000000
CC322C CG3AM0     1  0.344777803920  0.110698234855
CC322C CG3AM1     1  0.345668702638  0.116852760686
CC322C CG3AM2     1  0.346559601357  0.118341390899
CC322C CG3C31     1  0.338541512893  0.041840000000
CC322C CG3C41     1  0.338541512893  0.041840000000
CC322C CG3C50     1  0.338541512893  0.041840000000
CC322C CG3C51     1  0.338541512893  0.041840000000
CC322C CG3C52     1  0.338541512893  0.041840000000
CC322C CG3C53     1  0.338541512893  0.041840000000
CC322C CG3C54     1  0.338541512893  0.041840000000
CC322C CG3RC1     1  0.338541512893  0.041840000000
CC322C     CL     1  0.347450500075  0.110698234855
CC322C    CLA     1  0.371504765465  0.162045623205
CC322C   CLAL     1  0.339272049842  0.072469005789
CC322C  CLG01     1  0.355468588538  0.109105371453
CC322C  CLG02     1  0.355468588538  0.109105371453
CC322C  CLG03     1  0.320723538531  0.130979917850
CC322C  CLG04     1  0.347450500075  0.110698234855
CC322C  CLG05     1  0.329632525712  0.102486650838
CC322C  CLG06     1  0.346773417049  0.110698234855
CC322C CLG06A     1  0.346773417049  0.110698234855
CC322C CLG06B     1  0.346773417049  0.110698234855
CC322C  CLG07     1  0.338541512893  0.125520000000
CC322C  CLG08     1  0.338541512893  0.132309697301
CC322C  CLG09     1  0.346773417049  0.110698234855
CC322C  CLG10     1  0.334977918021  0.131646486622
CC322C  CLG11     1  0.338541512893  0.041840000000
CC322C  CLG12     1  0.338541512893  0.041840000000
CC322C  CLG13     1  0.338541512893  0.041840000000
CC322C  CLG14     1  0.338541512893  0.041840000000
CC322C  CLG15     1  0.338541512893  0.041840000000
CC322C  CLG16     1  0.338541512893  0.041840000000
CC322C  CLGA1     1  0.339432411611  0.245040988571
CC322C  CLGA3     1  0.339432411611  0.232955260941
CC322C  CLGR1     1  0.334977918021  0.200657590935
CC322C     CM     1  0.356359487256  0.138767581228
CC322C     CN     1  0.325178032121  0.187114168357
CC322C    CN1     1  0.338541512893  0.132309697301
CC322C   CN1A     1  0.347450500075  0.110698234855
CC322C   CN1T     1  0.338541512893  0.132309697301
CC322C    CN2     1  0.338541512893  0.132309697301
CC322C    CN3     1  0.338541512893  0.125520000000
CC322C   CN3A     1  0.329632525712  0.177512086349
CC322C   CN3B     1  0.329632525712  0.177512086349
CC322C   CN3C     1  0.329632525712  0.177512086349
CC322C   CN3D     1  0.338541512893  0.125520000000
CC322C   CN3T     1  0.338541512893  0.125520000000
CC322C    CN4     1  0.338541512893  0.114583559030
CC322C    CN5     1  0.338541512893  0.114583559030
CC322C   CN5G     1  0.338541512893  0.114583559030
CC322C    CN6     1  0.338541512893  0.041840000000
CC322C    CN7     1  0.338541512893  0.041840000000
CC322C   CN7B     1  0.338541512893  0.041840000000
CC322C   CN7E     1  0.338541512893  0.041840000000
CC322C    CN8     1  0.338541512893  0.041840000000
CC322C   CN8B     1  0.338541512893  0.041840000000
CC322C    CN9     1  0.338541512893  0.041840000000
CC322C    CNA     1  0.346773417049  0.110698234855
CC322C   CNA2     1  0.338541512893  0.110698234855
CC322C   CNE1     1  0.355468588538  0.109105371453
CC322C   CNE2     1  0.354577689820  0.105847757841
CC322C    CNG     1  0.347450500075  0.138767581228
CC322C   CO2P     1  0.251910521541  0.164138698618
CC322C   CO3P     1  0.192264852362  0.144393471099
CC322C    COA     1  0.347450500075  0.138767581228
CC322C    CP1     1  0.338541512893  0.041840000000
CC322C    CP2     1  0.338541512893  0.041840000000
CC322C    CP3     1  0.338541512893  0.041840000000
CC322C    CPA     1  0.329632525712  0.125520000000
CC322C    CPB     1  0.329632525712  0.125520000000
CC322C   CPD1     1  0.338541512893  0.041840000000
CC322C   CPH1     1  0.329632525712  0.093557084179
CC322C   CPH2     1  0.329632525712  0.093557084179
CC322C    CPM     1  0.329632525712  0.125520000000
CC322C    CPT     1  0.334977918021  0.131646486622
CC322C   CR2P     1  0.263634748672  0.170828164985
CC322C   CR33     1  0.338541512893  0.041840000000
CC322C   CR3P     1  0.244382427373  0.145299904804
CC322C   CRL1     1  0.338541512893  0.041840000000
CC322C   CRL2     1  0.338541512893  0.041840000000
CC322C   CRN1     1  0.347450500075  0.138767581228
CC322C     CS     1  0.365268474438  0.138767581228
CC322C    CST     1  0.308518226092  0.100764063435
CC322C     CT     1  0.338541512893  0.041840000000
CC322C    CT1     1  0.338541512893  0.041840000000
CC322C   CT1X     1  0.338541512893  0.041840000000
CC322C    CT2     1  0.338541512893  0.041840000000
CC322C   CT2A     1  0.338541512893  0.041840000000
CC322C   CT2P     1  0.338541512893  0.041840000000
CC322C   CT2X     1  0.338541512893  0.041840000000
CC322C    CT3     1  0.338541512893  0.041840000000
CC322C   CT3X     1  0.338541512893  0.041840000000
CC322C   CTD1     1  0.338541512893  0.041840000000
CC322C   CTL1     1  0.338541512893  0.041840000000
CC322C   CTL2     1  0.338541512893  0.041840000000
CC322C   CTL3     1  0.338541512893  0.041840000000
CC322C   CTL5     1  0.338541512893  0.041840000000
CC322C   CTO1     1  0.338541512893  0.041840000000
CC322C   CTO2     1  0.338541512893  0.041840000000
CC322C     CU     1  0.285800308779  0.908997471504
CC322C   CU1P     1  0.246066225950  0.180057894334
CC322C   CU2P     1  0.233869822499  0.162315474555
CC322C     CY     1  0.346559601357  0.113045454929
CC322C    DUM     1  0.169270756447  0.000000000000
CC322C   DY3P     1  0.297952167295  0.171135318061
CC322C   ER3P     1  0.291083338178  0.169232326746
CC322C   EU2P     1  0.333231756533  0.203602227414
CC322C   EU3P     1  0.304954631219  0.174528477447
CC322C     F1     1  0.314487247504  0.153729976257
CC322C     F2     1  0.314487247504  0.135577095411
CC322C     F3     1  0.311814551349  0.130309939452
CC322C     FA     1  0.320723538531  0.144938011577
CC322C     FE     1  0.227179173126  0.000000000000
CC322C   FE2P     1  0.265496726993  0.167098295383
CC322C   FE3P     1  0.219722350855  0.148045032716
CC322C   FGA1     1  0.314487247504  0.153729976257
CC322C   FGA2     1  0.314487247504  0.135577095411
CC322C   FGA3     1  0.311814551349  0.130309939452
CC322C   FGP1     1  0.311814551349  0.130309939452
CC322C   FGR1     1  0.320723538531  0.144938011577
CC322C    FNA     1  0.320723538531  0.144938011577
CC322C   GA3P     1  0.189485248361  0.145299904804
CC322C   GD3P     1  0.303351013527  0.173673803114
CC322C      H     1  0.189271432669  0.089736802707
CC322C     HA     1  0.286869387241  0.062058748940
CC322C    HA1     1  0.288651184677  0.088756043175
CC322C    HA2     1  0.288651184677  0.077149148019
CC322C    HA3     1  0.288651184677  0.064818249282
CC322C    HAL     1  0.286869387241  0.062058748940
CC322C   HAL1     1  0.286869387241  0.062058748940
CC322C   HAL2     1  0.288651184677  0.070011711020
CC322C   HAL3     1  0.288651184677  0.064818249282
CC322C     HB     1  0.286869387241  0.062058748940
CC322C    HB1     1  0.286869387241  0.062058748940
CC322C    HB2     1  0.288651184677  0.070011711020
CC322C    HBL     1  0.286869387241  0.062058748940
CC322C     HC     1  0.189271432669  0.089736802707
CC322C   HCA1     1  0.288651184677  0.088756043175
CC322C  HCA1A     1  0.288651184677  0.088756043175
CC322C HCA1C2     1  0.288651184677  0.088756043175
CC322C   HCA2     1  0.288651184677  0.078275472531
CC322C HCA25A     1  0.285087589805  0.078275472531
CC322C  HCA2A     1  0.288651184677  0.078275472531
CC322C HCA2C2     1  0.285087589805  0.078275472531
CC322C   HCA3     1  0.288651184677  0.064818249282
CC322C  HCA3A     1  0.288651184677  0.064818249282
CC322C  HCA3M     1  0.288651184677  0.064818249282
CC322C    HCL     1  0.189271432669  0.089736802707
CC322C   HCP1     1  0.189271432669  0.089736802707
CC322C  HCP1M     1  0.189271432669  0.089736802707
CC322C   HCR1     1  0.240542653898  0.089736802707
CC322C     HE     1  0.301123766731  0.061020452073
CC322C    HE1     1  0.280633096214  0.073666921749
CC322C    HE2     1  0.281523994932  0.067464972838
CC322C   HEL1     1  0.280633096214  0.073666921749
CC322C   HEL2     1  0.281523994932  0.067464972838
CC322C    HF1     1  0.286869387241  0.070011711020
CC322C    HF2     1  0.285087589805  0.072469005789
CC322C   HG2P     1  0.274557166956  0.189623385225
CC322C   HGA1     1  0.288651184677  0.088756043175
CC322C   HGA2     1  0.288651184677  0.078275472531
CC322C   HGA3     1  0.288651184677  0.064818249282
CC322C   HGA4     1  0.280633096214  0.073666921749
CC322C   HGA5     1  0.281523994932  0.067464972838
CC322C   HGA6     1  0.286869387241  0.070011711020
CC322C   HGA7     1  0.285087589805  0.072469005789
CC322C HGAAM0     1  0.283305792369  0.070011711020
CC322C HGAAM1     1  0.283305792369  0.070011711020
CC322C HGAAM2     1  0.281523994932  0.083680000000
CC322C   HGP1     1  0.189271432669  0.089736802707
CC322C   HGP2     1  0.189271432669  0.089736802707
CC322C   HGP3     1  0.209361198763  0.132309697301
CC322C   HGP4     1  0.189271432669  0.089736802707
CC322C   HGP5     1  0.231633666716  0.089736802707
CC322C HGPAM1     1  0.247224394284  0.039692909190
CC322C HGPAM2     1  0.247224394284  0.041840000000
CC322C HGPAM3     1  0.246778944925  0.045833423612
CC322C  HGR51     1  0.290272620344  0.072469005789
CC322C  HGR52     1  0.249451641079  0.089736802707
CC322C  HGR53     1  0.231633666716  0.089736802707
CC322C  HGR61     1  0.290272620344  0.072469005789
CC322C  HGR62     1  0.267269615442  0.089736802707
CC322C  HGR63     1  0.249451641079  0.089736802707
CC322C  HGR71     1  0.290272620344  0.072469005789
CC322C     HL     1  0.231633666716  0.089736802707
CC322C  HLGA1     1  0.288651184677  0.088756043175
CC322C  HLGA2     1  0.288651184677  0.078275472531
CC322C  HLGA3     1  0.288651184677  0.064818249282
CC322C  HLGA4     1  0.280633096214  0.073666921749
CC322C  HLGP1     1  0.189271432669  0.089736802707
CC322C HLGR52     1  0.249451641079  0.089736802707
CC322C HLGR61     1  0.290272620344  0.072469005789
CC322C HLGR62     1  0.267269615442  0.089736802707
CC322C    HN1     1  0.189271432669  0.089736802707
CC322C    HN2     1  0.189271432669  0.089736802707
CC322C    HN3     1  0.267269615442  0.089736802707
CC322C   HN3B     1  0.249451641079  0.089736802707
CC322C    HN4     1  0.189271432669  0.089736802707
CC322C    HN5     1  0.189271432669  0.089736802707
CC322C    HN6     1  0.286869387241  0.062058748940
CC322C    HN7     1  0.286869387241  0.062058748940
CC322C    HN8     1  0.288651184677  0.070011711020
CC322C    HN9     1  0.288651184677  0.064818249282
CC322C   HNE1     1  0.280633096214  0.073666921749
CC322C   HNE2     1  0.281523994932  0.067464972838
CC322C    HNP     1  0.290272620344  0.072469005789
CC322C   HO3P     1  0.293168041178  0.170263611896
CC322C    HOL     1  0.189271432669  0.089736802707
CC322C     HP     1  0.290272620344  0.072469005789
CC322C   HPER     1  0.189271432669  0.089736802707
CC322C    HR1     1  0.249451641079  0.089736802707
CC322C    HR2     1  0.231633666716  0.089736802707
CC322C    HR3     1  0.300054688270  0.036952087465
CC322C   HRA3     1  0.288651184677  0.064818249282
CC322C   HRM1     1  0.247224394284  0.039692909190
CC322C   HRM2     1  0.247224394284  0.041840000000
CC322C   HRP2     1  0.189271432669  0.089736802707
CC322C     HS     1  0.209361198763  0.132309697301
CC322C   HSIA     1  0.286869387241  0.062058748940
CC322C   HSIO     1  0.189271432669  0.089736802707
CC322C     HT     1  0.189271432669  0.089736802707
CC322C     HX     1  0.189271432669  0.089736802707
CC322C   IGR1     1  0.368832069310  0.301712530731
CC322C   IN3P     1  0.246449312399  0.160580590010
CC322C   LA3P     1  0.327200372211  0.182184255566
CC322C    LIT     1  0.284864865125  0.020196198771
CC322C    LPH     1  0.169270756447  0.000000000000
CC322C   LU3P     1  0.289648991242  0.166731218816
CC322C     MG     1  0.274842254546  0.051243325419
CC322C   MN2P     1  0.276508235149  0.171747976291
CC322C   MN3P     1  0.203516903172  0.148045032716
CC322C      N     1  0.334087019303  0.004184000000
CC322C     NC     1  0.334087019303  0.324091246411
CC322C    NC2     1  0.334087019303  0.187114168357
CC322C  NC2D1     1  0.307360057758  0.187114168357
CC322C  NC311     1  0.347450500075  0.088756043175
CC322C   ND3P     1  0.313587439798  0.177117175768
CC322C     NE     1  0.305578260322  0.122698965603
CC322C  NG1T1     1  0.328741626994  0.177512086349
CC322C  NG2D1     1  0.334087019303  0.187114168357
CC322C  NG2O1     1  0.334087019303  0.187114168357
CC322C  NG2P1     1  0.334087019303  0.187114168357
CC322C NG2R43     1  0.334087019303  0.187114168357
CC322C NG2R50     1  0.334087019303  0.187114168357
CC322C NG2R51     1  0.334087019303  0.187114168357
CC322C NG2R52     1  0.334087019303  0.187114168357
CC322C NG2R53     1  0.334087019303  0.187114168357
CC322C NG2R57     1  0.334087019303  0.187114168357
CC322C NG2R60     1  0.337650614175  0.102486650838
CC322C NG2R61     1  0.334087019303  0.187114168357
CC322C NG2R62     1  0.352795892384  0.093557084179
CC322C NG2R67     1  0.334087019303  0.187114168357
CC322C NG2RC0     1  0.334087019303  0.187114168357
CC322C  NG2S0     1  0.334087019303  0.004184000000
CC322C  NG2S1     1  0.307360057758  0.187114168357
CC322C  NG2S2     1  0.334087019303  0.187114168357
CC322C  NG2S3     1  0.334087019303  0.187114168357
CC322C  NG301     1  0.347450500075  0.078275472531
CC322C  NG311     1  0.347450500075  0.088756043175
CC322C  NG321     1  0.346559601357  0.102486650838
CC322C  NG331     1  0.345668702638  0.110698234855
CC322C NG3C51     1  0.334087019303  0.187114168357
CC322C  NG3N1     1  0.351904993665  0.102486650838
CC322C  NG3P0     1  0.334087019303  0.187114168357
CC322C  NG3P1     1  0.334087019303  0.187114168357
CC322C  NG3P2     1  0.334087019303  0.187114168357
CC322C  NG3P3     1  0.334087019303  0.187114168357
CC322C    NH1     1  0.307360057758  0.187114168357
CC322C    NH2     1  0.334087019303  0.187114168357
CC322C    NH3     1  0.334087019303  0.187114168357
CC322C   NH3L     1  0.334087019303  0.187114168357
CC322C    NHL     1  0.307360057758  0.187114168357
CC322C     NI     1  0.282949432881  0.994525446633
CC322C   NI2P     1  0.238787583423  0.158440517242
CC322C    NN1     1  0.334087019303  0.187114168357
CC322C   NN1C     1  0.334087019303  0.187114168357
CC322C    NN2     1  0.334087019303  0.187114168357
CC322C   NN2B     1  0.334087019303  0.187114168357
CC322C   NN2C     1  0.334087019303  0.187114168357
CC322C   NN2G     1  0.334087019303  0.187114168357
CC322C   NN2U     1  0.334087019303  0.187114168357
CC322C    NN3     1  0.334087019303  0.187114168357
CC322C   NN3A     1  0.334087019303  0.187114168357
CC322C   NN3G     1  0.334087019303  0.187114168357
CC322C   NN3I     1  0.334087019303  0.187114168357
CC322C    NN4     1  0.334087019303  0.187114168357
CC322C    NN6     1  0.334087019303  0.187114168357
CC322C    NNG     1  0.334087019303  0.187114168357
CC322C     NP     1  0.334087019303  0.187114168357
CC322C    NPH     1  0.334087019303  0.187114168357
CC322C    NR1     1  0.334087019303  0.187114168357
CC322C    NR2     1  0.334087019303  0.187114168357
CC322C    NR3     1  0.334087019303  0.187114168357
CC322C   NRC4     1  0.334087019303  0.187114168357
CC322C   NRN1     1  0.347450500075  0.280671252536
CC322C   NRN2     1  0.346559601357  0.102486650838
CC322C    NS1     1  0.334087019303  0.187114168357
CC322C    NS2     1  0.334087019303  0.187114168357
CC322C    NTL     1  0.334087019303  0.187114168357
CC322C     NY     1  0.334087019303  0.187114168357
CC322C      O     1  0.293996576986  0.144938011577
CC322C    O2L     1  0.320723538531  0.144938011577
CC322C    OAL     1  0.326959829558  0.163176000000
CC322C     OB     1  0.293996576986  0.144938011577
CC322C    OBL     1  0.293996576986  0.144938011577
CC322C     OC     1  0.320723538531  0.144938011577
CC322C  OC2D1     1  0.293996576986  0.144938011577
CC322C  OC2D2     1  0.320723538531  0.144938011577
CC322C  OC2D3     1  0.293996576986  0.144938011577
CC322C  OC2D4     1  0.293996576986  0.144938011577
CC322C  OC2DP     1  0.320723538531  0.144938011577
CC322C  OC301     1  0.316269044940  0.132309697301
CC322C  OC302     1  0.316269044940  0.132309697301
CC322C  OC303     1  0.316269044940  0.132309697301
CC322C OC305A     1  0.316269044940  0.132309697301
CC322C  OC30A     1  0.316269044940  0.132309697301
CC322C  OC30P     1  0.326959829558  0.163176000000
CC322C  OC311     1  0.326514380198  0.183381431383
CC322C OC311M     1  0.326514380198  0.183381431383
CC322C  OC312     1  0.326959829558  0.163176000000
CC322C OC3C51     1  0.316269044940  0.132309697301
CC322C OC3C5M     1  0.316269044940  0.132309697301
CC322C OC3C61     1  0.316269044940  0.132309697301
CC322C    OCA     1  0.293996576986  0.144938011577
CC322C    OCL     1  0.320723538531  0.144938011577
CC322C  OG2D1     1  0.293996576986  0.144938011577
CC322C  OG2D2     1  0.320723538531  0.144938011577
CC322C  OG2D3     1  0.293996576986  0.144938011577
CC322C  OG2D4     1  0.320723538531  0.144938011577
CC322C  OG2D5     1  0.320010819556  0.169954883425
CC322C  OG2N1     1  0.320723538531  0.144938011577
CC322C  OG2P1     1  0.320723538531  0.144938011577
CC322C OG2R50     1  0.320723538531  0.144938011577
CC322C  OG2S1     1  0.318906105146  0.157831660601
CC322C  OG301     1  0.316269044940  0.132309697301
CC322C  OG302     1  0.316269044940  0.132309697301
CC322C  OG303     1  0.316269044940  0.132309697301
CC322C  OG304     1  0.316269044940  0.132309697301
CC322C  OG311     1  0.326514380198  0.183381431383
CC322C  OG312     1  0.325178032121  0.144938011577
CC322C OG3C31     1  0.316269044940  0.132309697301
CC322C OG3C51     1  0.316269044940  0.132309697301
CC322C OG3C61     1  0.316269044940  0.132309697301
CC322C OG3R60     1  0.316269044940  0.132309697301
CC322C    OH1     1  0.326959829558  0.163176000000
CC322C    OHL     1  0.326959829558  0.163176000000
CC322C   OLG1     1  0.293996576986  0.144938011577
CC322C   OLG2     1  0.320723538531  0.144938011577
CC322C   OLG3     1  0.320723538531  0.144938011577
CC322C   OLG4     1  0.316269044940  0.132309697301
CC322C   OLG5     1  0.316269044940  0.132309697301
CC322C   OLG6     1  0.326514380198  0.183381431383
CC322C   OLG7     1  0.316269044940  0.132309697301
CC322C   OLG8     1  0.316269044940  0.132309697301
CC322C     OM     1  0.320723538531  0.144938011577
CC322C    ON1     1  0.320723538531  0.144938011577
CC322C   ON1C     1  0.320723538531  0.144938011577
CC322C    ON2     1  0.326959829558  0.163176000000
CC322C   ON2B     1  0.326959829558  0.163176000000
CC322C   ON2M     1  0.316269044940  0.132309697301
CC322C    ON3     1  0.320723538531  0.144938011577
CC322C    ON4     1  0.326959829558  0.163176000000
CC322C    ON5     1  0.326959829558  0.163176000000
CC322C    ON6     1  0.326959829558  0.163176000000
CC322C   ON6B     1  0.326959829558  0.163176000000
CC322C   OPER     1  0.318427692534  0.188901923946
CC322C     OS     1  0.326959829558  0.163176000000
CC322C   OSIA     1  0.326959829558  0.163176000000
CC322C   OSIE     1  0.326959829558  0.163176000000
CC322C   OSIH     1  0.326959829558  0.163176000000
CC322C    OSL     1  0.316269044940  0.132309697301
CC322C   OSLP     1  0.316269044940  0.132309697301
CC322C    OST     1  0.320010819556  0.169954883425
CC322C     OT     1  0.326799467788  0.163176000000
CC322C     OX     1  0.320723538531  0.144938011577
CC322C      P     1  0.360813980847  0.320014464673
CC322C     P2     1  0.360813980847  0.320014464673
CC322C     P3     1  0.360813980847  0.320014464673
CC322C     P4     1  0.360813980847  0.320014464673
CC322C     PB     1  0.328073452955  0.716185437439
CC322C   PB2P     1  0.325890751096  0.204716924713
CC322C     PC     1  0.360813980847  0.320014464673
CC322C     PD     1  0.294842930769  1.037598257516
CC322C   PD2P     1  0.251865976605  0.174628752363
CC322C    PG0     1  0.360813980847  0.320014464673
CC322C    PG1     1  0.360813980847  0.320014464673
CC322C    PG2     1  0.360813980847  0.320014464673
CC322C     PL     1  0.360813980847  0.320014464673
CC322C   PM3P     1  0.316910492017  0.176275053255
CC322C    POT     1  0.326403017859  0.123410269913
CC322C   PR3P     1  0.317079762773  0.178642591472
CC322C     PT     1  0.296001099102  1.168527606863
CC322C   PT2P     1  0.240284293270  0.168973521997
CC322C   PU3P     1  0.318024115415  0.179522368790
CC322C   RA2P     1  0.355459679551  0.229891668540
CC322C   RH3P     1  0.210367914314  0.149983415617
CC322C    RUB     1  0.338541512893  0.162045623205
CC322C      S     1  0.347450500075  0.280671252536
CC322C     SC     1  0.356359487256  0.286840588481
CC322C   SC3P     1  0.266993436839  0.157109060719
CC322C  SEGD1     1  0.363041227642  0.330244580395
CC322C  SG2D1     1  0.351904993665  0.314496560236
CC322C  SG2P1     1  0.355798221064  0.332305491450
CC322C  SG2P2     1  0.352314807076  0.329421919951
CC322C SG2R50     1  0.347450500075  0.280671252536
CC322C  SG301     1  0.345223253279  0.257919081884
CC322C  SG302     1  0.365268474438  0.286840588481
CC322C  SG311     1  0.347450500075  0.280671252536
CC322C  SG3O1     1  0.356359487256  0.286840588481
CC322C  SG3O2     1  0.347450500075  0.247528778125
CC322C  SG3O3     1  0.347450500075  0.247528778125
CC322C     SI     1  0.365268474438  0.324091246411
CC322C   SIH3     1  0.365268474438  0.324091246411
CC322C     SL     1  0.356359487256  0.286840588481
CC322C     SM     1  0.345223253279  0.257919081884
CC322C   SM2P     1  0.334666103469  0.207012887251
CC322C   SM3P     1  0.308847858618  0.175378986746
CC322C   SN2P     1  0.316981763914  0.181365662197
CC322C    SOD     1  0.294954293108  0.090610410351
CC322C     SP     1  0.365268474438  0.280671252536
CC322C   SR2P     1  0.334612649546  0.200133451797
CC322C     SS     1  0.365268474438  0.286840588481
CC322C   TB3P     1  0.300678317372  0.172155203837
CC322C   TI1P     1  0.341276571958  0.266826378666
CC322C   TI3P     1  0.243117351193  0.149983415617
CC322C   TL3P     1  0.246716582015  0.168869889039
CC322C   TM3P     1  0.289417357575  0.168402751521
CC322C    U3P     1  0.320830446377  0.182184255566
CC322C    V2P     1  0.267599247968  0.167830039933
CC322C    V3P     1  0.223989755715  0.147096016316
CC322C    Y3P     1  0.295190381269  0.170263611896
CC322C   YB2P     1  0.312616360195  0.189623385225
CC322C   YB3P     1  0.284659958420  0.167569069413
CC322C     ZN     1  0.266378716724  0.209200000000
CC3251 CC3251     1  0.338541512893  0.041840000000
CC3251 CC325A     1  0.338541512893  0.041840000000
CC3251 CC325B     1  0.338541512893  0.041840000000
CC3251 CC3261     1  0.338541512893  0.041840000000
CC3251 CC3263     1  0.338541512893  0.041840000000
CC3251 CC326A     1  0.338541512893  0.041840000000
CC3251  CC32A     1  0.338541512893  0.041840000000
CC3251  CC331     1  0.338541512893  0.041840000000
CC3251  CC33A     1  0.338541512893  0.041840000000
CC3251    CCL     1  0.347450500075  0.110698234855
CC3251     CD     1  0.347450500075  0.110698234855
CC3251    CE1     1  0.355468588538  0.109105371453
CC3251    CE2     1  0.354577689820  0.105847757841
CC3251   CE3P     1  0.321748072056  0.179522368790
CC3251   CEL1     1  0.355468588538  0.109105371453
CC3251   CEL2     1  0.354577689820  0.105847757841
CC3251   CEL3     1  0.355468588538  0.109105371453
CC3251    CES     1  0.356359487256  0.182376331798
CC3251    CF1     1  0.338541512893  0.102486650838
CC3251    CF2     1  0.351904993665  0.085746484010
CC3251    CF3     1  0.374177461619  0.059170695450
CC3251  CG1N1     1  0.335868816739  0.177512086349
CC3251  CG1T1     1  0.333196120584  0.170981810495
CC3251  CG1T2     1  0.346782326036  0.134409982486
CC3251 CG251O     1  0.355468588538  0.109105371453
CC3251 CG252O     1  0.355468588538  0.109105371453
CC3251 CG25C1     1  0.355468588538  0.109105371453
CC3251 CG25C2     1  0.355468588538  0.109105371453
CC3251  CG2D1     1  0.355468588538  0.109105371453
CC3251 CG2D1O     1  0.355468588538  0.109105371453
CC3251  CG2D2     1  0.354577689820  0.105847757841
CC3251 CG2D2O     1  0.355468588538  0.109105371453
CC3251 CG2DC1     1  0.355468588538  0.109105371453
CC3251 CG2DC2     1  0.355468588538  0.109105371453
CC3251 CG2DC3     1  0.354577689820  0.105847757841
CC3251  CG2N1     1  0.347450500075  0.138767581228
CC3251  CG2N2     1  0.347450500075  0.138767581228
CC3251  CG2O1     1  0.347450500075  0.138767581228
CC3251  CG2O2     1  0.320723538531  0.130979917850
CC3251  CG2O3     1  0.347450500075  0.110698234855
CC3251  CG2O4     1  0.329632525712  0.102486650838
CC3251  CG2O5     1  0.347450500075  0.125520000000
CC3251  CG2O6     1  0.347450500075  0.110698234855
CC3251  CG2O7     1  0.308518226092  0.100764063435
CC3251 CG2R51     1  0.356359487256  0.093557084179
CC3251 CG2R52     1  0.365268474438  0.059170695450
CC3251 CG2R53     1  0.365268474438  0.059170695450
CC3251 CG2R57     1  0.356359487256  0.093557084179
CC3251 CG2R61     1  0.346773417049  0.110698234855
CC3251 CG2R62     1  0.338541512893  0.125520000000
CC3251 CG2R63     1  0.338541512893  0.132309697301
CC3251 CG2R64     1  0.356359487256  0.083680000000
CC3251 CG2R66     1  0.338541512893  0.110698234855
CC3251 CG2R67     1  0.346773417049  0.110698234855
CC3251 CG2R71     1  0.346987232741  0.108300154755
CC3251 CG2RC0     1  0.334977918021  0.131646486622
CC3251 CG2RC7     1  0.334977918021  0.131646486622
CC3251  CG301     1  0.338541512893  0.041840000000
CC3251  CG302     1  0.374177461619  0.059170695450
CC3251  CG311     1  0.338541512893  0.041840000000
CC3251  CG312     1  0.351904993665  0.085746484010
CC3251  CG314     1  0.338541512893  0.041840000000
CC3251  CG321     1  0.338541512893  0.041840000000
CC3251  CG322     1  0.338541512893  0.102486650838
CC3251  CG323     1  0.365268474438  0.138767581228
CC3251  CG324     1  0.338541512893  0.041840000000
CC3251  CG331     1  0.338541512893  0.041840000000
CC3251  CG334     1  0.338541512893  0.041840000000
CC3251 CG3AM0     1  0.344777803920  0.110698234855
CC3251 CG3AM1     1  0.345668702638  0.116852760686
CC3251 CG3AM2     1  0.346559601357  0.118341390899
CC3251 CG3C31     1  0.338541512893  0.041840000000
CC3251 CG3C41     1  0.338541512893  0.041840000000
CC3251 CG3C50     1  0.338541512893  0.041840000000
CC3251 CG3C51     1  0.338541512893  0.041840000000
CC3251 CG3C52     1  0.338541512893  0.041840000000
CC3251 CG3C53     1  0.338541512893  0.041840000000
CC3251 CG3C54     1  0.338541512893  0.041840000000
CC3251 CG3RC1     1  0.338541512893  0.041840000000
CC3251     CL     1  0.347450500075  0.110698234855
CC3251    CLA     1  0.371504765465  0.162045623205
CC3251   CLAL     1  0.339272049842  0.072469005789
CC3251  CLG01     1  0.355468588538  0.109105371453
CC3251  CLG02     1  0.355468588538  0.109105371453
CC3251  CLG03     1  0.320723538531  0.130979917850
CC3251  CLG04     1  0.347450500075  0.110698234855
CC3251  CLG05     1  0.329632525712  0.102486650838
CC3251  CLG06     1  0.346773417049  0.110698234855
CC3251 CLG06A     1  0.346773417049  0.110698234855
CC3251 CLG06B     1  0.346773417049  0.110698234855
CC3251  CLG07     1  0.338541512893  0.125520000000
CC3251  CLG08     1  0.338541512893  0.132309697301
CC3251  CLG09     1  0.346773417049  0.110698234855
CC3251  CLG10     1  0.334977918021  0.131646486622
CC3251  CLG11     1  0.338541512893  0.041840000000
CC3251  CLG12     1  0.338541512893  0.041840000000
CC3251  CLG13     1  0.338541512893  0.041840000000
CC3251  CLG14     1  0.338541512893  0.041840000000
CC3251  CLG15     1  0.338541512893  0.041840000000
CC3251  CLG16     1  0.338541512893  0.041840000000
CC3251  CLGA1     1  0.339432411611  0.245040988571
CC3251  CLGA3     1  0.339432411611  0.232955260941
CC3251  CLGR1     1  0.334977918021  0.200657590935
CC3251     CM     1  0.356359487256  0.138767581228
CC3251     CN     1  0.325178032121  0.187114168357
CC3251    CN1     1  0.338541512893  0.132309697301
CC3251   CN1A     1  0.347450500075  0.110698234855
CC3251   CN1T     1  0.338541512893  0.132309697301
CC3251    CN2     1  0.338541512893  0.132309697301
CC3251    CN3     1  0.338541512893  0.125520000000
CC3251   CN3A     1  0.329632525712  0.177512086349
CC3251   CN3B     1  0.329632525712  0.177512086349
CC3251   CN3C     1  0.329632525712  0.177512086349
CC3251   CN3D     1  0.338541512893  0.125520000000
CC3251   CN3T     1  0.338541512893  0.125520000000
CC3251    CN4     1  0.338541512893  0.114583559030
CC3251    CN5     1  0.338541512893  0.114583559030
CC3251   CN5G     1  0.338541512893  0.114583559030
CC3251    CN6     1  0.338541512893  0.041840000000
CC3251    CN7     1  0.338541512893  0.041840000000
CC3251   CN7B     1  0.338541512893  0.041840000000
CC3251   CN7E     1  0.338541512893  0.041840000000
CC3251    CN8     1  0.338541512893  0.041840000000
CC3251   CN8B     1  0.338541512893  0.041840000000
CC3251    CN9     1  0.338541512893  0.041840000000
CC3251    CNA     1  0.346773417049  0.110698234855
CC3251   CNA2     1  0.338541512893  0.110698234855
CC3251   CNE1     1  0.355468588538  0.109105371453
CC3251   CNE2     1  0.354577689820  0.105847757841
CC3251    CNG     1  0.347450500075  0.138767581228
CC3251   CO2P     1  0.251910521541  0.164138698618
CC3251   CO3P     1  0.192264852362  0.144393471099
CC3251    COA     1  0.347450500075  0.138767581228
CC3251    CP1     1  0.338541512893  0.041840000000
CC3251    CP2     1  0.338541512893  0.041840000000
CC3251    CP3     1  0.338541512893  0.041840000000
CC3251    CPA     1  0.329632525712  0.125520000000
CC3251    CPB     1  0.329632525712  0.125520000000
CC3251   CPD1     1  0.338541512893  0.041840000000
CC3251   CPH1     1  0.329632525712  0.093557084179
CC3251   CPH2     1  0.329632525712  0.093557084179
CC3251    CPM     1  0.329632525712  0.125520000000
CC3251    CPT     1  0.334977918021  0.131646486622
CC3251   CR2P     1  0.263634748672  0.170828164985
CC3251   CR33     1  0.338541512893  0.041840000000
CC3251   CR3P     1  0.244382427373  0.145299904804
CC3251   CRL1     1  0.338541512893  0.041840000000
CC3251   CRL2     1  0.338541512893  0.041840000000
CC3251   CRN1     1  0.347450500075  0.138767581228
CC3251     CS     1  0.365268474438  0.138767581228
CC3251    CST     1  0.308518226092  0.100764063435
CC3251     CT     1  0.338541512893  0.041840000000
CC3251    CT1     1  0.338541512893  0.041840000000
CC3251   CT1X     1  0.338541512893  0.041840000000
CC3251    CT2     1  0.338541512893  0.041840000000
CC3251   CT2A     1  0.338541512893  0.041840000000
CC3251   CT2P     1  0.338541512893  0.041840000000
CC3251   CT2X     1  0.338541512893  0.041840000000
CC3251    CT3     1  0.338541512893  0.041840000000
CC3251   CT3X     1  0.338541512893  0.041840000000
CC3251   CTD1     1  0.338541512893  0.041840000000
CC3251   CTL1     1  0.338541512893  0.041840000000
CC3251   CTL2     1  0.338541512893  0.041840000000
CC3251   CTL3     1  0.338541512893  0.041840000000
CC3251   CTL5     1  0.338541512893  0.041840000000
CC3251   CTO1     1  0.338541512893  0.041840000000
CC3251   CTO2     1  0.338541512893  0.041840000000
CC3251     CU     1  0.285800308779  0.908997471504
CC3251   CU1P     1  0.246066225950  0.180057894334
CC3251   CU2P     1  0.233869822499  0.162315474555
CC3251     CY     1  0.346559601357  0.113045454929
CC3251    DUM     1  0.169270756447  0.000000000000
CC3251   DY3P     1  0.297952167295  0.171135318061
CC3251   ER3P     1  0.291083338178  0.169232326746
CC3251   EU2P     1  0.333231756533  0.203602227414
CC3251   EU3P     1  0.304954631219  0.174528477447
CC3251     F1     1  0.314487247504  0.153729976257
CC3251     F2     1  0.314487247504  0.135577095411
CC3251     F3     1  0.311814551349  0.130309939452
CC3251     FA     1  0.320723538531  0.144938011577
CC3251     FE     1  0.227179173126  0.000000000000
CC3251   FE2P     1  0.265496726993  0.167098295383
CC3251   FE3P     1  0.219722350855  0.148045032716
CC3251   FGA1     1  0.314487247504  0.153729976257
CC3251   FGA2     1  0.314487247504  0.135577095411
CC3251   FGA3     1  0.311814551349  0.130309939452
CC3251   FGP1     1  0.311814551349  0.130309939452
CC3251   FGR1     1  0.320723538531  0.144938011577
CC3251    FNA     1  0.320723538531  0.144938011577
CC3251   GA3P     1  0.189485248361  0.145299904804
CC3251   GD3P     1  0.303351013527  0.173673803114
CC3251      H     1  0.189271432669  0.089736802707
CC3251     HA     1  0.286869387241  0.062058748940
CC3251    HA1     1  0.288651184677  0.088756043175
CC3251    HA2     1  0.288651184677  0.077149148019
CC3251    HA3     1  0.288651184677  0.064818249282
CC3251    HAL     1  0.286869387241  0.062058748940
CC3251   HAL1     1  0.286869387241  0.062058748940
CC3251   HAL2     1  0.288651184677  0.070011711020
CC3251   HAL3     1  0.288651184677  0.064818249282
CC3251     HB     1  0.286869387241  0.062058748940
CC3251    HB1     1  0.286869387241  0.062058748940
CC3251    HB2     1  0.288651184677  0.070011711020
CC3251    HBL     1  0.286869387241  0.062058748940
CC3251     HC     1  0.189271432669  0.089736802707
CC3251   HCA1     1  0.288651184677  0.088756043175
CC3251  HCA1A     1  0.288651184677  0.088756043175
CC3251 HCA1C2     1  0.288651184677  0.088756043175
CC3251   HCA2     1  0.288651184677  0.078275472531
CC3251 HCA25A     1  0.285087589805  0.078275472531
CC3251  HCA2A     1  0.288651184677  0.078275472531
CC3251 HCA2C2     1  0.285087589805  0.078275472531
CC3251   HCA3     1  0.288651184677  0.064818249282
CC3251  HCA3A     1  0.288651184677  0.064818249282
CC3251  HCA3M     1  0.288651184677  0.064818249282
CC3251    HCL     1  0.189271432669  0.089736802707
CC3251   HCP1     1  0.189271432669  0.089736802707
CC3251  HCP1M     1  0.189271432669  0.089736802707
CC3251   HCR1     1  0.240542653898  0.089736802707
CC3251     HE     1  0.301123766731  0.061020452073
CC3251    HE1     1  0.280633096214  0.073666921749
CC3251    HE2     1  0.281523994932  0.067464972838
CC3251   HEL1     1  0.280633096214  0.073666921749
CC3251   HEL2     1  0.281523994932  0.067464972838
CC3251    HF1     1  0.286869387241  0.070011711020
CC3251    HF2     1  0.285087589805  0.072469005789
CC3251   HG2P     1  0.274557166956  0.189623385225
CC3251   HGA1     1  0.288651184677  0.088756043175
CC3251   HGA2     1  0.288651184677  0.078275472531
CC3251   HGA3     1  0.288651184677  0.064818249282
CC3251   HGA4     1  0.280633096214  0.073666921749
CC3251   HGA5     1  0.281523994932  0.067464972838
CC3251   HGA6     1  0.286869387241  0.070011711020
CC3251   HGA7     1  0.285087589805  0.072469005789
CC3251 HGAAM0     1  0.283305792369  0.070011711020
CC3251 HGAAM1     1  0.283305792369  0.070011711020
CC3251 HGAAM2     1  0.281523994932  0.083680000000
CC3251   HGP1     1  0.189271432669  0.089736802707
CC3251   HGP2     1  0.189271432669  0.089736802707
CC3251   HGP3     1  0.209361198763  0.132309697301
CC3251   HGP4     1  0.189271432669  0.089736802707
CC3251   HGP5     1  0.231633666716  0.089736802707
CC3251 HGPAM1     1  0.247224394284  0.039692909190
CC3251 HGPAM2     1  0.247224394284  0.041840000000
CC3251 HGPAM3     1  0.246778944925  0.045833423612
CC3251  HGR51     1  0.290272620344  0.072469005789
CC3251  HGR52     1  0.249451641079  0.089736802707
CC3251  HGR53     1  0.231633666716  0.089736802707
CC3251  HGR61     1  0.290272620344  0.072469005789
CC3251  HGR62     1  0.267269615442  0.089736802707
CC3251  HGR63     1  0.249451641079  0.089736802707
CC3251  HGR71     1  0.290272620344  0.072469005789
CC3251     HL     1  0.231633666716  0.089736802707
CC3251  HLGA1     1  0.288651184677  0.088756043175
CC3251  HLGA2     1  0.288651184677  0.078275472531
CC3251  HLGA3     1  0.288651184677  0.064818249282
CC3251  HLGA4     1  0.280633096214  0.073666921749
CC3251  HLGP1     1  0.189271432669  0.089736802707
CC3251 HLGR52     1  0.249451641079  0.089736802707
CC3251 HLGR61     1  0.290272620344  0.072469005789
CC3251 HLGR62     1  0.267269615442  0.089736802707
CC3251    HN1     1  0.189271432669  0.089736802707
CC3251    HN2     1  0.189271432669  0.089736802707
CC3251    HN3     1  0.267269615442  0.089736802707
CC3251   HN3B     1  0.249451641079  0.089736802707
CC3251    HN4     1  0.189271432669  0.089736802707
CC3251    HN5     1  0.189271432669  0.089736802707
CC3251    HN6     1  0.286869387241  0.062058748940
CC3251    HN7     1  0.286869387241  0.062058748940
CC3251    HN8     1  0.288651184677  0.070011711020
CC3251    HN9     1  0.288651184677  0.064818249282
CC3251   HNE1     1  0.280633096214  0.073666921749
CC3251   HNE2     1  0.281523994932  0.067464972838
CC3251    HNP     1  0.290272620344  0.072469005789
CC3251   HO3P     1  0.293168041178  0.170263611896
CC3251    HOL     1  0.189271432669  0.089736802707
CC3251     HP     1  0.290272620344  0.072469005789
CC3251   HPER     1  0.189271432669  0.089736802707
CC3251    HR1     1  0.249451641079  0.089736802707
CC3251    HR2     1  0.231633666716  0.089736802707
CC3251    HR3     1  0.300054688270  0.036952087465
CC3251   HRA3     1  0.288651184677  0.064818249282
CC3251   HRM1     1  0.247224394284  0.039692909190
CC3251   HRM2     1  0.247224394284  0.041840000000
CC3251   HRP2     1  0.189271432669  0.089736802707
CC3251     HS     1  0.209361198763  0.132309697301
CC3251   HSIA     1  0.286869387241  0.062058748940
CC3251   HSIO     1  0.189271432669  0.089736802707
CC3251     HT     1  0.189271432669  0.089736802707
CC3251     HX     1  0.189271432669  0.089736802707
CC3251   IGR1     1  0.368832069310  0.301712530731
CC3251   IN3P     1  0.246449312399  0.160580590010
CC3251   LA3P     1  0.327200372211  0.182184255566
CC3251    LIT     1  0.284864865125  0.020196198771
CC3251    LPH     1  0.169270756447  0.000000000000
CC3251   LU3P     1  0.289648991242  0.166731218816
CC3251     MG     1  0.274842254546  0.051243325419
CC3251   MN2P     1  0.276508235149  0.171747976291
CC3251   MN3P     1  0.203516903172  0.148045032716
CC3251      N     1  0.334087019303  0.004184000000
CC3251     NC     1  0.334087019303  0.324091246411
CC3251    NC2     1  0.334087019303  0.187114168357
CC3251  NC2D1     1  0.307360057758  0.187114168357
CC3251  NC311     1  0.347450500075  0.088756043175
CC3251   ND3P     1  0.313587439798  0.177117175768
CC3251     NE     1  0.305578260322  0.122698965603
CC3251  NG1T1     1  0.328741626994  0.177512086349
CC3251  NG2D1     1  0.334087019303  0.187114168357
CC3251  NG2O1     1  0.334087019303  0.187114168357
CC3251  NG2P1     1  0.334087019303  0.187114168357
CC3251 NG2R43     1  0.334087019303  0.187114168357
CC3251 NG2R50     1  0.334087019303  0.187114168357
CC3251 NG2R51     1  0.334087019303  0.187114168357
CC3251 NG2R52     1  0.334087019303  0.187114168357
CC3251 NG2R53     1  0.334087019303  0.187114168357
CC3251 NG2R57     1  0.334087019303  0.187114168357
CC3251 NG2R60     1  0.337650614175  0.102486650838
CC3251 NG2R61     1  0.334087019303  0.187114168357
CC3251 NG2R62     1  0.352795892384  0.093557084179
CC3251 NG2R67     1  0.334087019303  0.187114168357
CC3251 NG2RC0     1  0.334087019303  0.187114168357
CC3251  NG2S0     1  0.334087019303  0.004184000000
CC3251  NG2S1     1  0.307360057758  0.187114168357
CC3251  NG2S2     1  0.334087019303  0.187114168357
CC3251  NG2S3     1  0.334087019303  0.187114168357
CC3251  NG301     1  0.347450500075  0.078275472531
CC3251  NG311     1  0.347450500075  0.088756043175
CC3251  NG321     1  0.346559601357  0.102486650838
CC3251  NG331     1  0.345668702638  0.110698234855
CC3251 NG3C51     1  0.334087019303  0.187114168357
CC3251  NG3N1     1  0.351904993665  0.102486650838
CC3251  NG3P0     1  0.334087019303  0.187114168357
CC3251  NG3P1     1  0.334087019303  0.187114168357
CC3251  NG3P2     1  0.334087019303  0.187114168357
CC3251  NG3P3     1  0.334087019303  0.187114168357
CC3251    NH1     1  0.307360057758  0.187114168357
CC3251    NH2     1  0.334087019303  0.187114168357
CC3251    NH3     1  0.334087019303  0.187114168357
CC3251   NH3L     1  0.334087019303  0.187114168357
CC3251    NHL     1  0.307360057758  0.187114168357
CC3251     NI     1  0.282949432881  0.994525446633
CC3251   NI2P     1  0.238787583423  0.158440517242
CC3251    NN1     1  0.334087019303  0.187114168357
CC3251   NN1C     1  0.334087019303  0.187114168357
CC3251    NN2     1  0.334087019303  0.187114168357
CC3251   NN2B     1  0.334087019303  0.187114168357
CC3251   NN2C     1  0.334087019303  0.187114168357
CC3251   NN2G     1  0.334087019303  0.187114168357
CC3251   NN2U     1  0.334087019303  0.187114168357
CC3251    NN3     1  0.334087019303  0.187114168357
CC3251   NN3A     1  0.334087019303  0.187114168357
CC3251   NN3G     1  0.334087019303  0.187114168357
CC3251   NN3I     1  0.334087019303  0.187114168357
CC3251    NN4     1  0.334087019303  0.187114168357
CC3251    NN6     1  0.334087019303  0.187114168357
CC3251    NNG     1  0.334087019303  0.187114168357
CC3251     NP     1  0.334087019303  0.187114168357
CC3251    NPH     1  0.334087019303  0.187114168357
CC3251    NR1     1  0.334087019303  0.187114168357
CC3251    NR2     1  0.334087019303  0.187114168357
CC3251    NR3     1  0.334087019303  0.187114168357
CC3251   NRC4     1  0.334087019303  0.187114168357
CC3251   NRN1     1  0.347450500075  0.280671252536
CC3251   NRN2     1  0.346559601357  0.102486650838
CC3251    NS1     1  0.334087019303  0.187114168357
CC3251    NS2     1  0.334087019303  0.187114168357
CC3251    NTL     1  0.334087019303  0.187114168357
CC3251     NY     1  0.334087019303  0.187114168357
CC3251      O     1  0.293996576986  0.144938011577
CC3251    O2L     1  0.320723538531  0.144938011577
CC3251    OAL     1  0.326959829558  0.163176000000
CC3251     OB     1  0.293996576986  0.144938011577
CC3251    OBL     1  0.293996576986  0.144938011577
CC3251     OC     1  0.320723538531  0.144938011577
CC3251  OC2D1     1  0.293996576986  0.144938011577
CC3251  OC2D2     1  0.320723538531  0.144938011577
CC3251  OC2D3     1  0.293996576986  0.144938011577
CC3251  OC2D4     1  0.293996576986  0.144938011577
CC3251  OC2DP     1  0.320723538531  0.144938011577
CC3251  OC301     1  0.316269044940  0.132309697301
CC3251  OC302     1  0.316269044940  0.132309697301
CC3251  OC303     1  0.316269044940  0.132309697301
CC3251 OC305A     1  0.316269044940  0.132309697301
CC3251  OC30A     1  0.316269044940  0.132309697301
CC3251  OC30P     1  0.326959829558  0.163176000000
CC3251  OC311     1  0.326514380198  0.183381431383
CC3251 OC311M     1  0.326514380198  0.183381431383
CC3251  OC312     1  0.326959829558  0.163176000000
CC3251 OC3C51     1  0.316269044940  0.132309697301
CC3251 OC3C5M     1  0.316269044940  0.132309697301
CC3251 OC3C61     1  0.316269044940  0.132309697301
CC3251    OCA     1  0.293996576986  0.144938011577
CC3251    OCL     1  0.320723538531  0.144938011577
CC3251  OG2D1     1  0.293996576986  0.144938011577
CC3251  OG2D2     1  0.320723538531  0.144938011577
CC3251  OG2D3     1  0.293996576986  0.144938011577
CC3251  OG2D4     1  0.320723538531  0.144938011577
CC3251  OG2D5     1  0.320010819556  0.169954883425
CC3251  OG2N1     1  0.320723538531  0.144938011577
CC3251  OG2P1     1  0.320723538531  0.144938011577
CC3251 OG2R50     1  0.320723538531  0.144938011577
CC3251  OG2S1     1  0.318906105146  0.157831660601
CC3251  OG301     1  0.316269044940  0.132309697301
CC3251  OG302     1  0.316269044940  0.132309697301
CC3251  OG303     1  0.316269044940  0.132309697301
CC3251  OG304     1  0.316269044940  0.132309697301
CC3251  OG311     1  0.326514380198  0.183381431383
CC3251  OG312     1  0.325178032121  0.144938011577
CC3251 OG3C31     1  0.316269044940  0.132309697301
CC3251 OG3C51     1  0.316269044940  0.132309697301
CC3251 OG3C61     1  0.316269044940  0.132309697301
CC3251 OG3R60     1  0.316269044940  0.132309697301
CC3251    OH1     1  0.326959829558  0.163176000000
CC3251    OHL     1  0.326959829558  0.163176000000
CC3251   OLG1     1  0.293996576986  0.144938011577
CC3251   OLG2     1  0.320723538531  0.144938011577
CC3251   OLG3     1  0.320723538531  0.144938011577
CC3251   OLG4     1  0.316269044940  0.132309697301
CC3251   OLG5     1  0.316269044940  0.132309697301
CC3251   OLG6     1  0.326514380198  0.183381431383
CC3251   OLG7     1  0.316269044940  0.132309697301
CC3251   OLG8     1  0.316269044940  0.132309697301
CC3251     OM     1  0.320723538531  0.144938011577
CC3251    ON1     1  0.320723538531  0.144938011577
CC3251   ON1C     1  0.320723538531  0.144938011577
CC3251    ON2     1  0.326959829558  0.163176000000
CC3251   ON2B     1  0.326959829558  0.163176000000
CC3251   ON2M     1  0.316269044940  0.132309697301
CC3251    ON3     1  0.320723538531  0.144938011577
CC3251    ON4     1  0.326959829558  0.163176000000
CC3251    ON5     1  0.326959829558  0.163176000000
CC3251    ON6     1  0.326959829558  0.163176000000
CC3251   ON6B     1  0.326959829558  0.163176000000
CC3251   OPER     1  0.318427692534  0.188901923946
CC3251     OS     1  0.326959829558  0.163176000000
CC3251   OSIA     1  0.326959829558  0.163176000000
CC3251   OSIE     1  0.326959829558  0.163176000000
CC3251   OSIH     1  0.326959829558  0.163176000000
CC3251    OSL     1  0.316269044940  0.132309697301
CC3251   OSLP     1  0.316269044940  0.132309697301
CC3251    OST     1  0.320010819556  0.169954883425
CC3251     OT     1  0.326799467788  0.163176000000
CC3251     OX     1  0.320723538531  0.144938011577
CC3251      P     1  0.360813980847  0.320014464673
CC3251     P2     1  0.360813980847  0.320014464673
CC3251     P3     1  0.360813980847  0.320014464673
CC3251     P4     1  0.360813980847  0.320014464673
CC3251     PB     1  0.328073452955  0.716185437439
CC3251   PB2P     1  0.325890751096  0.204716924713
CC3251     PC     1  0.360813980847  0.320014464673
CC3251     PD     1  0.294842930769  1.037598257516
CC3251   PD2P     1  0.251865976605  0.174628752363
CC3251    PG0     1  0.360813980847  0.320014464673
CC3251    PG1     1  0.360813980847  0.320014464673
CC3251    PG2     1  0.360813980847  0.320014464673
CC3251     PL     1  0.360813980847  0.320014464673
CC3251   PM3P     1  0.316910492017  0.176275053255
CC3251    POT     1  0.326403017859  0.123410269913
CC3251   PR3P     1  0.317079762773  0.178642591472
CC3251     PT     1  0.296001099102  1.168527606863
CC3251   PT2P     1  0.240284293270  0.168973521997
CC3251   PU3P     1  0.318024115415  0.179522368790
CC3251   RA2P     1  0.355459679551  0.229891668540
CC3251   RH3P     1  0.210367914314  0.149983415617
CC3251    RUB     1  0.338541512893  0.162045623205
CC3251      S     1  0.347450500075  0.280671252536
CC3251     SC     1  0.356359487256  0.286840588481
CC3251   SC3P     1  0.266993436839  0.157109060719
CC3251  SEGD1     1  0.363041227642  0.330244580395
CC3251  SG2D1     1  0.351904993665  0.314496560236
CC3251  SG2P1     1  0.355798221064  0.332305491450
CC3251  SG2P2     1  0.352314807076  0.329421919951
CC3251 SG2R50     1  0.347450500075  0.280671252536
CC3251  SG301     1  0.345223253279  0.257919081884
CC3251  SG302     1  0.365268474438  0.286840588481
CC3251  SG311     1  0.347450500075  0.280671252536
CC3251  SG3O1     1  0.356359487256  0.286840588481
CC3251  SG3O2     1  0.347450500075  0.247528778125
CC3251  SG3O3     1  0.347450500075  0.247528778125
CC3251     SI     1  0.365268474438  0.324091246411
CC3251   SIH3     1  0.365268474438  0.324091246411
CC3251     SL     1  0.356359487256  0.286840588481
CC3251     SM     1  0.345223253279  0.257919081884
CC3251   SM2P     1  0.334666103469  0.207012887251
CC3251   SM3P     1  0.308847858618  0.175378986746
CC3251   SN2P     1  0.316981763914  0.181365662197
CC3251    SOD     1  0.294954293108  0.090610410351
CC3251     SP     1  0.365268474438  0.280671252536
CC3251   SR2P     1  0.334612649546  0.200133451797
CC3251     SS     1  0.365268474438  0.286840588481
CC3251   TB3P     1  0.300678317372  0.172155203837
CC3251   TI1P     1  0.341276571958  0.266826378666
CC3251   TI3P     1  0.243117351193  0.149983415617
CC3251   TL3P     1  0.246716582015  0.168869889039
CC3251   TM3P     1  0.289417357575  0.168402751521
CC3251    U3P     1  0.320830446377  0.182184255566
CC3251    V2P     1  0.267599247968  0.167830039933
CC3251    V3P     1  0.223989755715  0.147096016316
CC3251    Y3P     1  0.295190381269  0.170263611896
CC3251   YB2P     1  0.312616360195  0.189623385225
CC3251   YB3P     1  0.284659958420  0.167569069413
CC3251     ZN     1  0.266378716724  0.209200000000
CC325A CC325A     1  0.338541512893  0.041840000000
CC325A CC325B     1  0.338541512893  0.041840000000
CC325A CC3261     1  0.338541512893  0.041840000000
CC325A CC3263     1  0.338541512893  0.041840000000
CC325A CC326A     1  0.338541512893  0.041840000000
CC325A  CC32A     1  0.338541512893  0.041840000000
CC325A  CC331     1  0.338541512893  0.041840000000
CC325A  CC33A     1  0.338541512893  0.041840000000
CC325A    CCL     1  0.347450500075  0.110698234855
CC325A     CD     1  0.347450500075  0.110698234855
CC325A    CE1     1  0.355468588538  0.109105371453
CC325A    CE2     1  0.354577689820  0.105847757841
CC325A   CE3P     1  0.321748072056  0.179522368790
CC325A   CEL1     1  0.355468588538  0.109105371453
CC325A   CEL2     1  0.354577689820  0.105847757841
CC325A   CEL3     1  0.355468588538  0.109105371453
CC325A    CES     1  0.356359487256  0.182376331798
CC325A    CF1     1  0.338541512893  0.102486650838
CC325A    CF2     1  0.351904993665  0.085746484010
CC325A    CF3     1  0.374177461619  0.059170695450
CC325A  CG1N1     1  0.335868816739  0.177512086349
CC325A  CG1T1     1  0.333196120584  0.170981810495
CC325A  CG1T2     1  0.346782326036  0.134409982486
CC325A CG251O     1  0.355468588538  0.109105371453
CC325A CG252O     1  0.355468588538  0.109105371453
CC325A CG25C1     1  0.355468588538  0.109105371453
CC325A CG25C2     1  0.355468588538  0.109105371453
CC325A  CG2D1     1  0.355468588538  0.109105371453
CC325A CG2D1O     1  0.355468588538  0.109105371453
CC325A  CG2D2     1  0.354577689820  0.105847757841
CC325A CG2D2O     1  0.355468588538  0.109105371453
CC325A CG2DC1     1  0.355468588538  0.109105371453
CC325A CG2DC2     1  0.355468588538  0.109105371453
CC325A CG2DC3     1  0.354577689820  0.105847757841
CC325A  CG2N1     1  0.347450500075  0.138767581228
CC325A  CG2N2     1  0.347450500075  0.138767581228
CC325A  CG2O1     1  0.347450500075  0.138767581228
CC325A  CG2O2     1  0.320723538531  0.130979917850
CC325A  CG2O3     1  0.347450500075  0.110698234855
CC325A  CG2O4     1  0.329632525712  0.102486650838
CC325A  CG2O5     1  0.347450500075  0.125520000000
CC325A  CG2O6     1  0.347450500075  0.110698234855
CC325A  CG2O7     1  0.308518226092  0.100764063435
CC325A CG2R51     1  0.356359487256  0.093557084179
CC325A CG2R52     1  0.365268474438  0.059170695450
CC325A CG2R53     1  0.365268474438  0.059170695450
CC325A CG2R57     1  0.356359487256  0.093557084179
CC325A CG2R61     1  0.346773417049  0.110698234855
CC325A CG2R62     1  0.338541512893  0.125520000000
CC325A CG2R63     1  0.338541512893  0.132309697301
CC325A CG2R64     1  0.356359487256  0.083680000000
CC325A CG2R66     1  0.338541512893  0.110698234855
CC325A CG2R67     1  0.346773417049  0.110698234855
CC325A CG2R71     1  0.346987232741  0.108300154755
CC325A CG2RC0     1  0.334977918021  0.131646486622
CC325A CG2RC7     1  0.334977918021  0.131646486622
CC325A  CG301     1  0.338541512893  0.041840000000
CC325A  CG302     1  0.374177461619  0.059170695450
CC325A  CG311     1  0.338541512893  0.041840000000
CC325A  CG312     1  0.351904993665  0.085746484010
CC325A  CG314     1  0.338541512893  0.041840000000
CC325A  CG321     1  0.338541512893  0.041840000000
CC325A  CG322     1  0.338541512893  0.102486650838
CC325A  CG323     1  0.365268474438  0.138767581228
CC325A  CG324     1  0.338541512893  0.041840000000
CC325A  CG331     1  0.338541512893  0.041840000000
CC325A  CG334     1  0.338541512893  0.041840000000
CC325A CG3AM0     1  0.344777803920  0.110698234855
CC325A CG3AM1     1  0.345668702638  0.116852760686
CC325A CG3AM2     1  0.346559601357  0.118341390899
CC325A CG3C31     1  0.338541512893  0.041840000000
CC325A CG3C41     1  0.338541512893  0.041840000000
CC325A CG3C50     1  0.338541512893  0.041840000000
CC325A CG3C51     1  0.338541512893  0.041840000000
CC325A CG3C52     1  0.338541512893  0.041840000000
CC325A CG3C53     1  0.338541512893  0.041840000000
CC325A CG3C54     1  0.338541512893  0.041840000000
CC325A CG3RC1     1  0.338541512893  0.041840000000
CC325A     CL     1  0.347450500075  0.110698234855
CC325A    CLA     1  0.371504765465  0.162045623205
CC325A   CLAL     1  0.339272049842  0.072469005789
CC325A  CLG01     1  0.355468588538  0.109105371453
CC325A  CLG02     1  0.355468588538  0.109105371453
CC325A  CLG03     1  0.320723538531  0.130979917850
CC325A  CLG04     1  0.347450500075  0.110698234855
CC325A  CLG05     1  0.329632525712  0.102486650838
CC325A  CLG06     1  0.346773417049  0.110698234855
CC325A CLG06A     1  0.346773417049  0.110698234855
CC325A CLG06B     1  0.346773417049  0.110698234855
CC325A  CLG07     1  0.338541512893  0.125520000000
CC325A  CLG08     1  0.338541512893  0.132309697301
CC325A  CLG09     1  0.346773417049  0.110698234855
CC325A  CLG10     1  0.334977918021  0.131646486622
CC325A  CLG11     1  0.338541512893  0.041840000000
CC325A  CLG12     1  0.338541512893  0.041840000000
CC325A  CLG13     1  0.338541512893  0.041840000000
CC325A  CLG14     1  0.338541512893  0.041840000000
CC325A  CLG15     1  0.338541512893  0.041840000000
CC325A  CLG16     1  0.338541512893  0.041840000000
CC325A  CLGA1     1  0.339432411611  0.245040988571
CC325A  CLGA3     1  0.339432411611  0.232955260941
CC325A  CLGR1     1  0.334977918021  0.200657590935
CC325A     CM     1  0.356359487256  0.138767581228
CC325A     CN     1  0.325178032121  0.187114168357
CC325A    CN1     1  0.338541512893  0.132309697301
CC325A   CN1A     1  0.347450500075  0.110698234855
CC325A   CN1T     1  0.338541512893  0.132309697301
CC325A    CN2     1  0.338541512893  0.132309697301
CC325A    CN3     1  0.338541512893  0.125520000000
CC325A   CN3A     1  0.329632525712  0.177512086349
CC325A   CN3B     1  0.329632525712  0.177512086349
CC325A   CN3C     1  0.329632525712  0.177512086349
CC325A   CN3D     1  0.338541512893  0.125520000000
CC325A   CN3T     1  0.338541512893  0.125520000000
CC325A    CN4     1  0.338541512893  0.114583559030
CC325A    CN5     1  0.338541512893  0.114583559030
CC325A   CN5G     1  0.338541512893  0.114583559030
CC325A    CN6     1  0.338541512893  0.041840000000
CC325A    CN7     1  0.338541512893  0.041840000000
CC325A   CN7B     1  0.338541512893  0.041840000000
CC325A   CN7E     1  0.338541512893  0.041840000000
CC325A    CN8     1  0.338541512893  0.041840000000
CC325A   CN8B     1  0.338541512893  0.041840000000
CC325A    CN9     1  0.338541512893  0.041840000000
CC325A    CNA     1  0.346773417049  0.110698234855
CC325A   CNA2     1  0.338541512893  0.110698234855
CC325A   CNE1     1  0.355468588538  0.109105371453
CC325A   CNE2     1  0.354577689820  0.105847757841
CC325A    CNG     1  0.347450500075  0.138767581228
CC325A   CO2P     1  0.251910521541  0.164138698618
CC325A   CO3P     1  0.192264852362  0.144393471099
CC325A    COA     1  0.347450500075  0.138767581228
CC325A    CP1     1  0.338541512893  0.041840000000
CC325A    CP2     1  0.338541512893  0.041840000000
CC325A    CP3     1  0.338541512893  0.041840000000
CC325A    CPA     1  0.329632525712  0.125520000000
CC325A    CPB     1  0.329632525712  0.125520000000
CC325A   CPD1     1  0.338541512893  0.041840000000
CC325A   CPH1     1  0.329632525712  0.093557084179
CC325A   CPH2     1  0.329632525712  0.093557084179
CC325A    CPM     1  0.329632525712  0.125520000000
CC325A    CPT     1  0.334977918021  0.131646486622
CC325A   CR2P     1  0.263634748672  0.170828164985
CC325A   CR33     1  0.338541512893  0.041840000000
CC325A   CR3P     1  0.244382427373  0.145299904804
CC325A   CRL1     1  0.338541512893  0.041840000000
CC325A   CRL2     1  0.338541512893  0.041840000000
CC325A   CRN1     1  0.347450500075  0.138767581228
CC325A     CS     1  0.365268474438  0.138767581228
CC325A    CST     1  0.308518226092  0.100764063435
CC325A     CT     1  0.338541512893  0.041840000000
CC325A    CT1     1  0.338541512893  0.041840000000
CC325A   CT1X     1  0.338541512893  0.041840000000
CC325A    CT2     1  0.338541512893  0.041840000000
CC325A   CT2A     1  0.338541512893  0.041840000000
CC325A   CT2P     1  0.338541512893  0.041840000000
CC325A   CT2X     1  0.338541512893  0.041840000000
CC325A    CT3     1  0.338541512893  0.041840000000
CC325A   CT3X     1  0.338541512893  0.041840000000
CC325A   CTD1     1  0.338541512893  0.041840000000
CC325A   CTL1     1  0.338541512893  0.041840000000
CC325A   CTL2     1  0.338541512893  0.041840000000
CC325A   CTL3     1  0.338541512893  0.041840000000
CC325A   CTL5     1  0.338541512893  0.041840000000
CC325A   CTO1     1  0.338541512893  0.041840000000
CC325A   CTO2     1  0.338541512893  0.041840000000
CC325A     CU     1  0.285800308779  0.908997471504
CC325A   CU1P     1  0.246066225950  0.180057894334
CC325A   CU2P     1  0.233869822499  0.162315474555
CC325A     CY     1  0.346559601357  0.113045454929
CC325A    DUM     1  0.169270756447  0.000000000000
CC325A   DY3P     1  0.297952167295  0.171135318061
CC325A   ER3P     1  0.291083338178  0.169232326746
CC325A   EU2P     1  0.333231756533  0.203602227414
CC325A   EU3P     1  0.304954631219  0.174528477447
CC325A     F1     1  0.314487247504  0.153729976257
CC325A     F2     1  0.314487247504  0.135577095411
CC325A     F3     1  0.311814551349  0.130309939452
CC325A     FA     1  0.320723538531  0.144938011577
CC325A     FE     1  0.227179173126  0.000000000000
CC325A   FE2P     1  0.265496726993  0.167098295383
CC325A   FE3P     1  0.219722350855  0.148045032716
CC325A   FGA1     1  0.314487247504  0.153729976257
CC325A   FGA2     1  0.314487247504  0.135577095411
CC325A   FGA3     1  0.311814551349  0.130309939452
CC325A   FGP1     1  0.311814551349  0.130309939452
CC325A   FGR1     1  0.320723538531  0.144938011577
CC325A    FNA     1  0.320723538531  0.144938011577
CC325A   GA3P     1  0.189485248361  0.145299904804
CC325A   GD3P     1  0.303351013527  0.173673803114
CC325A      H     1  0.189271432669  0.089736802707
CC325A     HA     1  0.286869387241  0.062058748940
CC325A    HA1     1  0.288651184677  0.088756043175
CC325A    HA2     1  0.288651184677  0.077149148019
CC325A    HA3     1  0.288651184677  0.064818249282
CC325A    HAL     1  0.286869387241  0.062058748940
CC325A   HAL1     1  0.286869387241  0.062058748940
CC325A   HAL2     1  0.288651184677  0.070011711020
CC325A   HAL3     1  0.288651184677  0.064818249282
CC325A     HB     1  0.286869387241  0.062058748940
CC325A    HB1     1  0.286869387241  0.062058748940
CC325A    HB2     1  0.288651184677  0.070011711020
CC325A    HBL     1  0.286869387241  0.062058748940
CC325A     HC     1  0.189271432669  0.089736802707
CC325A   HCA1     1  0.288651184677  0.088756043175
CC325A  HCA1A     1  0.288651184677  0.088756043175
CC325A HCA1C2     1  0.288651184677  0.088756043175
CC325A   HCA2     1  0.288651184677  0.078275472531
CC325A HCA25A     1  0.285087589805  0.078275472531
CC325A  HCA2A     1  0.288651184677  0.078275472531
CC325A HCA2C2     1  0.285087589805  0.078275472531
CC325A   HCA3     1  0.288651184677  0.064818249282
CC325A  HCA3A     1  0.288651184677  0.064818249282
CC325A  HCA3M     1  0.288651184677  0.064818249282
CC325A    HCL     1  0.189271432669  0.089736802707
CC325A   HCP1     1  0.189271432669  0.089736802707
CC325A  HCP1M     1  0.189271432669  0.089736802707
CC325A   HCR1     1  0.240542653898  0.089736802707
CC325A     HE     1  0.301123766731  0.061020452073
CC325A    HE1     1  0.280633096214  0.073666921749
CC325A    HE2     1  0.281523994932  0.067464972838
CC325A   HEL1     1  0.280633096214  0.073666921749
CC325A   HEL2     1  0.281523994932  0.067464972838
CC325A    HF1     1  0.286869387241  0.070011711020
CC325A    HF2     1  0.285087589805  0.072469005789
CC325A   HG2P     1  0.274557166956  0.189623385225
CC325A   HGA1     1  0.288651184677  0.088756043175
CC325A   HGA2     1  0.288651184677  0.078275472531
CC325A   HGA3     1  0.288651184677  0.064818249282
CC325A   HGA4     1  0.280633096214  0.073666921749
CC325A   HGA5     1  0.281523994932  0.067464972838
CC325A   HGA6     1  0.286869387241  0.070011711020
CC325A   HGA7     1  0.285087589805  0.072469005789
CC325A HGAAM0     1  0.283305792369  0.070011711020
CC325A HGAAM1     1  0.283305792369  0.070011711020
CC325A HGAAM2     1  0.281523994932  0.083680000000
CC325A   HGP1     1  0.189271432669  0.089736802707
CC325A   HGP2     1  0.189271432669  0.089736802707
CC325A   HGP3     1  0.209361198763  0.132309697301
CC325A   HGP4     1  0.189271432669  0.089736802707
CC325A   HGP5     1  0.231633666716  0.089736802707
CC325A HGPAM1     1  0.247224394284  0.039692909190
CC325A HGPAM2     1  0.247224394284  0.041840000000
CC325A HGPAM3     1  0.246778944925  0.045833423612
CC325A  HGR51     1  0.290272620344  0.072469005789
CC325A  HGR52     1  0.249451641079  0.089736802707
CC325A  HGR53     1  0.231633666716  0.089736802707
CC325A  HGR61     1  0.290272620344  0.072469005789
CC325A  HGR62     1  0.267269615442  0.089736802707
CC325A  HGR63     1  0.249451641079  0.089736802707
CC325A  HGR71     1  0.290272620344  0.072469005789
CC325A     HL     1  0.231633666716  0.089736802707
CC325A  HLGA1     1  0.288651184677  0.088756043175
CC325A  HLGA2     1  0.288651184677  0.078275472531
CC325A  HLGA3     1  0.288651184677  0.064818249282
CC325A  HLGA4     1  0.280633096214  0.073666921749
CC325A  HLGP1     1  0.189271432669  0.089736802707
CC325A HLGR52     1  0.249451641079  0.089736802707
CC325A HLGR61     1  0.290272620344  0.072469005789
CC325A HLGR62     1  0.267269615442  0.089736802707
CC325A    HN1     1  0.189271432669  0.089736802707
CC325A    HN2     1  0.189271432669  0.089736802707
CC325A    HN3     1  0.267269615442  0.089736802707
CC325A   HN3B     1  0.249451641079  0.089736802707
CC325A    HN4     1  0.189271432669  0.089736802707
CC325A    HN5     1  0.189271432669  0.089736802707
CC325A    HN6     1  0.286869387241  0.062058748940
CC325A    HN7     1  0.286869387241  0.062058748940
CC325A    HN8     1  0.288651184677  0.070011711020
CC325A    HN9     1  0.288651184677  0.064818249282
CC325A   HNE1     1  0.280633096214  0.073666921749
CC325A   HNE2     1  0.281523994932  0.067464972838
CC325A    HNP     1  0.290272620344  0.072469005789
CC325A   HO3P     1  0.293168041178  0.170263611896
CC325A    HOL     1  0.189271432669  0.089736802707
CC325A     HP     1  0.290272620344  0.072469005789
CC325A   HPER     1  0.189271432669  0.089736802707
CC325A    HR1     1  0.249451641079  0.089736802707
CC325A    HR2     1  0.231633666716  0.089736802707
CC325A    HR3     1  0.300054688270  0.036952087465
CC325A   HRA3     1  0.288651184677  0.064818249282
CC325A   HRM1     1  0.247224394284  0.039692909190
CC325A   HRM2     1  0.247224394284  0.041840000000
CC325A   HRP2     1  0.189271432669  0.089736802707
CC325A     HS     1  0.209361198763  0.132309697301
CC325A   HSIA     1  0.286869387241  0.062058748940
CC325A   HSIO     1  0.189271432669  0.089736802707
CC325A     HT     1  0.189271432669  0.089736802707
CC325A     HX     1  0.189271432669  0.089736802707
CC325A   IGR1     1  0.368832069310  0.301712530731
CC325A   IN3P     1  0.246449312399  0.160580590010
CC325A   LA3P     1  0.327200372211  0.182184255566
CC325A    LIT     1  0.284864865125  0.020196198771
CC325A    LPH     1  0.169270756447  0.000000000000
CC325A   LU3P     1  0.289648991242  0.166731218816
CC325A     MG     1  0.274842254546  0.051243325419
CC325A   MN2P     1  0.276508235149  0.171747976291
CC325A   MN3P     1  0.203516903172  0.148045032716
CC325A      N     1  0.334087019303  0.004184000000
CC325A     NC     1  0.334087019303  0.324091246411
CC325A    NC2     1  0.334087019303  0.187114168357
CC325A  NC2D1     1  0.307360057758  0.187114168357
CC325A  NC311     1  0.347450500075  0.088756043175
CC325A   ND3P     1  0.313587439798  0.177117175768
CC325A     NE     1  0.305578260322  0.122698965603
CC325A  NG1T1     1  0.328741626994  0.177512086349
CC325A  NG2D1     1  0.334087019303  0.187114168357
CC325A  NG2O1     1  0.334087019303  0.187114168357
CC325A  NG2P1     1  0.334087019303  0.187114168357
CC325A NG2R43     1  0.334087019303  0.187114168357
CC325A NG2R50     1  0.334087019303  0.187114168357
CC325A NG2R51     1  0.334087019303  0.187114168357
CC325A NG2R52     1  0.334087019303  0.187114168357
CC325A NG2R53     1  0.334087019303  0.187114168357
CC325A NG2R57     1  0.334087019303  0.187114168357
CC325A NG2R60     1  0.337650614175  0.102486650838
CC325A NG2R61     1  0.334087019303  0.187114168357
CC325A NG2R62     1  0.352795892384  0.093557084179
CC325A NG2R67     1  0.334087019303  0.187114168357
CC325A NG2RC0     1  0.334087019303  0.187114168357
CC325A  NG2S0     1  0.334087019303  0.004184000000
CC325A  NG2S1     1  0.307360057758  0.187114168357
CC325A  NG2S2     1  0.334087019303  0.187114168357
CC325A  NG2S3     1  0.334087019303  0.187114168357
CC325A  NG301     1  0.347450500075  0.078275472531
CC325A  NG311     1  0.347450500075  0.088756043175
CC325A  NG321     1  0.346559601357  0.102486650838
CC325A  NG331     1  0.345668702638  0.110698234855
CC325A NG3C51     1  0.334087019303  0.187114168357
CC325A  NG3N1     1  0.351904993665  0.102486650838
CC325A  NG3P0     1  0.334087019303  0.187114168357
CC325A  NG3P1     1  0.334087019303  0.187114168357
CC325A  NG3P2     1  0.334087019303  0.187114168357
CC325A  NG3P3     1  0.334087019303  0.187114168357
CC325A    NH1     1  0.307360057758  0.187114168357
CC325A    NH2     1  0.334087019303  0.187114168357
CC325A    NH3     1  0.334087019303  0.187114168357
CC325A   NH3L     1  0.334087019303  0.187114168357
CC325A    NHL     1  0.307360057758  0.187114168357
CC325A     NI     1  0.282949432881  0.994525446633
CC325A   NI2P     1  0.238787583423  0.158440517242
CC325A    NN1     1  0.334087019303  0.187114168357
CC325A   NN1C     1  0.334087019303  0.187114168357
CC325A    NN2     1  0.334087019303  0.187114168357
CC325A   NN2B     1  0.334087019303  0.187114168357
CC325A   NN2C     1  0.334087019303  0.187114168357
CC325A   NN2G     1  0.334087019303  0.187114168357
CC325A   NN2U     1  0.334087019303  0.187114168357
CC325A    NN3     1  0.334087019303  0.187114168357
CC325A   NN3A     1  0.334087019303  0.187114168357
CC325A   NN3G     1  0.334087019303  0.187114168357
CC325A   NN3I     1  0.334087019303  0.187114168357
CC325A    NN4     1  0.334087019303  0.187114168357
CC325A    NN6     1  0.334087019303  0.187114168357
CC325A    NNG     1  0.334087019303  0.187114168357
CC325A     NP     1  0.334087019303  0.187114168357
CC325A    NPH     1  0.334087019303  0.187114168357
CC325A    NR1     1  0.334087019303  0.187114168357
CC325A    NR2     1  0.334087019303  0.187114168357
CC325A    NR3     1  0.334087019303  0.187114168357
CC325A   NRC4     1  0.334087019303  0.187114168357
CC325A   NRN1     1  0.347450500075  0.280671252536
CC325A   NRN2     1  0.346559601357  0.102486650838
CC325A    NS1     1  0.334087019303  0.187114168357
CC325A    NS2     1  0.334087019303  0.187114168357
CC325A    NTL     1  0.334087019303  0.187114168357
CC325A     NY     1  0.334087019303  0.187114168357
CC325A      O     1  0.293996576986  0.144938011577
CC325A    O2L     1  0.320723538531  0.144938011577
CC325A    OAL     1  0.326959829558  0.163176000000
CC325A     OB     1  0.293996576986  0.144938011577
CC325A    OBL     1  0.293996576986  0.144938011577
CC325A     OC     1  0.320723538531  0.144938011577
CC325A  OC2D1     1  0.293996576986  0.144938011577
CC325A  OC2D2     1  0.320723538531  0.144938011577
CC325A  OC2D3     1  0.293996576986  0.144938011577
CC325A  OC2D4     1  0.293996576986  0.144938011577
CC325A  OC2DP     1  0.320723538531  0.144938011577
CC325A  OC301     1  0.316269044940  0.132309697301
CC325A  OC302     1  0.316269044940  0.132309697301
CC325A  OC303     1  0.316269044940  0.132309697301
CC325A OC305A     1  0.316269044940  0.132309697301
CC325A  OC30A     1  0.316269044940  0.132309697301
CC325A  OC30P     1  0.326959829558  0.163176000000
CC325A  OC311     1  0.326514380198  0.183381431383
CC325A OC311M     1  0.326514380198  0.183381431383
CC325A  OC312     1  0.326959829558  0.163176000000
CC325A OC3C51     1  0.316269044940  0.132309697301
CC325A OC3C5M     1  0.316269044940  0.132309697301
CC325A OC3C61     1  0.316269044940  0.132309697301
CC325A    OCA     1  0.293996576986  0.144938011577
CC325A    OCL     1  0.320723538531  0.144938011577
CC325A  OG2D1     1  0.293996576986  0.144938011577
CC325A  OG2D2     1  0.320723538531  0.144938011577
CC325A  OG2D3     1  0.293996576986  0.144938011577
CC325A  OG2D4     1  0.320723538531  0.144938011577
CC325A  OG2D5     1  0.320010819556  0.169954883425
CC325A  OG2N1     1  0.320723538531  0.144938011577
CC325A  OG2P1     1  0.320723538531  0.144938011577
CC325A OG2R50     1  0.320723538531  0.144938011577
CC325A  OG2S1     1  0.318906105146  0.157831660601
CC325A  OG301     1  0.316269044940  0.132309697301
CC325A  OG302     1  0.316269044940  0.132309697301
CC325A  OG303     1  0.316269044940  0.132309697301
CC325A  OG304     1  0.316269044940  0.132309697301
CC325A  OG311     1  0.326514380198  0.183381431383
CC325A  OG312     1  0.325178032121  0.144938011577
CC325A OG3C31     1  0.316269044940  0.132309697301
CC325A OG3C51     1  0.316269044940  0.132309697301
CC325A OG3C61     1  0.316269044940  0.132309697301
CC325A OG3R60     1  0.316269044940  0.132309697301
CC325A    OH1     1  0.326959829558  0.163176000000
CC325A    OHL     1  0.326959829558  0.163176000000
CC325A   OLG1     1  0.293996576986  0.144938011577
CC325A   OLG2     1  0.320723538531  0.144938011577
CC325A   OLG3     1  0.320723538531  0.144938011577
CC325A   OLG4     1  0.316269044940  0.132309697301
CC325A   OLG5     1  0.316269044940  0.132309697301
CC325A   OLG6     1  0.326514380198  0.183381431383
CC325A   OLG7     1  0.316269044940  0.132309697301
CC325A   OLG8     1  0.316269044940  0.132309697301
CC325A     OM     1  0.320723538531  0.144938011577
CC325A    ON1     1  0.320723538531  0.144938011577
CC325A   ON1C     1  0.320723538531  0.144938011577
CC325A    ON2     1  0.326959829558  0.163176000000
CC325A   ON2B     1  0.326959829558  0.163176000000
CC325A   ON2M     1  0.316269044940  0.132309697301
CC325A    ON3     1  0.320723538531  0.144938011577
CC325A    ON4     1  0.326959829558  0.163176000000
CC325A    ON5     1  0.326959829558  0.163176000000
CC325A    ON6     1  0.326959829558  0.163176000000
CC325A   ON6B     1  0.326959829558  0.163176000000
CC325A   OPER     1  0.318427692534  0.188901923946
CC325A     OS     1  0.326959829558  0.163176000000
CC325A   OSIA     1  0.326959829558  0.163176000000
CC325A   OSIE     1  0.326959829558  0.163176000000
CC325A   OSIH     1  0.326959829558  0.163176000000
CC325A    OSL     1  0.316269044940  0.132309697301
CC325A   OSLP     1  0.316269044940  0.132309697301
CC325A    OST     1  0.320010819556  0.169954883425
CC325A     OT     1  0.326799467788  0.163176000000
CC325A     OX     1  0.320723538531  0.144938011577
CC325A      P     1  0.360813980847  0.320014464673
CC325A     P2     1  0.360813980847  0.320014464673
CC325A     P3     1  0.360813980847  0.320014464673
CC325A     P4     1  0.360813980847  0.320014464673
CC325A     PB     1  0.328073452955  0.716185437439
CC325A   PB2P     1  0.325890751096  0.204716924713
CC325A     PC     1  0.360813980847  0.320014464673
CC325A     PD     1  0.294842930769  1.037598257516
CC325A   PD2P     1  0.251865976605  0.174628752363
CC325A    PG0     1  0.360813980847  0.320014464673
CC325A    PG1     1  0.360813980847  0.320014464673
CC325A    PG2     1  0.360813980847  0.320014464673
CC325A     PL     1  0.360813980847  0.320014464673
CC325A   PM3P     1  0.316910492017  0.176275053255
CC325A    POT     1  0.326403017859  0.123410269913
CC325A   PR3P     1  0.317079762773  0.178642591472
CC325A     PT     1  0.296001099102  1.168527606863
CC325A   PT2P     1  0.240284293270  0.168973521997
CC325A   PU3P     1  0.318024115415  0.179522368790
CC325A   RA2P     1  0.355459679551  0.229891668540
CC325A   RH3P     1  0.210367914314  0.149983415617
CC325A    RUB     1  0.338541512893  0.162045623205
CC325A      S     1  0.347450500075  0.280671252536
CC325A     SC     1  0.356359487256  0.286840588481
CC325A   SC3P     1  0.266993436839  0.157109060719
CC325A  SEGD1     1  0.363041227642  0.330244580395
CC325A  SG2D1     1  0.351904993665  0.314496560236
CC325A  SG2P1     1  0.355798221064  0.332305491450
CC325A  SG2P2     1  0.352314807076  0.329421919951
CC325A SG2R50     1  0.347450500075  0.280671252536
CC325A  SG301     1  0.345223253279  0.257919081884
CC325A  SG302     1  0.365268474438  0.286840588481
CC325A  SG311     1  0.347450500075  0.280671252536
CC325A  SG3O1     1  0.356359487256  0.286840588481
CC325A  SG3O2     1  0.347450500075  0.247528778125
CC325A  SG3O3     1  0.347450500075  0.247528778125
CC325A     SI     1  0.365268474438  0.324091246411
CC325A   SIH3     1  0.365268474438  0.324091246411
CC325A     SL     1  0.356359487256  0.286840588481
CC325A     SM     1  0.345223253279  0.257919081884
CC325A   SM2P     1  0.334666103469  0.207012887251
CC325A   SM3P     1  0.308847858618  0.175378986746
CC325A   SN2P     1  0.316981763914  0.181365662197
CC325A    SOD     1  0.294954293108  0.090610410351
CC325A     SP     1  0.365268474438  0.280671252536
CC325A   SR2P     1  0.334612649546  0.200133451797
CC325A     SS     1  0.365268474438  0.286840588481
CC325A   TB3P     1  0.300678317372  0.172155203837
CC325A   TI1P     1  0.341276571958  0.266826378666
CC325A   TI3P     1  0.243117351193  0.149983415617
CC325A   TL3P     1  0.246716582015  0.168869889039
CC325A   TM3P     1  0.289417357575  0.168402751521
CC325A    U3P     1  0.320830446377  0.182184255566
CC325A    V2P     1  0.267599247968  0.167830039933
CC325A    V3P     1  0.223989755715  0.147096016316
CC325A    Y3P     1  0.295190381269  0.170263611896
CC325A   YB2P     1  0.312616360195  0.189623385225
CC325A   YB3P     1  0.284659958420  0.167569069413
CC325A     ZN     1  0.266378716724  0.209200000000
CC325B CC325B     1  0.338541512893  0.041840000000
CC325B CC3261     1  0.338541512893  0.041840000000
CC325B CC3263     1  0.338541512893  0.041840000000
CC325B CC326A     1  0.338541512893  0.041840000000
CC325B  CC32A     1  0.338541512893  0.041840000000
CC325B  CC331     1  0.338541512893  0.041840000000
CC325B  CC33A     1  0.338541512893  0.041840000000
CC325B    CCL     1  0.347450500075  0.110698234855
CC325B     CD     1  0.347450500075  0.110698234855
CC325B    CE1     1  0.355468588538  0.109105371453
CC325B    CE2     1  0.354577689820  0.105847757841
CC325B   CE3P     1  0.321748072056  0.179522368790
CC325B   CEL1     1  0.355468588538  0.109105371453
CC325B   CEL2     1  0.354577689820  0.105847757841
CC325B   CEL3     1  0.355468588538  0.109105371453
CC325B    CES     1  0.356359487256  0.182376331798
CC325B    CF1     1  0.338541512893  0.102486650838
CC325B    CF2     1  0.351904993665  0.085746484010
CC325B    CF3     1  0.374177461619  0.059170695450
CC325B  CG1N1     1  0.335868816739  0.177512086349
CC325B  CG1T1     1  0.333196120584  0.170981810495
CC325B  CG1T2     1  0.346782326036  0.134409982486
CC325B CG251O     1  0.355468588538  0.109105371453
CC325B CG252O     1  0.355468588538  0.109105371453
CC325B CG25C1     1  0.355468588538  0.109105371453
CC325B CG25C2     1  0.355468588538  0.109105371453
CC325B  CG2D1     1  0.355468588538  0.109105371453
CC325B CG2D1O     1  0.355468588538  0.109105371453
CC325B  CG2D2     1  0.354577689820  0.105847757841
CC325B CG2D2O     1  0.355468588538  0.109105371453
CC325B CG2DC1     1  0.355468588538  0.109105371453
CC325B CG2DC2     1  0.355468588538  0.109105371453
CC325B CG2DC3     1  0.354577689820  0.105847757841
CC325B  CG2N1     1  0.347450500075  0.138767581228
CC325B  CG2N2     1  0.347450500075  0.138767581228
CC325B  CG2O1     1  0.347450500075  0.138767581228
CC325B  CG2O2     1  0.320723538531  0.130979917850
CC325B  CG2O3     1  0.347450500075  0.110698234855
CC325B  CG2O4     1  0.329632525712  0.102486650838
CC325B  CG2O5     1  0.347450500075  0.125520000000
CC325B  CG2O6     1  0.347450500075  0.110698234855
CC325B  CG2O7     1  0.308518226092  0.100764063435
CC325B CG2R51     1  0.356359487256  0.093557084179
CC325B CG2R52     1  0.365268474438  0.059170695450
CC325B CG2R53     1  0.365268474438  0.059170695450
CC325B CG2R57     1  0.356359487256  0.093557084179
CC325B CG2R61     1  0.346773417049  0.110698234855
CC325B CG2R62     1  0.338541512893  0.125520000000
CC325B CG2R63     1  0.338541512893  0.132309697301
CC325B CG2R64     1  0.356359487256  0.083680000000
CC325B CG2R66     1  0.338541512893  0.110698234855
CC325B CG2R67     1  0.346773417049  0.110698234855
CC325B CG2R71     1  0.346987232741  0.108300154755
CC325B CG2RC0     1  0.334977918021  0.131646486622
CC325B CG2RC7     1  0.334977918021  0.131646486622
CC325B  CG301     1  0.338541512893  0.041840000000
CC325B  CG302     1  0.374177461619  0.059170695450
CC325B  CG311     1  0.338541512893  0.041840000000
CC325B  CG312     1  0.351904993665  0.085746484010
CC325B  CG314     1  0.338541512893  0.041840000000
CC325B  CG321     1  0.338541512893  0.041840000000
CC325B  CG322     1  0.338541512893  0.102486650838
CC325B  CG323     1  0.365268474438  0.138767581228
CC325B  CG324     1  0.338541512893  0.041840000000
CC325B  CG331     1  0.338541512893  0.041840000000
CC325B  CG334     1  0.338541512893  0.041840000000
CC325B CG3AM0     1  0.344777803920  0.110698234855
CC325B CG3AM1     1  0.345668702638  0.116852760686
CC325B CG3AM2     1  0.346559601357  0.118341390899
CC325B CG3C31     1  0.338541512893  0.041840000000
CC325B CG3C41     1  0.338541512893  0.041840000000
CC325B CG3C50     1  0.338541512893  0.041840000000
CC325B CG3C51     1  0.338541512893  0.041840000000
CC325B CG3C52     1  0.338541512893  0.041840000000
CC325B CG3C53     1  0.338541512893  0.041840000000
CC325B CG3C54     1  0.338541512893  0.041840000000
CC325B CG3RC1     1  0.338541512893  0.041840000000
CC325B     CL     1  0.347450500075  0.110698234855
CC325B    CLA     1  0.371504765465  0.162045623205
CC325B   CLAL     1  0.339272049842  0.072469005789
CC325B  CLG01     1  0.355468588538  0.109105371453
CC325B  CLG02     1  0.355468588538  0.109105371453
CC325B  CLG03     1  0.320723538531  0.130979917850
CC325B  CLG04     1  0.347450500075  0.110698234855
CC325B  CLG05     1  0.329632525712  0.102486650838
CC325B  CLG06     1  0.346773417049  0.110698234855
CC325B CLG06A     1  0.346773417049  0.110698234855
CC325B CLG06B     1  0.346773417049  0.110698234855
CC325B  CLG07     1  0.338541512893  0.125520000000
CC325B  CLG08     1  0.338541512893  0.132309697301
CC325B  CLG09     1  0.346773417049  0.110698234855
CC325B  CLG10     1  0.334977918021  0.131646486622
CC325B  CLG11     1  0.338541512893  0.041840000000
CC325B  CLG12     1  0.338541512893  0.041840000000
CC325B  CLG13     1  0.338541512893  0.041840000000
CC325B  CLG14     1  0.338541512893  0.041840000000
CC325B  CLG15     1  0.338541512893  0.041840000000
CC325B  CLG16     1  0.338541512893  0.041840000000
CC325B  CLGA1     1  0.339432411611  0.245040988571
CC325B  CLGA3     1  0.339432411611  0.232955260941
CC325B  CLGR1     1  0.334977918021  0.200657590935
CC325B     CM     1  0.356359487256  0.138767581228
CC325B     CN     1  0.325178032121  0.187114168357
CC325B    CN1     1  0.338541512893  0.132309697301
CC325B   CN1A     1  0.347450500075  0.110698234855
CC325B   CN1T     1  0.338541512893  0.132309697301
CC325B    CN2     1  0.338541512893  0.132309697301
CC325B    CN3     1  0.338541512893  0.125520000000
CC325B   CN3A     1  0.329632525712  0.177512086349
CC325B   CN3B     1  0.329632525712  0.177512086349
CC325B   CN3C     1  0.329632525712  0.177512086349
CC325B   CN3D     1  0.338541512893  0.125520000000
CC325B   CN3T     1  0.338541512893  0.125520000000
CC325B    CN4     1  0.338541512893  0.114583559030
CC325B    CN5     1  0.338541512893  0.114583559030
CC325B   CN5G     1  0.338541512893  0.114583559030
CC325B    CN6     1  0.338541512893  0.041840000000
CC325B    CN7     1  0.338541512893  0.041840000000
CC325B   CN7B     1  0.338541512893  0.041840000000
CC325B   CN7E     1  0.338541512893  0.041840000000
CC325B    CN8     1  0.338541512893  0.041840000000
CC325B   CN8B     1  0.338541512893  0.041840000000
CC325B    CN9     1  0.338541512893  0.041840000000
CC325B    CNA     1  0.346773417049  0.110698234855
CC325B   CNA2     1  0.338541512893  0.110698234855
CC325B   CNE1     1  0.355468588538  0.109105371453
CC325B   CNE2     1  0.354577689820  0.105847757841
CC325B    CNG     1  0.347450500075  0.138767581228
CC325B   CO2P     1  0.251910521541  0.164138698618
CC325B   CO3P     1  0.192264852362  0.144393471099
CC325B    COA     1  0.347450500075  0.138767581228
CC325B    CP1     1  0.338541512893  0.041840000000
CC325B    CP2     1  0.338541512893  0.041840000000
CC325B    CP3     1  0.338541512893  0.041840000000
CC325B    CPA     1  0.329632525712  0.125520000000
CC325B    CPB     1  0.329632525712  0.125520000000
CC325B   CPD1     1  0.338541512893  0.041840000000
CC325B   CPH1     1  0.329632525712  0.093557084179
CC325B   CPH2     1  0.329632525712  0.093557084179
CC325B    CPM     1  0.329632525712  0.125520000000
CC325B    CPT     1  0.334977918021  0.131646486622
CC325B   CR2P     1  0.263634748672  0.170828164985
CC325B   CR33     1  0.338541512893  0.041840000000
CC325B   CR3P     1  0.244382427373  0.145299904804
CC325B   CRL1     1  0.338541512893  0.041840000000
CC325B   CRL2     1  0.338541512893  0.041840000000
CC325B   CRN1     1  0.347450500075  0.138767581228
CC325B     CS     1  0.365268474438  0.138767581228
CC325B    CST     1  0.308518226092  0.100764063435
CC325B     CT     1  0.338541512893  0.041840000000
CC325B    CT1     1  0.338541512893  0.041840000000
CC325B   CT1X     1  0.338541512893  0.041840000000
CC325B    CT2     1  0.338541512893  0.041840000000
CC325B   CT2A     1  0.338541512893  0.041840000000
CC325B   CT2P     1  0.338541512893  0.041840000000
CC325B   CT2X     1  0.338541512893  0.041840000000
CC325B    CT3     1  0.338541512893  0.041840000000
CC325B   CT3X     1  0.338541512893  0.041840000000
CC325B   CTD1     1  0.338541512893  0.041840000000
CC325B   CTL1     1  0.338541512893  0.041840000000
CC325B   CTL2     1  0.338541512893  0.041840000000
CC325B   CTL3     1  0.338541512893  0.041840000000
CC325B   CTL5     1  0.338541512893  0.041840000000
CC325B   CTO1     1  0.338541512893  0.041840000000
CC325B   CTO2     1  0.338541512893  0.041840000000
CC325B     CU     1  0.285800308779  0.908997471504
CC325B   CU1P     1  0.246066225950  0.180057894334
CC325B   CU2P     1  0.233869822499  0.162315474555
CC325B     CY     1  0.346559601357  0.113045454929
CC325B    DUM     1  0.169270756447  0.000000000000
CC325B   DY3P     1  0.297952167295  0.171135318061
CC325B   ER3P     1  0.291083338178  0.169232326746
CC325B   EU2P     1  0.333231756533  0.203602227414
CC325B   EU3P     1  0.304954631219  0.174528477447
CC325B     F1     1  0.314487247504  0.153729976257
CC325B     F2     1  0.314487247504  0.135577095411
CC325B     F3     1  0.311814551349  0.130309939452
CC325B     FA     1  0.320723538531  0.144938011577
CC325B     FE     1  0.227179173126  0.000000000000
CC325B   FE2P     1  0.265496726993  0.167098295383
CC325B   FE3P     1  0.219722350855  0.148045032716
CC325B   FGA1     1  0.314487247504  0.153729976257
CC325B   FGA2     1  0.314487247504  0.135577095411
CC325B   FGA3     1  0.311814551349  0.130309939452
CC325B   FGP1     1  0.311814551349  0.130309939452
CC325B   FGR1     1  0.320723538531  0.144938011577
CC325B    FNA     1  0.320723538531  0.144938011577
CC325B   GA3P     1  0.189485248361  0.145299904804
CC325B   GD3P     1  0.303351013527  0.173673803114
CC325B      H     1  0.189271432669  0.089736802707
CC325B     HA     1  0.286869387241  0.062058748940
CC325B    HA1     1  0.288651184677  0.088756043175
CC325B    HA2     1  0.288651184677  0.077149148019
CC325B    HA3     1  0.288651184677  0.064818249282
CC325B    HAL     1  0.286869387241  0.062058748940
CC325B   HAL1     1  0.286869387241  0.062058748940
CC325B   HAL2     1  0.288651184677  0.070011711020
CC325B   HAL3     1  0.288651184677  0.064818249282
CC325B     HB     1  0.286869387241  0.062058748940
CC325B    HB1     1  0.286869387241  0.062058748940
CC325B    HB2     1  0.288651184677  0.070011711020
CC325B    HBL     1  0.286869387241  0.062058748940
CC325B     HC     1  0.189271432669  0.089736802707
CC325B   HCA1     1  0.288651184677  0.088756043175
CC325B  HCA1A     1  0.288651184677  0.088756043175
CC325B HCA1C2     1  0.288651184677  0.088756043175
CC325B   HCA2     1  0.288651184677  0.078275472531
CC325B HCA25A     1  0.285087589805  0.078275472531
CC325B  HCA2A     1  0.288651184677  0.078275472531
CC325B HCA2C2     1  0.285087589805  0.078275472531
CC325B   HCA3     1  0.288651184677  0.064818249282
CC325B  HCA3A     1  0.288651184677  0.064818249282
CC325B  HCA3M     1  0.288651184677  0.064818249282
CC325B    HCL     1  0.189271432669  0.089736802707
CC325B   HCP1     1  0.189271432669  0.089736802707
CC325B  HCP1M     1  0.189271432669  0.089736802707
CC325B   HCR1     1  0.240542653898  0.089736802707
CC325B     HE     1  0.301123766731  0.061020452073
CC325B    HE1     1  0.280633096214  0.073666921749
CC325B    HE2     1  0.281523994932  0.067464972838
CC325B   HEL1     1  0.280633096214  0.073666921749
CC325B   HEL2     1  0.281523994932  0.067464972838
CC325B    HF1     1  0.286869387241  0.070011711020
CC325B    HF2     1  0.285087589805  0.072469005789
CC325B   HG2P     1  0.274557166956  0.189623385225
CC325B   HGA1     1  0.288651184677  0.088756043175
CC325B   HGA2     1  0.288651184677  0.078275472531
CC325B   HGA3     1  0.288651184677  0.064818249282
CC325B   HGA4     1  0.280633096214  0.073666921749
CC325B   HGA5     1  0.281523994932  0.067464972838
CC325B   HGA6     1  0.286869387241  0.070011711020
CC325B   HGA7     1  0.285087589805  0.072469005789
CC325B HGAAM0     1  0.283305792369  0.070011711020
CC325B HGAAM1     1  0.283305792369  0.070011711020
CC325B HGAAM2     1  0.281523994932  0.083680000000
CC325B   HGP1     1  0.189271432669  0.089736802707
CC325B   HGP2     1  0.189271432669  0.089736802707
CC325B   HGP3     1  0.209361198763  0.132309697301
CC325B   HGP4     1  0.189271432669  0.089736802707
CC325B   HGP5     1  0.231633666716  0.089736802707
CC325B HGPAM1     1  0.247224394284  0.039692909190
CC325B HGPAM2     1  0.247224394284  0.041840000000
CC325B HGPAM3     1  0.246778944925  0.045833423612
CC325B  HGR51     1  0.290272620344  0.072469005789
CC325B  HGR52     1  0.249451641079  0.089736802707
CC325B  HGR53     1  0.231633666716  0.089736802707
CC325B  HGR61     1  0.290272620344  0.072469005789
CC325B  HGR62     1  0.267269615442  0.089736802707
CC325B  HGR63     1  0.249451641079  0.089736802707
CC325B  HGR71     1  0.290272620344  0.072469005789
CC325B     HL     1  0.231633666716  0.089736802707
CC325B  HLGA1     1  0.288651184677  0.088756043175
CC325B  HLGA2     1  0.288651184677  0.078275472531
CC325B  HLGA3     1  0.288651184677  0.064818249282
CC325B  HLGA4     1  0.280633096214  0.073666921749
CC325B  HLGP1     1  0.189271432669  0.089736802707
CC325B HLGR52     1  0.249451641079  0.089736802707
CC325B HLGR61     1  0.290272620344  0.072469005789
CC325B HLGR62     1  0.267269615442  0.089736802707
CC325B    HN1     1  0.189271432669  0.089736802707
CC325B    HN2     1  0.189271432669  0.089736802707
CC325B    HN3     1  0.267269615442  0.089736802707
CC325B   HN3B     1  0.249451641079  0.089736802707
CC325B    HN4     1  0.189271432669  0.089736802707
CC325B    HN5     1  0.189271432669  0.089736802707
CC325B    HN6     1  0.286869387241  0.062058748940
CC325B    HN7     1  0.286869387241  0.062058748940
CC325B    HN8     1  0.288651184677  0.070011711020
CC325B    HN9     1  0.288651184677  0.064818249282
CC325B   HNE1     1  0.280633096214  0.073666921749
CC325B   HNE2     1  0.281523994932  0.067464972838
CC325B    HNP     1  0.290272620344  0.072469005789
CC325B   HO3P     1  0.293168041178  0.170263611896
CC325B    HOL     1  0.189271432669  0.089736802707
CC325B     HP     1  0.290272620344  0.072469005789
CC325B   HPER     1  0.189271432669  0.089736802707
CC325B    HR1     1  0.249451641079  0.089736802707
CC325B    HR2     1  0.231633666716  0.089736802707
CC325B    HR3     1  0.300054688270  0.036952087465
CC325B   HRA3     1  0.288651184677  0.064818249282
CC325B   HRM1     1  0.247224394284  0.039692909190
CC325B   HRM2     1  0.247224394284  0.041840000000
CC325B   HRP2     1  0.189271432669  0.089736802707
CC325B     HS     1  0.209361198763  0.132309697301
CC325B   HSIA     1  0.286869387241  0.062058748940
CC325B   HSIO     1  0.189271432669  0.089736802707
CC325B     HT     1  0.189271432669  0.089736802707
CC325B     HX     1  0.189271432669  0.089736802707
CC325B   IGR1     1  0.368832069310  0.301712530731
CC325B   IN3P     1  0.246449312399  0.160580590010
CC325B   LA3P     1  0.327200372211  0.182184255566
CC325B    LIT     1  0.284864865125  0.020196198771
CC325B    LPH     1  0.169270756447  0.000000000000
CC325B   LU3P     1  0.289648991242  0.166731218816
CC325B     MG     1  0.274842254546  0.051243325419
CC325B   MN2P     1  0.276508235149  0.171747976291
CC325B   MN3P     1  0.203516903172  0.148045032716
CC325B      N     1  0.334087019303  0.004184000000
CC325B     NC     1  0.334087019303  0.324091246411
CC325B    NC2     1  0.334087019303  0.187114168357
CC325B  NC2D1     1  0.307360057758  0.187114168357
CC325B  NC311     1  0.347450500075  0.088756043175
CC325B   ND3P     1  0.313587439798  0.177117175768
CC325B     NE     1  0.305578260322  0.122698965603
CC325B  NG1T1     1  0.328741626994  0.177512086349
CC325B  NG2D1     1  0.334087019303  0.187114168357
CC325B  NG2O1     1  0.334087019303  0.187114168357
CC325B  NG2P1     1  0.334087019303  0.187114168357
CC325B NG2R43     1  0.334087019303  0.187114168357
CC325B NG2R50     1  0.334087019303  0.187114168357
CC325B NG2R51     1  0.334087019303  0.187114168357
CC325B NG2R52     1  0.334087019303  0.187114168357
CC325B NG2R53     1  0.334087019303  0.187114168357
CC325B NG2R57     1  0.334087019303  0.187114168357
CC325B NG2R60     1  0.337650614175  0.102486650838
CC325B NG2R61     1  0.334087019303  0.187114168357
CC325B NG2R62     1  0.352795892384  0.093557084179
CC325B NG2R67     1  0.334087019303  0.187114168357
CC325B NG2RC0     1  0.334087019303  0.187114168357
CC325B  NG2S0     1  0.334087019303  0.004184000000
CC325B  NG2S1     1  0.307360057758  0.187114168357
CC325B  NG2S2     1  0.334087019303  0.187114168357
CC325B  NG2S3     1  0.334087019303  0.187114168357
CC325B  NG301     1  0.347450500075  0.078275472531
CC325B  NG311     1  0.347450500075  0.088756043175
CC325B  NG321     1  0.346559601357  0.102486650838
CC325B  NG331     1  0.345668702638  0.110698234855
CC325B NG3C51     1  0.334087019303  0.187114168357
CC325B  NG3N1     1  0.351904993665  0.102486650838
CC325B  NG3P0     1  0.334087019303  0.187114168357
CC325B  NG3P1     1  0.334087019303  0.187114168357
CC325B  NG3P2     1  0.334087019303  0.187114168357
CC325B  NG3P3     1  0.334087019303  0.187114168357
CC325B    NH1     1  0.307360057758  0.187114168357
CC325B    NH2     1  0.334087019303  0.187114168357
CC325B    NH3     1  0.334087019303  0.187114168357
CC325B   NH3L     1  0.334087019303  0.187114168357
CC325B    NHL     1  0.307360057758  0.187114168357
CC325B     NI     1  0.282949432881  0.994525446633
CC325B   NI2P     1  0.238787583423  0.158440517242
CC325B    NN1     1  0.334087019303  0.187114168357
CC325B   NN1C     1  0.334087019303  0.187114168357
CC325B    NN2     1  0.334087019303  0.187114168357
CC325B   NN2B     1  0.334087019303  0.187114168357
CC325B   NN2C     1  0.334087019303  0.187114168357
CC325B   NN2G     1  0.334087019303  0.187114168357
CC325B   NN2U     1  0.334087019303  0.187114168357
CC325B    NN3     1  0.334087019303  0.187114168357
CC325B   NN3A     1  0.334087019303  0.187114168357
CC325B   NN3G     1  0.334087019303  0.187114168357
CC325B   NN3I     1  0.334087019303  0.187114168357
CC325B    NN4     1  0.334087019303  0.187114168357
CC325B    NN6     1  0.334087019303  0.187114168357
CC325B    NNG     1  0.334087019303  0.187114168357
CC325B     NP     1  0.334087019303  0.187114168357
CC325B    NPH     1  0.334087019303  0.187114168357
CC325B    NR1     1  0.334087019303  0.187114168357
CC325B    NR2     1  0.334087019303  0.187114168357
CC325B    NR3     1  0.334087019303  0.187114168357
CC325B   NRC4     1  0.334087019303  0.187114168357
CC325B   NRN1     1  0.347450500075  0.280671252536
CC325B   NRN2     1  0.346559601357  0.102486650838
CC325B    NS1     1  0.334087019303  0.187114168357
CC325B    NS2     1  0.334087019303  0.187114168357
CC325B    NTL     1  0.334087019303  0.187114168357
CC325B     NY     1  0.334087019303  0.187114168357
CC325B      O     1  0.293996576986  0.144938011577
CC325B    O2L     1  0.320723538531  0.144938011577
CC325B    OAL     1  0.326959829558  0.163176000000
CC325B     OB     1  0.293996576986  0.144938011577
CC325B    OBL     1  0.293996576986  0.144938011577
CC325B     OC     1  0.320723538531  0.144938011577
CC325B  OC2D1     1  0.293996576986  0.144938011577
CC325B  OC2D2     1  0.320723538531  0.144938011577
CC325B  OC2D3     1  0.293996576986  0.144938011577
CC325B  OC2D4     1  0.293996576986  0.144938011577
CC325B  OC2DP     1  0.320723538531  0.144938011577
CC325B  OC301     1  0.316269044940  0.132309697301
CC325B  OC302     1  0.316269044940  0.132309697301
CC325B  OC303     1  0.316269044940  0.132309697301
CC325B OC305A     1  0.316269044940  0.132309697301
CC325B  OC30A     1  0.316269044940  0.132309697301
CC325B  OC30P     1  0.326959829558  0.163176000000
CC325B  OC311     1  0.326514380198  0.183381431383
CC325B OC311M     1  0.326514380198  0.183381431383
CC325B  OC312     1  0.326959829558  0.163176000000
CC325B OC3C51     1  0.316269044940  0.132309697301
CC325B OC3C5M     1  0.316269044940  0.132309697301
CC325B OC3C61     1  0.316269044940  0.132309697301
CC325B    OCA     1  0.293996576986  0.144938011577
CC325B    OCL     1  0.320723538531  0.144938011577
CC325B  OG2D1     1  0.293996576986  0.144938011577
CC325B  OG2D2     1  0.320723538531  0.144938011577
CC325B  OG2D3     1  0.293996576986  0.144938011577
CC325B  OG2D4     1  0.320723538531  0.144938011577
CC325B  OG2D5     1  0.320010819556  0.169954883425
CC325B  OG2N1     1  0.320723538531  0.144938011577
CC325B  OG2P1     1  0.320723538531  0.144938011577
CC325B OG2R50     1  0.320723538531  0.144938011577
CC325B  OG2S1     1  0.318906105146  0.157831660601
CC325B  OG301     1  0.316269044940  0.132309697301
CC325B  OG302     1  0.316269044940  0.132309697301
CC325B  OG303     1  0.316269044940  0.132309697301
CC325B  OG304     1  0.316269044940  0.132309697301
CC325B  OG311     1  0.326514380198  0.183381431383
CC325B  OG312     1  0.325178032121  0.144938011577
CC325B OG3C31     1  0.316269044940  0.132309697301
CC325B OG3C51     1  0.316269044940  0.132309697301
CC325B OG3C61     1  0.316269044940  0.132309697301
CC325B OG3R60     1  0.316269044940  0.132309697301
CC325B    OH1     1  0.326959829558  0.163176000000
CC325B    OHL     1  0.326959829558  0.163176000000
CC325B   OLG1     1  0.293996576986  0.144938011577
CC325B   OLG2     1  0.320723538531  0.144938011577
CC325B   OLG3     1  0.320723538531  0.144938011577
CC325B   OLG4     1  0.316269044940  0.132309697301
CC325B   OLG5     1  0.316269044940  0.132309697301
CC325B   OLG6     1  0.326514380198  0.183381431383
CC325B   OLG7     1  0.316269044940  0.132309697301
CC325B   OLG8     1  0.316269044940  0.132309697301
CC325B     OM     1  0.320723538531  0.144938011577
CC325B    ON1     1  0.320723538531  0.144938011577
CC325B   ON1C     1  0.320723538531  0.144938011577
CC325B    ON2     1  0.326959829558  0.163176000000
CC325B   ON2B     1  0.326959829558  0.163176000000
CC325B   ON2M     1  0.316269044940  0.132309697301
CC325B    ON3     1  0.320723538531  0.144938011577
CC325B    ON4     1  0.326959829558  0.163176000000
CC325B    ON5     1  0.326959829558  0.163176000000
CC325B    ON6     1  0.326959829558  0.163176000000
CC325B   ON6B     1  0.326959829558  0.163176000000
CC325B   OPER     1  0.318427692534  0.188901923946
CC325B     OS     1  0.326959829558  0.163176000000
CC325B   OSIA     1  0.326959829558  0.163176000000
CC325B   OSIE     1  0.326959829558  0.163176000000
CC325B   OSIH     1  0.326959829558  0.163176000000
CC325B    OSL     1  0.316269044940  0.132309697301
CC325B   OSLP     1  0.316269044940  0.132309697301
CC325B    OST     1  0.320010819556  0.169954883425
CC325B     OT     1  0.326799467788  0.163176000000
CC325B     OX     1  0.320723538531  0.144938011577
CC325B      P     1  0.360813980847  0.320014464673
CC325B     P2     1  0.360813980847  0.320014464673
CC325B     P3     1  0.360813980847  0.320014464673
CC325B     P4     1  0.360813980847  0.320014464673
CC325B     PB     1  0.328073452955  0.716185437439
CC325B   PB2P     1  0.325890751096  0.204716924713
CC325B     PC     1  0.360813980847  0.320014464673
CC325B     PD     1  0.294842930769  1.037598257516
CC325B   PD2P     1  0.251865976605  0.174628752363
CC325B    PG0     1  0.360813980847  0.320014464673
CC325B    PG1     1  0.360813980847  0.320014464673
CC325B    PG2     1  0.360813980847  0.320014464673
CC325B     PL     1  0.360813980847  0.320014464673
CC325B   PM3P     1  0.316910492017  0.176275053255
CC325B    POT     1  0.326403017859  0.123410269913
CC325B   PR3P     1  0.317079762773  0.178642591472
CC325B     PT     1  0.296001099102  1.168527606863
CC325B   PT2P     1  0.240284293270  0.168973521997
CC325B   PU3P     1  0.318024115415  0.179522368790
CC325B   RA2P     1  0.355459679551  0.229891668540
CC325B   RH3P     1  0.210367914314  0.149983415617
CC325B    RUB     1  0.338541512893  0.162045623205
CC325B      S     1  0.347450500075  0.280671252536
CC325B     SC     1  0.356359487256  0.286840588481
CC325B   SC3P     1  0.266993436839  0.157109060719
CC325B  SEGD1     1  0.363041227642  0.330244580395
CC325B  SG2D1     1  0.351904993665  0.314496560236
CC325B  SG2P1     1  0.355798221064  0.332305491450
CC325B  SG2P2     1  0.352314807076  0.329421919951
CC325B SG2R50     1  0.347450500075  0.280671252536
CC325B  SG301     1  0.345223253279  0.257919081884
CC325B  SG302     1  0.365268474438  0.286840588481
CC325B  SG311     1  0.347450500075  0.280671252536
CC325B  SG3O1     1  0.356359487256  0.286840588481
CC325B  SG3O2     1  0.347450500075  0.247528778125
CC325B  SG3O3     1  0.347450500075  0.247528778125
CC325B     SI     1  0.365268474438  0.324091246411
CC325B   SIH3     1  0.365268474438  0.324091246411
CC325B     SL     1  0.356359487256  0.286840588481
CC325B     SM     1  0.345223253279  0.257919081884
CC325B   SM2P     1  0.334666103469  0.207012887251
CC325B   SM3P     1  0.308847858618  0.175378986746
CC325B   SN2P     1  0.316981763914  0.181365662197
CC325B    SOD     1  0.294954293108  0.090610410351
CC325B     SP     1  0.365268474438  0.280671252536
CC325B   SR2P     1  0.334612649546  0.200133451797
CC325B     SS     1  0.365268474438  0.286840588481
CC325B   TB3P     1  0.300678317372  0.172155203837
CC325B   TI1P     1  0.341276571958  0.266826378666
CC325B   TI3P     1  0.243117351193  0.149983415617
CC325B   TL3P     1  0.246716582015  0.168869889039
CC325B   TM3P     1  0.289417357575  0.168402751521
CC325B    U3P     1  0.320830446377  0.182184255566
CC325B    V2P     1  0.267599247968  0.167830039933
CC325B    V3P     1  0.223989755715  0.147096016316
CC325B    Y3P     1  0.295190381269  0.170263611896
CC325B   YB2P     1  0.312616360195  0.189623385225
CC325B   YB3P     1  0.284659958420  0.167569069413
CC325B     ZN     1  0.266378716724  0.209200000000
CC3261 CC3261     1  0.338541512893  0.041840000000
CC3261 CC3263     1  0.338541512893  0.041840000000
CC3261 CC326A     1  0.338541512893  0.041840000000
CC3261  CC32A     1  0.338541512893  0.041840000000
CC3261  CC331     1  0.338541512893  0.041840000000
CC3261  CC33A     1  0.338541512893  0.041840000000
CC3261    CCL     1  0.347450500075  0.110698234855
CC3261     CD     1  0.347450500075  0.110698234855
CC3261    CE1     1  0.355468588538  0.109105371453
CC3261    CE2     1  0.354577689820  0.105847757841
CC3261   CE3P     1  0.321748072056  0.179522368790
CC3261   CEL1     1  0.355468588538  0.109105371453
CC3261   CEL2     1  0.354577689820  0.105847757841
CC3261   CEL3     1  0.355468588538  0.109105371453
CC3261    CES     1  0.356359487256  0.182376331798
CC3261    CF1     1  0.338541512893  0.102486650838
CC3261    CF2     1  0.351904993665  0.085746484010
CC3261    CF3     1  0.374177461619  0.059170695450
CC3261  CG1N1     1  0.335868816739  0.177512086349
CC3261  CG1T1     1  0.333196120584  0.170981810495
CC3261  CG1T2     1  0.346782326036  0.134409982486
CC3261 CG251O     1  0.355468588538  0.109105371453
CC3261 CG252O     1  0.355468588538  0.109105371453
CC3261 CG25C1     1  0.355468588538  0.109105371453
CC3261 CG25C2     1  0.355468588538  0.109105371453
CC3261  CG2D1     1  0.355468588538  0.109105371453
CC3261 CG2D1O     1  0.355468588538  0.109105371453
CC3261  CG2D2     1  0.354577689820  0.105847757841
CC3261 CG2D2O     1  0.355468588538  0.109105371453
CC3261 CG2DC1     1  0.355468588538  0.109105371453
CC3261 CG2DC2     1  0.355468588538  0.109105371453
CC3261 CG2DC3     1  0.354577689820  0.105847757841
CC3261  CG2N1     1  0.347450500075  0.138767581228
CC3261  CG2N2     1  0.347450500075  0.138767581228
CC3261  CG2O1     1  0.347450500075  0.138767581228
CC3261  CG2O2     1  0.320723538531  0.130979917850
CC3261  CG2O3     1  0.347450500075  0.110698234855
CC3261  CG2O4     1  0.329632525712  0.102486650838
CC3261  CG2O5     1  0.347450500075  0.125520000000
CC3261  CG2O6     1  0.347450500075  0.110698234855
CC3261  CG2O7     1  0.308518226092  0.100764063435
CC3261 CG2R51     1  0.356359487256  0.093557084179
CC3261 CG2R52     1  0.365268474438  0.059170695450
CC3261 CG2R53     1  0.365268474438  0.059170695450
CC3261 CG2R57     1  0.356359487256  0.093557084179
CC3261 CG2R61     1  0.346773417049  0.110698234855
CC3261 CG2R62     1  0.338541512893  0.125520000000
CC3261 CG2R63     1  0.338541512893  0.132309697301
CC3261 CG2R64     1  0.356359487256  0.083680000000
CC3261 CG2R66     1  0.338541512893  0.110698234855
CC3261 CG2R67     1  0.346773417049  0.110698234855
CC3261 CG2R71     1  0.346987232741  0.108300154755
CC3261 CG2RC0     1  0.334977918021  0.131646486622
CC3261 CG2RC7     1  0.334977918021  0.131646486622
CC3261  CG301     1  0.338541512893  0.041840000000
CC3261  CG302     1  0.374177461619  0.059170695450
CC3261  CG311     1  0.338541512893  0.041840000000
CC3261  CG312     1  0.351904993665  0.085746484010
CC3261  CG314     1  0.338541512893  0.041840000000
CC3261  CG321     1  0.338541512893  0.041840000000
CC3261  CG322     1  0.338541512893  0.102486650838
CC3261  CG323     1  0.365268474438  0.138767581228
CC3261  CG324     1  0.338541512893  0.041840000000
CC3261  CG331     1  0.338541512893  0.041840000000
CC3261  CG334     1  0.338541512893  0.041840000000
CC3261 CG3AM0     1  0.344777803920  0.110698234855
CC3261 CG3AM1     1  0.345668702638  0.116852760686
CC3261 CG3AM2     1  0.346559601357  0.118341390899
CC3261 CG3C31     1  0.338541512893  0.041840000000
CC3261 CG3C41     1  0.338541512893  0.041840000000
CC3261 CG3C50     1  0.338541512893  0.041840000000
CC3261 CG3C51     1  0.338541512893  0.041840000000
CC3261 CG3C52     1  0.338541512893  0.041840000000
CC3261 CG3C53     1  0.338541512893  0.041840000000
CC3261 CG3C54     1  0.338541512893  0.041840000000
CC3261 CG3RC1     1  0.338541512893  0.041840000000
CC3261     CL     1  0.347450500075  0.110698234855
CC3261    CLA     1  0.371504765465  0.162045623205
CC3261   CLAL     1  0.339272049842  0.072469005789
CC3261  CLG01     1  0.355468588538  0.109105371453
CC3261  CLG02     1  0.355468588538  0.109105371453
CC3261  CLG03     1  0.320723538531  0.130979917850
CC3261  CLG04     1  0.347450500075  0.110698234855
CC3261  CLG05     1  0.329632525712  0.102486650838
CC3261  CLG06     1  0.346773417049  0.110698234855
CC3261 CLG06A     1  0.346773417049  0.110698234855
CC3261 CLG06B     1  0.346773417049  0.110698234855
CC3261  CLG07     1  0.338541512893  0.125520000000
CC3261  CLG08     1  0.338541512893  0.132309697301
CC3261  CLG09     1  0.346773417049  0.110698234855
CC3261  CLG10     1  0.334977918021  0.131646486622
CC3261  CLG11     1  0.338541512893  0.041840000000
CC3261  CLG12     1  0.338541512893  0.041840000000
CC3261  CLG13     1  0.338541512893  0.041840000000
CC3261  CLG14     1  0.338541512893  0.041840000000
CC3261  CLG15     1  0.338541512893  0.041840000000
CC3261  CLG16     1  0.338541512893  0.041840000000
CC3261  CLGA1     1  0.339432411611  0.245040988571
CC3261  CLGA3     1  0.339432411611  0.232955260941
CC3261  CLGR1     1  0.334977918021  0.200657590935
CC3261     CM     1  0.356359487256  0.138767581228
CC3261     CN     1  0.325178032121  0.187114168357
CC3261    CN1     1  0.338541512893  0.132309697301
CC3261   CN1A     1  0.347450500075  0.110698234855
CC3261   CN1T     1  0.338541512893  0.132309697301
CC3261    CN2     1  0.338541512893  0.132309697301
CC3261    CN3     1  0.338541512893  0.125520000000
CC3261   CN3A     1  0.329632525712  0.177512086349
CC3261   CN3B     1  0.329632525712  0.177512086349
CC3261   CN3C     1  0.329632525712  0.177512086349
CC3261   CN3D     1  0.338541512893  0.125520000000
CC3261   CN3T     1  0.338541512893  0.125520000000
CC3261    CN4     1  0.338541512893  0.114583559030
CC3261    CN5     1  0.338541512893  0.114583559030
CC3261   CN5G     1  0.338541512893  0.114583559030
CC3261    CN6     1  0.338541512893  0.041840000000
CC3261    CN7     1  0.338541512893  0.041840000000
CC3261   CN7B     1  0.338541512893  0.041840000000
CC3261   CN7E     1  0.338541512893  0.041840000000
CC3261    CN8     1  0.338541512893  0.041840000000
CC3261   CN8B     1  0.338541512893  0.041840000000
CC3261    CN9     1  0.338541512893  0.041840000000
CC3261    CNA     1  0.346773417049  0.110698234855
CC3261   CNA2     1  0.338541512893  0.110698234855
CC3261   CNE1     1  0.355468588538  0.109105371453
CC3261   CNE2     1  0.354577689820  0.105847757841
CC3261    CNG     1  0.347450500075  0.138767581228
CC3261   CO2P     1  0.251910521541  0.164138698618
CC3261   CO3P     1  0.192264852362  0.144393471099
CC3261    COA     1  0.347450500075  0.138767581228
CC3261    CP1     1  0.338541512893  0.041840000000
CC3261    CP2     1  0.338541512893  0.041840000000
CC3261    CP3     1  0.338541512893  0.041840000000
CC3261    CPA     1  0.329632525712  0.125520000000
CC3261    CPB     1  0.329632525712  0.125520000000
CC3261   CPD1     1  0.338541512893  0.041840000000
CC3261   CPH1     1  0.329632525712  0.093557084179
CC3261   CPH2     1  0.329632525712  0.093557084179
CC3261    CPM     1  0.329632525712  0.125520000000
CC3261    CPT     1  0.334977918021  0.131646486622
CC3261   CR2P     1  0.263634748672  0.170828164985
CC3261   CR33     1  0.338541512893  0.041840000000
CC3261   CR3P     1  0.244382427373  0.145299904804
CC3261   CRL1     1  0.338541512893  0.041840000000
CC3261   CRL2     1  0.338541512893  0.041840000000
CC3261   CRN1     1  0.347450500075  0.138767581228
CC3261     CS     1  0.365268474438  0.138767581228
CC3261    CST     1  0.308518226092  0.100764063435
CC3261     CT     1  0.338541512893  0.041840000000
CC3261    CT1     1  0.338541512893  0.041840000000
CC3261   CT1X     1  0.338541512893  0.041840000000
CC3261    CT2     1  0.338541512893  0.041840000000
CC3261   CT2A     1  0.338541512893  0.041840000000
CC3261   CT2P     1  0.338541512893  0.041840000000
CC3261   CT2X     1  0.338541512893  0.041840000000
CC3261    CT3     1  0.338541512893  0.041840000000
CC3261   CT3X     1  0.338541512893  0.041840000000
CC3261   CTD1     1  0.338541512893  0.041840000000
CC3261   CTL1     1  0.338541512893  0.041840000000
CC3261   CTL2     1  0.338541512893  0.041840000000
CC3261   CTL3     1  0.338541512893  0.041840000000
CC3261   CTL5     1  0.338541512893  0.041840000000
CC3261   CTO1     1  0.338541512893  0.041840000000
CC3261   CTO2     1  0.338541512893  0.041840000000
CC3261     CU     1  0.285800308779  0.908997471504
CC3261   CU1P     1  0.246066225950  0.180057894334
CC3261   CU2P     1  0.233869822499  0.162315474555
CC3261     CY     1  0.346559601357  0.113045454929
CC3261    DUM     1  0.169270756447  0.000000000000
CC3261   DY3P     1  0.297952167295  0.171135318061
CC3261   ER3P     1  0.291083338178  0.169232326746
CC3261   EU2P     1  0.333231756533  0.203602227414
CC3261   EU3P     1  0.304954631219  0.174528477447
CC3261     F1     1  0.314487247504  0.153729976257
CC3261     F2     1  0.314487247504  0.135577095411
CC3261     F3     1  0.311814551349  0.130309939452
CC3261     FA     1  0.320723538531  0.144938011577
CC3261     FE     1  0.227179173126  0.000000000000
CC3261   FE2P     1  0.265496726993  0.167098295383
CC3261   FE3P     1  0.219722350855  0.148045032716
CC3261   FGA1     1  0.314487247504  0.153729976257
CC3261   FGA2     1  0.314487247504  0.135577095411
CC3261   FGA3     1  0.311814551349  0.130309939452
CC3261   FGP1     1  0.311814551349  0.130309939452
CC3261   FGR1     1  0.320723538531  0.144938011577
CC3261    FNA     1  0.320723538531  0.144938011577
CC3261   GA3P     1  0.189485248361  0.145299904804
CC3261   GD3P     1  0.303351013527  0.173673803114
CC3261      H     1  0.189271432669  0.089736802707
CC3261     HA     1  0.286869387241  0.062058748940
CC3261    HA1     1  0.288651184677  0.088756043175
CC3261    HA2     1  0.288651184677  0.077149148019
CC3261    HA3     1  0.288651184677  0.064818249282
CC3261    HAL     1  0.286869387241  0.062058748940
CC3261   HAL1     1  0.286869387241  0.062058748940
CC3261   HAL2     1  0.288651184677  0.070011711020
CC3261   HAL3     1  0.288651184677  0.064818249282
CC3261     HB     1  0.286869387241  0.062058748940
CC3261    HB1     1  0.286869387241  0.062058748940
CC3261    HB2     1  0.288651184677  0.070011711020
CC3261    HBL     1  0.286869387241  0.062058748940
CC3261     HC     1  0.189271432669  0.089736802707
CC3261   HCA1     1  0.288651184677  0.088756043175
CC3261  HCA1A     1  0.288651184677  0.088756043175
CC3261 HCA1C2     1  0.288651184677  0.088756043175
CC3261   HCA2     1  0.288651184677  0.078275472531
CC3261 HCA25A     1  0.285087589805  0.078275472531
CC3261  HCA2A     1  0.288651184677  0.078275472531
CC3261 HCA2C2     1  0.285087589805  0.078275472531
CC3261   HCA3     1  0.288651184677  0.064818249282
CC3261  HCA3A     1  0.288651184677  0.064818249282
CC3261  HCA3M     1  0.288651184677  0.064818249282
CC3261    HCL     1  0.189271432669  0.089736802707
CC3261   HCP1     1  0.189271432669  0.089736802707
CC3261  HCP1M     1  0.189271432669  0.089736802707
CC3261   HCR1     1  0.240542653898  0.089736802707
CC3261     HE     1  0.301123766731  0.061020452073
CC3261    HE1     1  0.280633096214  0.073666921749
CC3261    HE2     1  0.281523994932  0.067464972838
CC3261   HEL1     1  0.280633096214  0.073666921749
CC3261   HEL2     1  0.281523994932  0.067464972838
CC3261    HF1     1  0.286869387241  0.070011711020
CC3261    HF2     1  0.285087589805  0.072469005789
CC3261   HG2P     1  0.274557166956  0.189623385225
CC3261   HGA1     1  0.288651184677  0.088756043175
CC3261   HGA2     1  0.288651184677  0.078275472531
CC3261   HGA3     1  0.288651184677  0.064818249282
CC3261   HGA4     1  0.280633096214  0.073666921749
CC3261   HGA5     1  0.281523994932  0.067464972838
CC3261   HGA6     1  0.286869387241  0.070011711020
CC3261   HGA7     1  0.285087589805  0.072469005789
CC3261 HGAAM0     1  0.283305792369  0.070011711020
CC3261 HGAAM1     1  0.283305792369  0.070011711020
CC3261 HGAAM2     1  0.281523994932  0.083680000000
CC3261   HGP1     1  0.189271432669  0.089736802707
CC3261   HGP2     1  0.189271432669  0.089736802707
CC3261   HGP3     1  0.209361198763  0.132309697301
CC3261   HGP4     1  0.189271432669  0.089736802707
CC3261   HGP5     1  0.231633666716  0.089736802707
CC3261 HGPAM1     1  0.247224394284  0.039692909190
CC3261 HGPAM2     1  0.247224394284  0.041840000000
CC3261 HGPAM3     1  0.246778944925  0.045833423612
CC3261  HGR51     1  0.290272620344  0.072469005789
CC3261  HGR52     1  0.249451641079  0.089736802707
CC3261  HGR53     1  0.231633666716  0.089736802707
CC3261  HGR61     1  0.290272620344  0.072469005789
CC3261  HGR62     1  0.267269615442  0.089736802707
CC3261  HGR63     1  0.249451641079  0.089736802707
CC3261  HGR71     1  0.290272620344  0.072469005789
CC3261     HL     1  0.231633666716  0.089736802707
CC3261  HLGA1     1  0.288651184677  0.088756043175
CC3261  HLGA2     1  0.288651184677  0.078275472531
CC3261  HLGA3     1  0.288651184677  0.064818249282
CC3261  HLGA4     1  0.280633096214  0.073666921749
CC3261  HLGP1     1  0.189271432669  0.089736802707
CC3261 HLGR52     1  0.249451641079  0.089736802707
CC3261 HLGR61     1  0.290272620344  0.072469005789
CC3261 HLGR62     1  0.267269615442  0.089736802707
CC3261    HN1     1  0.189271432669  0.089736802707
CC3261    HN2     1  0.189271432669  0.089736802707
CC3261    HN3     1  0.267269615442  0.089736802707
CC3261   HN3B     1  0.249451641079  0.089736802707
CC3261    HN4     1  0.189271432669  0.089736802707
CC3261    HN5     1  0.189271432669  0.089736802707
CC3261    HN6     1  0.286869387241  0.062058748940
CC3261    HN7     1  0.286869387241  0.062058748940
CC3261    HN8     1  0.288651184677  0.070011711020
CC3261    HN9     1  0.288651184677  0.064818249282
CC3261   HNE1     1  0.280633096214  0.073666921749
CC3261   HNE2     1  0.281523994932  0.067464972838
CC3261    HNP     1  0.290272620344  0.072469005789
CC3261   HO3P     1  0.293168041178  0.170263611896
CC3261    HOL     1  0.189271432669  0.089736802707
CC3261     HP     1  0.290272620344  0.072469005789
CC3261   HPER     1  0.189271432669  0.089736802707
CC3261    HR1     1  0.249451641079  0.089736802707
CC3261    HR2     1  0.231633666716  0.089736802707
CC3261    HR3     1  0.300054688270  0.036952087465
CC3261   HRA3     1  0.288651184677  0.064818249282
CC3261   HRM1     1  0.247224394284  0.039692909190
CC3261   HRM2     1  0.247224394284  0.041840000000
CC3261   HRP2     1  0.189271432669  0.089736802707
CC3261     HS     1  0.209361198763  0.132309697301
CC3261   HSIA     1  0.286869387241  0.062058748940
CC3261   HSIO     1  0.189271432669  0.089736802707
CC3261     HT     1  0.189271432669  0.089736802707
CC3261     HX     1  0.189271432669  0.089736802707
CC3261   IGR1     1  0.368832069310  0.301712530731
CC3261   IN3P     1  0.246449312399  0.160580590010
CC3261   LA3P     1  0.327200372211  0.182184255566
CC3261    LIT     1  0.284864865125  0.020196198771
CC3261    LPH     1  0.169270756447  0.000000000000
CC3261   LU3P     1  0.289648991242  0.166731218816
CC3261     MG     1  0.274842254546  0.051243325419
CC3261   MN2P     1  0.276508235149  0.171747976291
CC3261   MN3P     1  0.203516903172  0.148045032716
CC3261      N     1  0.334087019303  0.004184000000
CC3261     NC     1  0.334087019303  0.324091246411
CC3261    NC2     1  0.334087019303  0.187114168357
CC3261  NC2D1     1  0.307360057758  0.187114168357
CC3261  NC311     1  0.347450500075  0.088756043175
CC3261   ND3P     1  0.313587439798  0.177117175768
CC3261     NE     1  0.305578260322  0.122698965603
CC3261  NG1T1     1  0.328741626994  0.177512086349
CC3261  NG2D1     1  0.334087019303  0.187114168357
CC3261  NG2O1     1  0.334087019303  0.187114168357
CC3261  NG2P1     1  0.334087019303  0.187114168357
CC3261 NG2R43     1  0.334087019303  0.187114168357
CC3261 NG2R50     1  0.334087019303  0.187114168357
CC3261 NG2R51     1  0.334087019303  0.187114168357
CC3261 NG2R52     1  0.334087019303  0.187114168357
CC3261 NG2R53     1  0.334087019303  0.187114168357
CC3261 NG2R57     1  0.334087019303  0.187114168357
CC3261 NG2R60     1  0.337650614175  0.102486650838
CC3261 NG2R61     1  0.334087019303  0.187114168357
CC3261 NG2R62     1  0.352795892384  0.093557084179
CC3261 NG2R67     1  0.334087019303  0.187114168357
CC3261 NG2RC0     1  0.334087019303  0.187114168357
CC3261  NG2S0     1  0.334087019303  0.004184000000
CC3261  NG2S1     1  0.307360057758  0.187114168357
CC3261  NG2S2     1  0.334087019303  0.187114168357
CC3261  NG2S3     1  0.334087019303  0.187114168357
CC3261  NG301     1  0.347450500075  0.078275472531
CC3261  NG311     1  0.347450500075  0.088756043175
CC3261  NG321     1  0.346559601357  0.102486650838
CC3261  NG331     1  0.345668702638  0.110698234855
CC3261 NG3C51     1  0.334087019303  0.187114168357
CC3261  NG3N1     1  0.351904993665  0.102486650838
CC3261  NG3P0     1  0.334087019303  0.187114168357
CC3261  NG3P1     1  0.334087019303  0.187114168357
CC3261  NG3P2     1  0.334087019303  0.187114168357
CC3261  NG3P3     1  0.334087019303  0.187114168357
CC3261    NH1     1  0.307360057758  0.187114168357
CC3261    NH2     1  0.334087019303  0.187114168357
CC3261    NH3     1  0.334087019303  0.187114168357
CC3261   NH3L     1  0.334087019303  0.187114168357
CC3261    NHL     1  0.307360057758  0.187114168357
CC3261     NI     1  0.282949432881  0.994525446633
CC3261   NI2P     1  0.238787583423  0.158440517242
CC3261    NN1     1  0.334087019303  0.187114168357
CC3261   NN1C     1  0.334087019303  0.187114168357
CC3261    NN2     1  0.334087019303  0.187114168357
CC3261   NN2B     1  0.334087019303  0.187114168357
CC3261   NN2C     1  0.334087019303  0.187114168357
CC3261   NN2G     1  0.334087019303  0.187114168357
CC3261   NN2U     1  0.334087019303  0.187114168357
CC3261    NN3     1  0.334087019303  0.187114168357
CC3261   NN3A     1  0.334087019303  0.187114168357
CC3261   NN3G     1  0.334087019303  0.187114168357
CC3261   NN3I     1  0.334087019303  0.187114168357
CC3261    NN4     1  0.334087019303  0.187114168357
CC3261    NN6     1  0.334087019303  0.187114168357
CC3261    NNG     1  0.334087019303  0.187114168357
CC3261     NP     1  0.334087019303  0.187114168357
CC3261    NPH     1  0.334087019303  0.187114168357
CC3261    NR1     1  0.334087019303  0.187114168357
CC3261    NR2     1  0.334087019303  0.187114168357
CC3261    NR3     1  0.334087019303  0.187114168357
CC3261   NRC4     1  0.334087019303  0.187114168357
CC3261   NRN1     1  0.347450500075  0.280671252536
CC3261   NRN2     1  0.346559601357  0.102486650838
CC3261    NS1     1  0.334087019303  0.187114168357
CC3261    NS2     1  0.334087019303  0.187114168357
CC3261    NTL     1  0.334087019303  0.187114168357
CC3261     NY     1  0.334087019303  0.187114168357
CC3261      O     1  0.293996576986  0.144938011577
CC3261    O2L     1  0.320723538531  0.144938011577
CC3261    OAL     1  0.326959829558  0.163176000000
CC3261     OB     1  0.293996576986  0.144938011577
CC3261    OBL     1  0.293996576986  0.144938011577
CC3261     OC     1  0.320723538531  0.144938011577
CC3261  OC2D1     1  0.293996576986  0.144938011577
CC3261  OC2D2     1  0.320723538531  0.144938011577
CC3261  OC2D3     1  0.293996576986  0.144938011577
CC3261  OC2D4     1  0.293996576986  0.144938011577
CC3261  OC2DP     1  0.320723538531  0.144938011577
CC3261  OC301     1  0.316269044940  0.132309697301
CC3261  OC302     1  0.316269044940  0.132309697301
CC3261  OC303     1  0.316269044940  0.132309697301
CC3261 OC305A     1  0.316269044940  0.132309697301
CC3261  OC30A     1  0.316269044940  0.132309697301
CC3261  OC30P     1  0.326959829558  0.163176000000
CC3261  OC311     1  0.326514380198  0.183381431383
CC3261 OC311M     1  0.326514380198  0.183381431383
CC3261  OC312     1  0.326959829558  0.163176000000
CC3261 OC3C51     1  0.316269044940  0.132309697301
CC3261 OC3C5M     1  0.316269044940  0.132309697301
CC3261 OC3C61     1  0.316269044940  0.132309697301
CC3261    OCA     1  0.293996576986  0.144938011577
CC3261    OCL     1  0.320723538531  0.144938011577
CC3261  OG2D1     1  0.293996576986  0.144938011577
CC3261  OG2D2     1  0.320723538531  0.144938011577
CC3261  OG2D3     1  0.293996576986  0.144938011577
CC3261  OG2D4     1  0.320723538531  0.144938011577
CC3261  OG2D5     1  0.320010819556  0.169954883425
CC3261  OG2N1     1  0.320723538531  0.144938011577
CC3261  OG2P1     1  0.320723538531  0.144938011577
CC3261 OG2R50     1  0.320723538531  0.144938011577
CC3261  OG2S1     1  0.318906105146  0.157831660601
CC3261  OG301     1  0.316269044940  0.132309697301
CC3261  OG302     1  0.316269044940  0.132309697301
CC3261  OG303     1  0.316269044940  0.132309697301
CC3261  OG304     1  0.316269044940  0.132309697301
CC3261  OG311     1  0.326514380198  0.183381431383
CC3261  OG312     1  0.325178032121  0.144938011577
CC3261 OG3C31     1  0.316269044940  0.132309697301
CC3261 OG3C51     1  0.316269044940  0.132309697301
CC3261 OG3C61     1  0.316269044940  0.132309697301
CC3261 OG3R60     1  0.316269044940  0.132309697301
CC3261    OH1     1  0.326959829558  0.163176000000
CC3261    OHL     1  0.326959829558  0.163176000000
CC3261   OLG1     1  0.293996576986  0.144938011577
CC3261   OLG2     1  0.320723538531  0.144938011577
CC3261   OLG3     1  0.320723538531  0.144938011577
CC3261   OLG4     1  0.316269044940  0.132309697301
CC3261   OLG5     1  0.316269044940  0.132309697301
CC3261   OLG6     1  0.326514380198  0.183381431383
CC3261   OLG7     1  0.316269044940  0.132309697301
CC3261   OLG8     1  0.316269044940  0.132309697301
CC3261     OM     1  0.320723538531  0.144938011577
CC3261    ON1     1  0.320723538531  0.144938011577
CC3261   ON1C     1  0.320723538531  0.144938011577
CC3261    ON2     1  0.326959829558  0.163176000000
CC3261   ON2B     1  0.326959829558  0.163176000000
CC3261   ON2M     1  0.316269044940  0.132309697301
CC3261    ON3     1  0.320723538531  0.144938011577
CC3261    ON4     1  0.326959829558  0.163176000000
CC3261    ON5     1  0.326959829558  0.163176000000
CC3261    ON6     1  0.326959829558  0.163176000000
CC3261   ON6B     1  0.326959829558  0.163176000000
CC3261   OPER     1  0.318427692534  0.188901923946
CC3261     OS     1  0.326959829558  0.163176000000
CC3261   OSIA     1  0.326959829558  0.163176000000
CC3261   OSIE     1  0.326959829558  0.163176000000
CC3261   OSIH     1  0.326959829558  0.163176000000
CC3261    OSL     1  0.316269044940  0.132309697301
CC3261   OSLP     1  0.316269044940  0.132309697301
CC3261    OST     1  0.320010819556  0.169954883425
CC3261     OT     1  0.326799467788  0.163176000000
CC3261     OX     1  0.320723538531  0.144938011577
CC3261      P     1  0.360813980847  0.320014464673
CC3261     P2     1  0.360813980847  0.320014464673
CC3261     P3     1  0.360813980847  0.320014464673
CC3261     P4     1  0.360813980847  0.320014464673
CC3261     PB     1  0.328073452955  0.716185437439
CC3261   PB2P     1  0.325890751096  0.204716924713
CC3261     PC     1  0.360813980847  0.320014464673
CC3261     PD     1  0.294842930769  1.037598257516
CC3261   PD2P     1  0.251865976605  0.174628752363
CC3261    PG0     1  0.360813980847  0.320014464673
CC3261    PG1     1  0.360813980847  0.320014464673
CC3261    PG2     1  0.360813980847  0.320014464673
CC3261     PL     1  0.360813980847  0.320014464673
CC3261   PM3P     1  0.316910492017  0.176275053255
CC3261    POT     1  0.326403017859  0.123410269913
CC3261   PR3P     1  0.317079762773  0.178642591472
CC3261     PT     1  0.296001099102  1.168527606863
CC3261   PT2P     1  0.240284293270  0.168973521997
CC3261   PU3P     1  0.318024115415  0.179522368790
CC3261   RA2P     1  0.355459679551  0.229891668540
CC3261   RH3P     1  0.210367914314  0.149983415617
CC3261    RUB     1  0.338541512893  0.162045623205
CC3261      S     1  0.347450500075  0.280671252536
CC3261     SC     1  0.356359487256  0.286840588481
CC3261   SC3P     1  0.266993436839  0.157109060719
CC3261  SEGD1     1  0.363041227642  0.330244580395
CC3261  SG2D1     1  0.351904993665  0.314496560236
CC3261  SG2P1     1  0.355798221064  0.332305491450
CC3261  SG2P2     1  0.352314807076  0.329421919951
CC3261 SG2R50     1  0.347450500075  0.280671252536
CC3261  SG301     1  0.345223253279  0.257919081884
CC3261  SG302     1  0.365268474438  0.286840588481
CC3261  SG311     1  0.347450500075  0.280671252536
CC3261  SG3O1     1  0.356359487256  0.286840588481
CC3261  SG3O2     1  0.347450500075  0.247528778125
CC3261  SG3O3     1  0.347450500075  0.247528778125
CC3261     SI     1  0.365268474438  0.324091246411
CC3261   SIH3     1  0.365268474438  0.324091246411
CC3261     SL     1  0.356359487256  0.286840588481
CC3261     SM     1  0.345223253279  0.257919081884
CC3261   SM2P     1  0.334666103469  0.207012887251
CC3261   SM3P     1  0.308847858618  0.175378986746
CC3261   SN2P     1  0.316981763914  0.181365662197
CC3261    SOD     1  0.294954293108  0.090610410351
CC3261     SP     1  0.365268474438  0.280671252536
CC3261   SR2P     1  0.334612649546  0.200133451797
CC3261     SS     1  0.365268474438  0.286840588481
CC3261   TB3P     1  0.300678317372  0.172155203837
CC3261   TI1P     1  0.341276571958  0.266826378666
CC3261   TI3P     1  0.243117351193  0.149983415617
CC3261   TL3P     1  0.246716582015  0.168869889039
CC3261   TM3P     1  0.289417357575  0.168402751521
CC3261    U3P     1  0.320830446377  0.182184255566
CC3261    V2P     1  0.267599247968  0.167830039933
CC3261    V3P     1  0.223989755715  0.147096016316
CC3261    Y3P     1  0.295190381269  0.170263611896
CC3261   YB2P     1  0.312616360195  0.189623385225
CC3261   YB3P     1  0.284659958420  0.167569069413
CC3261     ZN     1  0.266378716724  0.209200000000
CC3263 CC3263     1  0.338541512893  0.041840000000
CC3263 CC326A     1  0.338541512893  0.041840000000
CC3263  CC32A     1  0.338541512893  0.041840000000
CC3263  CC331     1  0.338541512893  0.041840000000
CC3263  CC33A     1  0.338541512893  0.041840000000
CC3263    CCL     1  0.347450500075  0.110698234855
CC3263     CD     1  0.347450500075  0.110698234855
CC3263    CE1     1  0.355468588538  0.109105371453
CC3263    CE2     1  0.354577689820  0.105847757841
CC3263   CE3P     1  0.321748072056  0.179522368790
CC3263   CEL1     1  0.355468588538  0.109105371453
CC3263   CEL2     1  0.354577689820  0.105847757841
CC3263   CEL3     1  0.355468588538  0.109105371453
CC3263    CES     1  0.356359487256  0.182376331798
CC3263    CF1     1  0.338541512893  0.102486650838
CC3263    CF2     1  0.351904993665  0.085746484010
CC3263    CF3     1  0.374177461619  0.059170695450
CC3263  CG1N1     1  0.335868816739  0.177512086349
CC3263  CG1T1     1  0.333196120584  0.170981810495
CC3263  CG1T2     1  0.346782326036  0.134409982486
CC3263 CG251O     1  0.355468588538  0.109105371453
CC3263 CG252O     1  0.355468588538  0.109105371453
CC3263 CG25C1     1  0.355468588538  0.109105371453
CC3263 CG25C2     1  0.355468588538  0.109105371453
CC3263  CG2D1     1  0.355468588538  0.109105371453
CC3263 CG2D1O     1  0.355468588538  0.109105371453
CC3263  CG2D2     1  0.354577689820  0.105847757841
CC3263 CG2D2O     1  0.355468588538  0.109105371453
CC3263 CG2DC1     1  0.355468588538  0.109105371453
CC3263 CG2DC2     1  0.355468588538  0.109105371453
CC3263 CG2DC3     1  0.354577689820  0.105847757841
CC3263  CG2N1     1  0.347450500075  0.138767581228
CC3263  CG2N2     1  0.347450500075  0.138767581228
CC3263  CG2O1     1  0.347450500075  0.138767581228
CC3263  CG2O2     1  0.320723538531  0.130979917850
CC3263  CG2O3     1  0.347450500075  0.110698234855
CC3263  CG2O4     1  0.329632525712  0.102486650838
CC3263  CG2O5     1  0.347450500075  0.125520000000
CC3263  CG2O6     1  0.347450500075  0.110698234855
CC3263  CG2O7     1  0.308518226092  0.100764063435
CC3263 CG2R51     1  0.356359487256  0.093557084179
CC3263 CG2R52     1  0.365268474438  0.059170695450
CC3263 CG2R53     1  0.365268474438  0.059170695450
CC3263 CG2R57     1  0.356359487256  0.093557084179
CC3263 CG2R61     1  0.346773417049  0.110698234855
CC3263 CG2R62     1  0.338541512893  0.125520000000
CC3263 CG2R63     1  0.338541512893  0.132309697301
CC3263 CG2R64     1  0.356359487256  0.083680000000
CC3263 CG2R66     1  0.338541512893  0.110698234855
CC3263 CG2R67     1  0.346773417049  0.110698234855
CC3263 CG2R71     1  0.346987232741  0.108300154755
CC3263 CG2RC0     1  0.334977918021  0.131646486622
CC3263 CG2RC7     1  0.334977918021  0.131646486622
CC3263  CG301     1  0.338541512893  0.041840000000
CC3263  CG302     1  0.374177461619  0.059170695450
CC3263  CG311     1  0.338541512893  0.041840000000
CC3263  CG312     1  0.351904993665  0.085746484010
CC3263  CG314     1  0.338541512893  0.041840000000
CC3263  CG321     1  0.338541512893  0.041840000000
CC3263  CG322     1  0.338541512893  0.102486650838
CC3263  CG323     1  0.365268474438  0.138767581228
CC3263  CG324     1  0.338541512893  0.041840000000
CC3263  CG331     1  0.338541512893  0.041840000000
CC3263  CG334     1  0.338541512893  0.041840000000
CC3263 CG3AM0     1  0.344777803920  0.110698234855
CC3263 CG3AM1     1  0.345668702638  0.116852760686
CC3263 CG3AM2     1  0.346559601357  0.118341390899
CC3263 CG3C31     1  0.338541512893  0.041840000000
CC3263 CG3C41     1  0.338541512893  0.041840000000
CC3263 CG3C50     1  0.338541512893  0.041840000000
CC3263 CG3C51     1  0.338541512893  0.041840000000
CC3263 CG3C52     1  0.338541512893  0.041840000000
CC3263 CG3C53     1  0.338541512893  0.041840000000
CC3263 CG3C54     1  0.338541512893  0.041840000000
CC3263 CG3RC1     1  0.338541512893  0.041840000000
CC3263     CL     1  0.347450500075  0.110698234855
CC3263    CLA     1  0.371504765465  0.162045623205
CC3263   CLAL     1  0.339272049842  0.072469005789
CC3263  CLG01     1  0.355468588538  0.109105371453
CC3263  CLG02     1  0.355468588538  0.109105371453
CC3263  CLG03     1  0.320723538531  0.130979917850
CC3263  CLG04     1  0.347450500075  0.110698234855
CC3263  CLG05     1  0.329632525712  0.102486650838
CC3263  CLG06     1  0.346773417049  0.110698234855
CC3263 CLG06A     1  0.346773417049  0.110698234855
CC3263 CLG06B     1  0.346773417049  0.110698234855
CC3263  CLG07     1  0.338541512893  0.125520000000
CC3263  CLG08     1  0.338541512893  0.132309697301
CC3263  CLG09     1  0.346773417049  0.110698234855
CC3263  CLG10     1  0.334977918021  0.131646486622
CC3263  CLG11     1  0.338541512893  0.041840000000
CC3263  CLG12     1  0.338541512893  0.041840000000
CC3263  CLG13     1  0.338541512893  0.041840000000
CC3263  CLG14     1  0.338541512893  0.041840000000
CC3263  CLG15     1  0.338541512893  0.041840000000
CC3263  CLG16     1  0.338541512893  0.041840000000
CC3263  CLGA1     1  0.339432411611  0.245040988571
CC3263  CLGA3     1  0.339432411611  0.232955260941
CC3263  CLGR1     1  0.334977918021  0.200657590935
CC3263     CM     1  0.356359487256  0.138767581228
CC3263     CN     1  0.325178032121  0.187114168357
CC3263    CN1     1  0.338541512893  0.132309697301
CC3263   CN1A     1  0.347450500075  0.110698234855
CC3263   CN1T     1  0.338541512893  0.132309697301
CC3263    CN2     1  0.338541512893  0.132309697301
CC3263    CN3     1  0.338541512893  0.125520000000
CC3263   CN3A     1  0.329632525712  0.177512086349
CC3263   CN3B     1  0.329632525712  0.177512086349
CC3263   CN3C     1  0.329632525712  0.177512086349
CC3263   CN3D     1  0.338541512893  0.125520000000
CC3263   CN3T     1  0.338541512893  0.125520000000
CC3263    CN4     1  0.338541512893  0.114583559030
CC3263    CN5     1  0.338541512893  0.114583559030
CC3263   CN5G     1  0.338541512893  0.114583559030
CC3263    CN6     1  0.338541512893  0.041840000000
CC3263    CN7     1  0.338541512893  0.041840000000
CC3263   CN7B     1  0.338541512893  0.041840000000
CC3263   CN7E     1  0.338541512893  0.041840000000
CC3263    CN8     1  0.338541512893  0.041840000000
CC3263   CN8B     1  0.338541512893  0.041840000000
CC3263    CN9     1  0.338541512893  0.041840000000
CC3263    CNA     1  0.346773417049  0.110698234855
CC3263   CNA2     1  0.338541512893  0.110698234855
CC3263   CNE1     1  0.355468588538  0.109105371453
CC3263   CNE2     1  0.354577689820  0.105847757841
CC3263    CNG     1  0.347450500075  0.138767581228
CC3263   CO2P     1  0.251910521541  0.164138698618
CC3263   CO3P     1  0.192264852362  0.144393471099
CC3263    COA     1  0.347450500075  0.138767581228
CC3263    CP1     1  0.338541512893  0.041840000000
CC3263    CP2     1  0.338541512893  0.041840000000
CC3263    CP3     1  0.338541512893  0.041840000000
CC3263    CPA     1  0.329632525712  0.125520000000
CC3263    CPB     1  0.329632525712  0.125520000000
CC3263   CPD1     1  0.338541512893  0.041840000000
CC3263   CPH1     1  0.329632525712  0.093557084179
CC3263   CPH2     1  0.329632525712  0.093557084179
CC3263    CPM     1  0.329632525712  0.125520000000
CC3263    CPT     1  0.334977918021  0.131646486622
CC3263   CR2P     1  0.263634748672  0.170828164985
CC3263   CR33     1  0.338541512893  0.041840000000
CC3263   CR3P     1  0.244382427373  0.145299904804
CC3263   CRL1     1  0.338541512893  0.041840000000
CC3263   CRL2     1  0.338541512893  0.041840000000
CC3263   CRN1     1  0.347450500075  0.138767581228
CC3263     CS     1  0.365268474438  0.138767581228
CC3263    CST     1  0.308518226092  0.100764063435
CC3263     CT     1  0.338541512893  0.041840000000
CC3263    CT1     1  0.338541512893  0.041840000000
CC3263   CT1X     1  0.338541512893  0.041840000000
CC3263    CT2     1  0.338541512893  0.041840000000
CC3263   CT2A     1  0.338541512893  0.041840000000
CC3263   CT2P     1  0.338541512893  0.041840000000
CC3263   CT2X     1  0.338541512893  0.041840000000
CC3263    CT3     1  0.338541512893  0.041840000000
CC3263   CT3X     1  0.338541512893  0.041840000000
CC3263   CTD1     1  0.338541512893  0.041840000000
CC3263   CTL1     1  0.338541512893  0.041840000000
CC3263   CTL2     1  0.338541512893  0.041840000000
CC3263   CTL3     1  0.338541512893  0.041840000000
CC3263   CTL5     1  0.338541512893  0.041840000000
CC3263   CTO1     1  0.338541512893  0.041840000000
CC3263   CTO2     1  0.338541512893  0.041840000000
CC3263     CU     1  0.285800308779  0.908997471504
CC3263   CU1P     1  0.246066225950  0.180057894334
CC3263   CU2P     1  0.233869822499  0.162315474555
CC3263     CY     1  0.346559601357  0.113045454929
CC3263    DUM     1  0.169270756447  0.000000000000
CC3263   DY3P     1  0.297952167295  0.171135318061
CC3263   ER3P     1  0.291083338178  0.169232326746
CC3263   EU2P     1  0.333231756533  0.203602227414
CC3263   EU3P     1  0.304954631219  0.174528477447
CC3263     F1     1  0.314487247504  0.153729976257
CC3263     F2     1  0.314487247504  0.135577095411
CC3263     F3     1  0.311814551349  0.130309939452
CC3263     FA     1  0.320723538531  0.144938011577
CC3263     FE     1  0.227179173126  0.000000000000
CC3263   FE2P     1  0.265496726993  0.167098295383
CC3263   FE3P     1  0.219722350855  0.148045032716
CC3263   FGA1     1  0.314487247504  0.153729976257
CC3263   FGA2     1  0.314487247504  0.135577095411
CC3263   FGA3     1  0.311814551349  0.130309939452
CC3263   FGP1     1  0.311814551349  0.130309939452
CC3263   FGR1     1  0.320723538531  0.144938011577
CC3263    FNA     1  0.320723538531  0.144938011577
CC3263   GA3P     1  0.189485248361  0.145299904804
CC3263   GD3P     1  0.303351013527  0.173673803114
CC3263      H     1  0.189271432669  0.089736802707
CC3263     HA     1  0.286869387241  0.062058748940
CC3263    HA1     1  0.288651184677  0.088756043175
CC3263    HA2     1  0.288651184677  0.077149148019
CC3263    HA3     1  0.288651184677  0.064818249282
CC3263    HAL     1  0.286869387241  0.062058748940
CC3263   HAL1     1  0.286869387241  0.062058748940
CC3263   HAL2     1  0.288651184677  0.070011711020
CC3263   HAL3     1  0.288651184677  0.064818249282
CC3263     HB     1  0.286869387241  0.062058748940
CC3263    HB1     1  0.286869387241  0.062058748940
CC3263    HB2     1  0.288651184677  0.070011711020
CC3263    HBL     1  0.286869387241  0.062058748940
CC3263     HC     1  0.189271432669  0.089736802707
CC3263   HCA1     1  0.288651184677  0.088756043175
CC3263  HCA1A     1  0.288651184677  0.088756043175
CC3263 HCA1C2     1  0.288651184677  0.088756043175
CC3263   HCA2     1  0.288651184677  0.078275472531
CC3263 HCA25A     1  0.285087589805  0.078275472531
CC3263  HCA2A     1  0.288651184677  0.078275472531
CC3263 HCA2C2     1  0.285087589805  0.078275472531
CC3263   HCA3     1  0.288651184677  0.064818249282
CC3263  HCA3A     1  0.288651184677  0.064818249282
CC3263  HCA3M     1  0.288651184677  0.064818249282
CC3263    HCL     1  0.189271432669  0.089736802707
CC3263   HCP1     1  0.189271432669  0.089736802707
CC3263  HCP1M     1  0.189271432669  0.089736802707
CC3263   HCR1     1  0.240542653898  0.089736802707
CC3263     HE     1  0.301123766731  0.061020452073
CC3263    HE1     1  0.280633096214  0.073666921749
CC3263    HE2     1  0.281523994932  0.067464972838
CC3263   HEL1     1  0.280633096214  0.073666921749
CC3263   HEL2     1  0.281523994932  0.067464972838
CC3263    HF1     1  0.286869387241  0.070011711020
CC3263    HF2     1  0.285087589805  0.072469005789
CC3263   HG2P     1  0.274557166956  0.189623385225
CC3263   HGA1     1  0.288651184677  0.088756043175
CC3263   HGA2     1  0.288651184677  0.078275472531
CC3263   HGA3     1  0.288651184677  0.064818249282
CC3263   HGA4     1  0.280633096214  0.073666921749
CC3263   HGA5     1  0.281523994932  0.067464972838
CC3263   HGA6     1  0.286869387241  0.070011711020
CC3263   HGA7     1  0.285087589805  0.072469005789
CC3263 HGAAM0     1  0.283305792369  0.070011711020
CC3263 HGAAM1     1  0.283305792369  0.070011711020
CC3263 HGAAM2     1  0.281523994932  0.083680000000
CC3263   HGP1     1  0.189271432669  0.089736802707
CC3263   HGP2     1  0.189271432669  0.089736802707
CC3263   HGP3     1  0.209361198763  0.132309697301
CC3263   HGP4     1  0.189271432669  0.089736802707
CC3263   HGP5     1  0.231633666716  0.089736802707
CC3263 HGPAM1     1  0.247224394284  0.039692909190
CC3263 HGPAM2     1  0.247224394284  0.041840000000
CC3263 HGPAM3     1  0.246778944925  0.045833423612
CC3263  HGR51     1  0.290272620344  0.072469005789
CC3263  HGR52     1  0.249451641079  0.089736802707
CC3263  HGR53     1  0.231633666716  0.089736802707
CC3263  HGR61     1  0.290272620344  0.072469005789
CC3263  HGR62     1  0.267269615442  0.089736802707
CC3263  HGR63     1  0.249451641079  0.089736802707
CC3263  HGR71     1  0.290272620344  0.072469005789
CC3263     HL     1  0.231633666716  0.089736802707
CC3263  HLGA1     1  0.288651184677  0.088756043175
CC3263  HLGA2     1  0.288651184677  0.078275472531
CC3263  HLGA3     1  0.288651184677  0.064818249282
CC3263  HLGA4     1  0.280633096214  0.073666921749
CC3263  HLGP1     1  0.189271432669  0.089736802707
CC3263 HLGR52     1  0.249451641079  0.089736802707
CC3263 HLGR61     1  0.290272620344  0.072469005789
CC3263 HLGR62     1  0.267269615442  0.089736802707
CC3263    HN1     1  0.189271432669  0.089736802707
CC3263    HN2     1  0.189271432669  0.089736802707
CC3263    HN3     1  0.267269615442  0.089736802707
CC3263   HN3B     1  0.249451641079  0.089736802707
CC3263    HN4     1  0.189271432669  0.089736802707
CC3263    HN5     1  0.189271432669  0.089736802707
CC3263    HN6     1  0.286869387241  0.062058748940
CC3263    HN7     1  0.286869387241  0.062058748940
CC3263    HN8     1  0.288651184677  0.070011711020
CC3263    HN9     1  0.288651184677  0.064818249282
CC3263   HNE1     1  0.280633096214  0.073666921749
CC3263   HNE2     1  0.281523994932  0.067464972838
CC3263    HNP     1  0.290272620344  0.072469005789
CC3263   HO3P     1  0.293168041178  0.170263611896
CC3263    HOL     1  0.189271432669  0.089736802707
CC3263     HP     1  0.290272620344  0.072469005789
CC3263   HPER     1  0.189271432669  0.089736802707
CC3263    HR1     1  0.249451641079  0.089736802707
CC3263    HR2     1  0.231633666716  0.089736802707
CC3263    HR3     1  0.300054688270  0.036952087465
CC3263   HRA3     1  0.288651184677  0.064818249282
CC3263   HRM1     1  0.247224394284  0.039692909190
CC3263   HRM2     1  0.247224394284  0.041840000000
CC3263   HRP2     1  0.189271432669  0.089736802707
CC3263     HS     1  0.209361198763  0.132309697301
CC3263   HSIA     1  0.286869387241  0.062058748940
CC3263   HSIO     1  0.189271432669  0.089736802707
CC3263     HT     1  0.189271432669  0.089736802707
CC3263     HX     1  0.189271432669  0.089736802707
CC3263   IGR1     1  0.368832069310  0.301712530731
CC3263   IN3P     1  0.246449312399  0.160580590010
CC3263   LA3P     1  0.327200372211  0.182184255566
CC3263    LIT     1  0.284864865125  0.020196198771
CC3263    LPH     1  0.169270756447  0.000000000000
CC3263   LU3P     1  0.289648991242  0.166731218816
CC3263     MG     1  0.274842254546  0.051243325419
CC3263   MN2P     1  0.276508235149  0.171747976291
CC3263   MN3P     1  0.203516903172  0.148045032716
CC3263      N     1  0.334087019303  0.004184000000
CC3263     NC     1  0.334087019303  0.324091246411
CC3263    NC2     1  0.334087019303  0.187114168357
CC3263  NC2D1     1  0.307360057758  0.187114168357
CC3263  NC311     1  0.347450500075  0.088756043175
CC3263   ND3P     1  0.313587439798  0.177117175768
CC3263     NE     1  0.305578260322  0.122698965603
CC3263  NG1T1     1  0.328741626994  0.177512086349
CC3263  NG2D1     1  0.334087019303  0.187114168357
CC3263  NG2O1     1  0.334087019303  0.187114168357
CC3263  NG2P1     1  0.334087019303  0.187114168357
CC3263 NG2R43     1  0.334087019303  0.187114168357
CC3263 NG2R50     1  0.334087019303  0.187114168357
CC3263 NG2R51     1  0.334087019303  0.187114168357
CC3263 NG2R52     1  0.334087019303  0.187114168357
CC3263 NG2R53     1  0.334087019303  0.187114168357
CC3263 NG2R57     1  0.334087019303  0.187114168357
CC3263 NG2R60     1  0.337650614175  0.102486650838
CC3263 NG2R61     1  0.334087019303  0.187114168357
CC3263 NG2R62     1  0.352795892384  0.093557084179
CC3263 NG2R67     1  0.334087019303  0.187114168357
CC3263 NG2RC0     1  0.334087019303  0.187114168357
CC3263  NG2S0     1  0.334087019303  0.004184000000
CC3263  NG2S1     1  0.307360057758  0.187114168357
CC3263  NG2S2     1  0.334087019303  0.187114168357
CC3263  NG2S3     1  0.334087019303  0.187114168357
CC3263  NG301     1  0.347450500075  0.078275472531
CC3263  NG311     1  0.347450500075  0.088756043175
CC3263  NG321     1  0.346559601357  0.102486650838
CC3263  NG331     1  0.345668702638  0.110698234855
CC3263 NG3C51     1  0.334087019303  0.187114168357
CC3263  NG3N1     1  0.351904993665  0.102486650838
CC3263  NG3P0     1  0.334087019303  0.187114168357
CC3263  NG3P1     1  0.334087019303  0.187114168357
CC3263  NG3P2     1  0.334087019303  0.187114168357
CC3263  NG3P3     1  0.334087019303  0.187114168357
CC3263    NH1     1  0.307360057758  0.187114168357
CC3263    NH2     1  0.334087019303  0.187114168357
CC3263    NH3     1  0.334087019303  0.187114168357
CC3263   NH3L     1  0.334087019303  0.187114168357
CC3263    NHL     1  0.307360057758  0.187114168357
CC3263     NI     1  0.282949432881  0.994525446633
CC3263   NI2P     1  0.238787583423  0.158440517242
CC3263    NN1     1  0.334087019303  0.187114168357
CC3263   NN1C     1  0.334087019303  0.187114168357
CC3263    NN2     1  0.334087019303  0.187114168357
CC3263   NN2B     1  0.334087019303  0.187114168357
CC3263   NN2C     1  0.334087019303  0.187114168357
CC3263   NN2G     1  0.334087019303  0.187114168357
CC3263   NN2U     1  0.334087019303  0.187114168357
CC3263    NN3     1  0.334087019303  0.187114168357
CC3263   NN3A     1  0.334087019303  0.187114168357
CC3263   NN3G     1  0.334087019303  0.187114168357
CC3263   NN3I     1  0.334087019303  0.187114168357
CC3263    NN4     1  0.334087019303  0.187114168357
CC3263    NN6     1  0.334087019303  0.187114168357
CC3263    NNG     1  0.334087019303  0.187114168357
CC3263     NP     1  0.334087019303  0.187114168357
CC3263    NPH     1  0.334087019303  0.187114168357
CC3263    NR1     1  0.334087019303  0.187114168357
CC3263    NR2     1  0.334087019303  0.187114168357
CC3263    NR3     1  0.334087019303  0.187114168357
CC3263   NRC4     1  0.334087019303  0.187114168357
CC3263   NRN1     1  0.347450500075  0.280671252536
CC3263   NRN2     1  0.346559601357  0.102486650838
CC3263    NS1     1  0.334087019303  0.187114168357
CC3263    NS2     1  0.334087019303  0.187114168357
CC3263    NTL     1  0.334087019303  0.187114168357
CC3263     NY     1  0.334087019303  0.187114168357
CC3263      O     1  0.293996576986  0.144938011577
CC3263    O2L     1  0.320723538531  0.144938011577
CC3263    OAL     1  0.326959829558  0.163176000000
CC3263     OB     1  0.293996576986  0.144938011577
CC3263    OBL     1  0.293996576986  0.144938011577
CC3263     OC     1  0.320723538531  0.144938011577
CC3263  OC2D1     1  0.293996576986  0.144938011577
CC3263  OC2D2     1  0.320723538531  0.144938011577
CC3263  OC2D3     1  0.293996576986  0.144938011577
CC3263  OC2D4     1  0.293996576986  0.144938011577
CC3263  OC2DP     1  0.320723538531  0.144938011577
CC3263  OC301     1  0.316269044940  0.132309697301
CC3263  OC302     1  0.316269044940  0.132309697301
CC3263  OC303     1  0.316269044940  0.132309697301
CC3263 OC305A     1  0.316269044940  0.132309697301
CC3263  OC30A     1  0.316269044940  0.132309697301
CC3263  OC30P     1  0.326959829558  0.163176000000
CC3263  OC311     1  0.326514380198  0.183381431383
CC3263 OC311M     1  0.326514380198  0.183381431383
CC3263  OC312     1  0.326959829558  0.163176000000
CC3263 OC3C51     1  0.316269044940  0.132309697301
CC3263 OC3C5M     1  0.316269044940  0.132309697301
CC3263 OC3C61     1  0.316269044940  0.132309697301
CC3263    OCA     1  0.293996576986  0.144938011577
CC3263    OCL     1  0.320723538531  0.144938011577
CC3263  OG2D1     1  0.293996576986  0.144938011577
CC3263  OG2D2     1  0.320723538531  0.144938011577
CC3263  OG2D3     1  0.293996576986  0.144938011577
CC3263  OG2D4     1  0.320723538531  0.144938011577
CC3263  OG2D5     1  0.320010819556  0.169954883425
CC3263  OG2N1     1  0.320723538531  0.144938011577
CC3263  OG2P1     1  0.320723538531  0.144938011577
CC3263 OG2R50     1  0.320723538531  0.144938011577
CC3263  OG2S1     1  0.318906105146  0.157831660601
CC3263  OG301     1  0.316269044940  0.132309697301
CC3263  OG302     1  0.316269044940  0.132309697301
CC3263  OG303     1  0.316269044940  0.132309697301
CC3263  OG304     1  0.316269044940  0.132309697301
CC3263  OG311     1  0.326514380198  0.183381431383
CC3263  OG312     1  0.325178032121  0.144938011577
CC3263 OG3C31     1  0.316269044940  0.132309697301
CC3263 OG3C51     1  0.316269044940  0.132309697301
CC3263 OG3C61     1  0.316269044940  0.132309697301
CC3263 OG3R60     1  0.316269044940  0.132309697301
CC3263    OH1     1  0.326959829558  0.163176000000
CC3263    OHL     1  0.326959829558  0.163176000000
CC3263   OLG1     1  0.293996576986  0.144938011577
CC3263   OLG2     1  0.320723538531  0.144938011577
CC3263   OLG3     1  0.320723538531  0.144938011577
CC3263   OLG4     1  0.316269044940  0.132309697301
CC3263   OLG5     1  0.316269044940  0.132309697301
CC3263   OLG6     1  0.326514380198  0.183381431383
CC3263   OLG7     1  0.316269044940  0.132309697301
CC3263   OLG8     1  0.316269044940  0.132309697301
CC3263     OM     1  0.320723538531  0.144938011577
CC3263    ON1     1  0.320723538531  0.144938011577
CC3263   ON1C     1  0.320723538531  0.144938011577
CC3263    ON2     1  0.326959829558  0.163176000000
CC3263   ON2B     1  0.326959829558  0.163176000000
CC3263   ON2M     1  0.316269044940  0.132309697301
CC3263    ON3     1  0.320723538531  0.144938011577
CC3263    ON4     1  0.326959829558  0.163176000000
CC3263    ON5     1  0.326959829558  0.163176000000
CC3263    ON6     1  0.326959829558  0.163176000000
CC3263   ON6B     1  0.326959829558  0.163176000000
CC3263   OPER     1  0.318427692534  0.188901923946
CC3263     OS     1  0.326959829558  0.163176000000
CC3263   OSIA     1  0.326959829558  0.163176000000
CC3263   OSIE     1  0.326959829558  0.163176000000
CC3263   OSIH     1  0.326959829558  0.163176000000
CC3263    OSL     1  0.316269044940  0.132309697301
CC3263   OSLP     1  0.316269044940  0.132309697301
CC3263    OST     1  0.320010819556  0.169954883425
CC3263     OT     1  0.326799467788  0.163176000000
CC3263     OX     1  0.320723538531  0.144938011577
CC3263      P     1  0.360813980847  0.320014464673
CC3263     P2     1  0.360813980847  0.320014464673
CC3263     P3     1  0.360813980847  0.320014464673
CC3263     P4     1  0.360813980847  0.320014464673
CC3263     PB     1  0.328073452955  0.716185437439
CC3263   PB2P     1  0.325890751096  0.204716924713
CC3263     PC     1  0.360813980847  0.320014464673
CC3263     PD     1  0.294842930769  1.037598257516
CC3263   PD2P     1  0.251865976605  0.174628752363
CC3263    PG0     1  0.360813980847  0.320014464673
CC3263    PG1     1  0.360813980847  0.320014464673
CC3263    PG2     1  0.360813980847  0.320014464673
CC3263     PL     1  0.360813980847  0.320014464673
CC3263   PM3P     1  0.316910492017  0.176275053255
CC3263    POT     1  0.326403017859  0.123410269913
CC3263   PR3P     1  0.317079762773  0.178642591472
CC3263     PT     1  0.296001099102  1.168527606863
CC3263   PT2P     1  0.240284293270  0.168973521997
CC3263   PU3P     1  0.318024115415  0.179522368790
CC3263   RA2P     1  0.355459679551  0.229891668540
CC3263   RH3P     1  0.210367914314  0.149983415617
CC3263    RUB     1  0.338541512893  0.162045623205
CC3263      S     1  0.347450500075  0.280671252536
CC3263     SC     1  0.356359487256  0.286840588481
CC3263   SC3P     1  0.266993436839  0.157109060719
CC3263  SEGD1     1  0.363041227642  0.330244580395
CC3263  SG2D1     1  0.351904993665  0.314496560236
CC3263  SG2P1     1  0.355798221064  0.332305491450
CC3263  SG2P2     1  0.352314807076  0.329421919951
CC3263 SG2R50     1  0.347450500075  0.280671252536
CC3263  SG301     1  0.345223253279  0.257919081884
CC3263  SG302     1  0.365268474438  0.286840588481
CC3263  SG311     1  0.347450500075  0.280671252536
CC3263  SG3O1     1  0.356359487256  0.286840588481
CC3263  SG3O2     1  0.347450500075  0.247528778125
CC3263  SG3O3     1  0.347450500075  0.247528778125
CC3263     SI     1  0.365268474438  0.324091246411
CC3263   SIH3     1  0.365268474438  0.324091246411
CC3263     SL     1  0.356359487256  0.286840588481
CC3263     SM     1  0.345223253279  0.257919081884
CC3263   SM2P     1  0.334666103469  0.207012887251
CC3263   SM3P     1  0.308847858618  0.175378986746
CC3263   SN2P     1  0.316981763914  0.181365662197
CC3263    SOD     1  0.294954293108  0.090610410351
CC3263     SP     1  0.365268474438  0.280671252536
CC3263   SR2P     1  0.334612649546  0.200133451797
CC3263     SS     1  0.365268474438  0.286840588481
CC3263   TB3P     1  0.300678317372  0.172155203837
CC3263   TI1P     1  0.341276571958  0.266826378666
CC3263   TI3P     1  0.243117351193  0.149983415617
CC3263   TL3P     1  0.246716582015  0.168869889039
CC3263   TM3P     1  0.289417357575  0.168402751521
CC3263    U3P     1  0.320830446377  0.182184255566
CC3263    V2P     1  0.267599247968  0.167830039933
CC3263    V3P     1  0.223989755715  0.147096016316
CC3263    Y3P     1  0.295190381269  0.170263611896
CC3263   YB2P     1  0.312616360195  0.189623385225
CC3263   YB3P     1  0.284659958420  0.167569069413
CC3263     ZN     1  0.266378716724  0.209200000000
CC326A CC326A     1  0.338541512893  0.041840000000
CC326A  CC32A     1  0.338541512893  0.041840000000
CC326A  CC331     1  0.338541512893  0.041840000000
CC326A  CC33A     1  0.338541512893  0.041840000000
CC326A    CCL     1  0.347450500075  0.110698234855
CC326A     CD     1  0.347450500075  0.110698234855
CC326A    CE1     1  0.355468588538  0.109105371453
CC326A    CE2     1  0.354577689820  0.105847757841
CC326A   CE3P     1  0.321748072056  0.179522368790
CC326A   CEL1     1  0.355468588538  0.109105371453
CC326A   CEL2     1  0.354577689820  0.105847757841
CC326A   CEL3     1  0.355468588538  0.109105371453
CC326A    CES     1  0.356359487256  0.182376331798
CC326A    CF1     1  0.338541512893  0.102486650838
CC326A    CF2     1  0.351904993665  0.085746484010
CC326A    CF3     1  0.374177461619  0.059170695450
CC326A  CG1N1     1  0.335868816739  0.177512086349
CC326A  CG1T1     1  0.333196120584  0.170981810495
CC326A  CG1T2     1  0.346782326036  0.134409982486
CC326A CG251O     1  0.355468588538  0.109105371453
CC326A CG252O     1  0.355468588538  0.109105371453
CC326A CG25C1     1  0.355468588538  0.109105371453
CC326A CG25C2     1  0.355468588538  0.109105371453
CC326A  CG2D1     1  0.355468588538  0.109105371453
CC326A CG2D1O     1  0.355468588538  0.109105371453
CC326A  CG2D2     1  0.354577689820  0.105847757841
CC326A CG2D2O     1  0.355468588538  0.109105371453
CC326A CG2DC1     1  0.355468588538  0.109105371453
CC326A CG2DC2     1  0.355468588538  0.109105371453
CC326A CG2DC3     1  0.354577689820  0.105847757841
CC326A  CG2N1     1  0.347450500075  0.138767581228
CC326A  CG2N2     1  0.347450500075  0.138767581228
CC326A  CG2O1     1  0.347450500075  0.138767581228
CC326A  CG2O2     1  0.320723538531  0.130979917850
CC326A  CG2O3     1  0.347450500075  0.110698234855
CC326A  CG2O4     1  0.329632525712  0.102486650838
CC326A  CG2O5     1  0.347450500075  0.125520000000
CC326A  CG2O6     1  0.347450500075  0.110698234855
CC326A  CG2O7     1  0.308518226092  0.100764063435
CC326A CG2R51     1  0.356359487256  0.093557084179
CC326A CG2R52     1  0.365268474438  0.059170695450
CC326A CG2R53     1  0.365268474438  0.059170695450
CC326A CG2R57     1  0.356359487256  0.093557084179
CC326A CG2R61     1  0.346773417049  0.110698234855
CC326A CG2R62     1  0.338541512893  0.125520000000
CC326A CG2R63     1  0.338541512893  0.132309697301
CC326A CG2R64     1  0.356359487256  0.083680000000
CC326A CG2R66     1  0.338541512893  0.110698234855
CC326A CG2R67     1  0.346773417049  0.110698234855
CC326A CG2R71     1  0.346987232741  0.108300154755
CC326A CG2RC0     1  0.334977918021  0.131646486622
CC326A CG2RC7     1  0.334977918021  0.131646486622
CC326A  CG301     1  0.338541512893  0.041840000000
CC326A  CG302     1  0.374177461619  0.059170695450
CC326A  CG311     1  0.338541512893  0.041840000000
CC326A  CG312     1  0.351904993665  0.085746484010
CC326A  CG314     1  0.338541512893  0.041840000000
CC326A  CG321     1  0.338541512893  0.041840000000
CC326A  CG322     1  0.338541512893  0.102486650838
CC326A  CG323     1  0.365268474438  0.138767581228
CC326A  CG324     1  0.338541512893  0.041840000000
CC326A  CG331     1  0.338541512893  0.041840000000
CC326A  CG334     1  0.338541512893  0.041840000000
CC326A CG3AM0     1  0.344777803920  0.110698234855
CC326A CG3AM1     1  0.345668702638  0.116852760686
CC326A CG3AM2     1  0.346559601357  0.118341390899
CC326A CG3C31     1  0.338541512893  0.041840000000
CC326A CG3C41     1  0.338541512893  0.041840000000
CC326A CG3C50     1  0.338541512893  0.041840000000
CC326A CG3C51     1  0.338541512893  0.041840000000
CC326A CG3C52     1  0.338541512893  0.041840000000
CC326A CG3C53     1  0.338541512893  0.041840000000
CC326A CG3C54     1  0.338541512893  0.041840000000
CC326A CG3RC1     1  0.338541512893  0.041840000000
CC326A     CL     1  0.347450500075  0.110698234855
CC326A    CLA     1  0.371504765465  0.162045623205
CC326A   CLAL     1  0.339272049842  0.072469005789
CC326A  CLG01     1  0.355468588538  0.109105371453
CC326A  CLG02     1  0.355468588538  0.109105371453
CC326A  CLG03     1  0.320723538531  0.130979917850
CC326A  CLG04     1  0.347450500075  0.110698234855
CC326A  CLG05     1  0.329632525712  0.102486650838
CC326A  CLG06     1  0.346773417049  0.110698234855
CC326A CLG06A     1  0.346773417049  0.110698234855
CC326A CLG06B     1  0.346773417049  0.110698234855
CC326A  CLG07     1  0.338541512893  0.125520000000
CC326A  CLG08     1  0.338541512893  0.132309697301
CC326A  CLG09     1  0.346773417049  0.110698234855
CC326A  CLG10     1  0.334977918021  0.131646486622
CC326A  CLG11     1  0.338541512893  0.041840000000
CC326A  CLG12     1  0.338541512893  0.041840000000
CC326A  CLG13     1  0.338541512893  0.041840000000
CC326A  CLG14     1  0.338541512893  0.041840000000
CC326A  CLG15     1  0.338541512893  0.041840000000
CC326A  CLG16     1  0.338541512893  0.041840000000
CC326A  CLGA1     1  0.339432411611  0.245040988571
CC326A  CLGA3     1  0.339432411611  0.232955260941
CC326A  CLGR1     1  0.334977918021  0.200657590935
CC326A     CM     1  0.356359487256  0.138767581228
CC326A     CN     1  0.325178032121  0.187114168357
CC326A    CN1     1  0.338541512893  0.132309697301
CC326A   CN1A     1  0.347450500075  0.110698234855
CC326A   CN1T     1  0.338541512893  0.132309697301
CC326A    CN2     1  0.338541512893  0.132309697301
CC326A    CN3     1  0.338541512893  0.125520000000
CC326A   CN3A     1  0.329632525712  0.177512086349
CC326A   CN3B     1  0.329632525712  0.177512086349
CC326A   CN3C     1  0.329632525712  0.177512086349
CC326A   CN3D     1  0.338541512893  0.125520000000
CC326A   CN3T     1  0.338541512893  0.125520000000
CC326A    CN4     1  0.338541512893  0.114583559030
CC326A    CN5     1  0.338541512893  0.114583559030
CC326A   CN5G     1  0.338541512893  0.114583559030
CC326A    CN6     1  0.338541512893  0.041840000000
CC326A    CN7     1  0.338541512893  0.041840000000
CC326A   CN7B     1  0.338541512893  0.041840000000
CC326A   CN7E     1  0.338541512893  0.041840000000
CC326A    CN8     1  0.338541512893  0.041840000000
CC326A   CN8B     1  0.338541512893  0.041840000000
CC326A    CN9     1  0.338541512893  0.041840000000
CC326A    CNA     1  0.346773417049  0.110698234855
CC326A   CNA2     1  0.338541512893  0.110698234855
CC326A   CNE1     1  0.355468588538  0.109105371453
CC326A   CNE2     1  0.354577689820  0.105847757841
CC326A    CNG     1  0.347450500075  0.138767581228
CC326A   CO2P     1  0.251910521541  0.164138698618
CC326A   CO3P     1  0.192264852362  0.144393471099
CC326A    COA     1  0.347450500075  0.138767581228
CC326A    CP1     1  0.338541512893  0.041840000000
CC326A    CP2     1  0.338541512893  0.041840000000
CC326A    CP3     1  0.338541512893  0.041840000000
CC326A    CPA     1  0.329632525712  0.125520000000
CC326A    CPB     1  0.329632525712  0.125520000000
CC326A   CPD1     1  0.338541512893  0.041840000000
CC326A   CPH1     1  0.329632525712  0.093557084179
CC326A   CPH2     1  0.329632525712  0.093557084179
CC326A    CPM     1  0.329632525712  0.125520000000
CC326A    CPT     1  0.334977918021  0.131646486622
CC326A   CR2P     1  0.263634748672  0.170828164985
CC326A   CR33     1  0.338541512893  0.041840000000
CC326A   CR3P     1  0.244382427373  0.145299904804
CC326A   CRL1     1  0.338541512893  0.041840000000
CC326A   CRL2     1  0.338541512893  0.041840000000
CC326A   CRN1     1  0.347450500075  0.138767581228
CC326A     CS     1  0.365268474438  0.138767581228
CC326A    CST     1  0.308518226092  0.100764063435
CC326A     CT     1  0.338541512893  0.041840000000
CC326A    CT1     1  0.338541512893  0.041840000000
CC326A   CT1X     1  0.338541512893  0.041840000000
CC326A    CT2     1  0.338541512893  0.041840000000
CC326A   CT2A     1  0.338541512893  0.041840000000
CC326A   CT2P     1  0.338541512893  0.041840000000
CC326A   CT2X     1  0.338541512893  0.041840000000
CC326A    CT3     1  0.338541512893  0.041840000000
CC326A   CT3X     1  0.338541512893  0.041840000000
CC326A   CTD1     1  0.338541512893  0.041840000000
CC326A   CTL1     1  0.338541512893  0.041840000000
CC326A   CTL2     1  0.338541512893  0.041840000000
CC326A   CTL3     1  0.338541512893  0.041840000000
CC326A   CTL5     1  0.338541512893  0.041840000000
CC326A   CTO1     1  0.338541512893  0.041840000000
CC326A   CTO2     1  0.338541512893  0.041840000000
CC326A     CU     1  0.285800308779  0.908997471504
CC326A   CU1P     1  0.246066225950  0.180057894334
CC326A   CU2P     1  0.233869822499  0.162315474555
CC326A     CY     1  0.346559601357  0.113045454929
CC326A    DUM     1  0.169270756447  0.000000000000
CC326A   DY3P     1  0.297952167295  0.171135318061
CC326A   ER3P     1  0.291083338178  0.169232326746
CC326A   EU2P     1  0.333231756533  0.203602227414
CC326A   EU3P     1  0.304954631219  0.174528477447
CC326A     F1     1  0.314487247504  0.153729976257
CC326A     F2     1  0.314487247504  0.135577095411
CC326A     F3     1  0.311814551349  0.130309939452
CC326A     FA     1  0.320723538531  0.144938011577
CC326A     FE     1  0.227179173126  0.000000000000
CC326A   FE2P     1  0.265496726993  0.167098295383
CC326A   FE3P     1  0.219722350855  0.148045032716
CC326A   FGA1     1  0.314487247504  0.153729976257
CC326A   FGA2     1  0.314487247504  0.135577095411
CC326A   FGA3     1  0.311814551349  0.130309939452
CC326A   FGP1     1  0.311814551349  0.130309939452
CC326A   FGR1     1  0.320723538531  0.144938011577
CC326A    FNA     1  0.320723538531  0.144938011577
CC326A   GA3P     1  0.189485248361  0.145299904804
CC326A   GD3P     1  0.303351013527  0.173673803114
CC326A      H     1  0.189271432669  0.089736802707
CC326A     HA     1  0.286869387241  0.062058748940
CC326A    HA1     1  0.288651184677  0.088756043175
CC326A    HA2     1  0.288651184677  0.077149148019
CC326A    HA3     1  0.288651184677  0.064818249282
CC326A    HAL     1  0.286869387241  0.062058748940
CC326A   HAL1     1  0.286869387241  0.062058748940
CC326A   HAL2     1  0.288651184677  0.070011711020
CC326A   HAL3     1  0.288651184677  0.064818249282
CC326A     HB     1  0.286869387241  0.062058748940
CC326A    HB1     1  0.286869387241  0.062058748940
CC326A    HB2     1  0.288651184677  0.070011711020
CC326A    HBL     1  0.286869387241  0.062058748940
CC326A     HC     1  0.189271432669  0.089736802707
CC326A   HCA1     1  0.288651184677  0.088756043175
CC326A  HCA1A     1  0.288651184677  0.088756043175
CC326A HCA1C2     1  0.288651184677  0.088756043175
CC326A   HCA2     1  0.288651184677  0.078275472531
CC326A HCA25A     1  0.285087589805  0.078275472531
CC326A  HCA2A     1  0.288651184677  0.078275472531
CC326A HCA2C2     1  0.285087589805  0.078275472531
CC326A   HCA3     1  0.288651184677  0.064818249282
CC326A  HCA3A     1  0.288651184677  0.064818249282
CC326A  HCA3M     1  0.288651184677  0.064818249282
CC326A    HCL     1  0.189271432669  0.089736802707
CC326A   HCP1     1  0.189271432669  0.089736802707
CC326A  HCP1M     1  0.189271432669  0.089736802707
CC326A   HCR1     1  0.240542653898  0.089736802707
CC326A     HE     1  0.301123766731  0.061020452073
CC326A    HE1     1  0.280633096214  0.073666921749
CC326A    HE2     1  0.281523994932  0.067464972838
CC326A   HEL1     1  0.280633096214  0.073666921749
CC326A   HEL2     1  0.281523994932  0.067464972838
CC326A    HF1     1  0.286869387241  0.070011711020
CC326A    HF2     1  0.285087589805  0.072469005789
CC326A   HG2P     1  0.274557166956  0.189623385225
CC326A   HGA1     1  0.288651184677  0.088756043175
CC326A   HGA2     1  0.288651184677  0.078275472531
CC326A   HGA3     1  0.288651184677  0.064818249282
CC326A   HGA4     1  0.280633096214  0.073666921749
CC326A   HGA5     1  0.281523994932  0.067464972838
CC326A   HGA6     1  0.286869387241  0.070011711020
CC326A   HGA7     1  0.285087589805  0.072469005789
CC326A HGAAM0     1  0.283305792369  0.070011711020
CC326A HGAAM1     1  0.283305792369  0.070011711020
CC326A HGAAM2     1  0.281523994932  0.083680000000
CC326A   HGP1     1  0.189271432669  0.089736802707
CC326A   HGP2     1  0.189271432669  0.089736802707
CC326A   HGP3     1  0.209361198763  0.132309697301
CC326A   HGP4     1  0.189271432669  0.089736802707
CC326A   HGP5     1  0.231633666716  0.089736802707
CC326A HGPAM1     1  0.247224394284  0.039692909190
CC326A HGPAM2     1  0.247224394284  0.041840000000
CC326A HGPAM3     1  0.246778944925  0.045833423612
CC326A  HGR51     1  0.290272620344  0.072469005789
CC326A  HGR52     1  0.249451641079  0.089736802707
CC326A  HGR53     1  0.231633666716  0.089736802707
CC326A  HGR61     1  0.290272620344  0.072469005789
CC326A  HGR62     1  0.267269615442  0.089736802707
CC326A  HGR63     1  0.249451641079  0.089736802707
CC326A  HGR71     1  0.290272620344  0.072469005789
CC326A     HL     1  0.231633666716  0.089736802707
CC326A  HLGA1     1  0.288651184677  0.088756043175
CC326A  HLGA2     1  0.288651184677  0.078275472531
CC326A  HLGA3     1  0.288651184677  0.064818249282
CC326A  HLGA4     1  0.280633096214  0.073666921749
CC326A  HLGP1     1  0.189271432669  0.089736802707
CC326A HLGR52     1  0.249451641079  0.089736802707
CC326A HLGR61     1  0.290272620344  0.072469005789
CC326A HLGR62     1  0.267269615442  0.089736802707
CC326A    HN1     1  0.189271432669  0.089736802707
CC326A    HN2     1  0.189271432669  0.089736802707
CC326A    HN3     1  0.267269615442  0.089736802707
CC326A   HN3B     1  0.249451641079  0.089736802707
CC326A    HN4     1  0.189271432669  0.089736802707
CC326A    HN5     1  0.189271432669  0.089736802707
CC326A    HN6     1  0.286869387241  0.062058748940
CC326A    HN7     1  0.286869387241  0.062058748940
CC326A    HN8     1  0.288651184677  0.070011711020
CC326A    HN9     1  0.288651184677  0.064818249282
CC326A   HNE1     1  0.280633096214  0.073666921749
CC326A   HNE2     1  0.281523994932  0.067464972838
CC326A    HNP     1  0.290272620344  0.072469005789
CC326A   HO3P     1  0.293168041178  0.170263611896
CC326A    HOL     1  0.189271432669  0.089736802707
CC326A     HP     1  0.290272620344  0.072469005789
CC326A   HPER     1  0.189271432669  0.089736802707
CC326A    HR1     1  0.249451641079  0.089736802707
CC326A    HR2     1  0.231633666716  0.089736802707
CC326A    HR3     1  0.300054688270  0.036952087465
CC326A   HRA3     1  0.288651184677  0.064818249282
CC326A   HRM1     1  0.247224394284  0.039692909190
CC326A   HRM2     1  0.247224394284  0.041840000000
CC326A   HRP2     1  0.189271432669  0.089736802707
CC326A     HS     1  0.209361198763  0.132309697301
CC326A   HSIA     1  0.286869387241  0.062058748940
CC326A   HSIO     1  0.189271432669  0.089736802707
CC326A     HT     1  0.189271432669  0.089736802707
CC326A     HX     1  0.189271432669  0.089736802707
CC326A   IGR1     1  0.368832069310  0.301712530731
CC326A   IN3P     1  0.246449312399  0.160580590010
CC326A   LA3P     1  0.327200372211  0.182184255566
CC326A    LIT     1  0.284864865125  0.020196198771
CC326A    LPH     1  0.169270756447  0.000000000000
CC326A   LU3P     1  0.289648991242  0.166731218816
CC326A     MG     1  0.274842254546  0.051243325419
CC326A   MN2P     1  0.276508235149  0.171747976291
CC326A   MN3P     1  0.203516903172  0.148045032716
CC326A      N     1  0.334087019303  0.004184000000
CC326A     NC     1  0.334087019303  0.324091246411
CC326A    NC2     1  0.334087019303  0.187114168357
CC326A  NC2D1     1  0.307360057758  0.187114168357
CC326A  NC311     1  0.347450500075  0.088756043175
CC326A   ND3P     1  0.313587439798  0.177117175768
CC326A     NE     1  0.305578260322  0.122698965603
CC326A  NG1T1     1  0.328741626994  0.177512086349
CC326A  NG2D1     1  0.334087019303  0.187114168357
CC326A  NG2O1     1  0.334087019303  0.187114168357
CC326A  NG2P1     1  0.334087019303  0.187114168357
CC326A NG2R43     1  0.334087019303  0.187114168357
CC326A NG2R50     1  0.334087019303  0.187114168357
CC326A NG2R51     1  0.334087019303  0.187114168357
CC326A NG2R52     1  0.334087019303  0.187114168357
CC326A NG2R53     1  0.334087019303  0.187114168357
CC326A NG2R57     1  0.334087019303  0.187114168357
CC326A NG2R60     1  0.337650614175  0.102486650838
CC326A NG2R61     1  0.334087019303  0.187114168357
CC326A NG2R62     1  0.352795892384  0.093557084179
CC326A NG2R67     1  0.334087019303  0.187114168357
CC326A NG2RC0     1  0.334087019303  0.187114168357
CC326A  NG2S0     1  0.334087019303  0.004184000000
CC326A  NG2S1     1  0.307360057758  0.187114168357
CC326A  NG2S2     1  0.334087019303  0.187114168357
CC326A  NG2S3     1  0.334087019303  0.187114168357
CC326A  NG301     1  0.347450500075  0.078275472531
CC326A  NG311     1  0.347450500075  0.088756043175
CC326A  NG321     1  0.346559601357  0.102486650838
CC326A  NG331     1  0.345668702638  0.110698234855
CC326A NG3C51     1  0.334087019303  0.187114168357
CC326A  NG3N1     1  0.351904993665  0.102486650838
CC326A  NG3P0     1  0.334087019303  0.187114168357
CC326A  NG3P1     1  0.334087019303  0.187114168357
CC326A  NG3P2     1  0.334087019303  0.187114168357
CC326A  NG3P3     1  0.334087019303  0.187114168357
CC326A    NH1     1  0.307360057758  0.187114168357
CC326A    NH2     1  0.334087019303  0.187114168357
CC326A    NH3     1  0.334087019303  0.187114168357
CC326A   NH3L     1  0.334087019303  0.187114168357
CC326A    NHL     1  0.307360057758  0.187114168357
CC326A     NI     1  0.282949432881  0.994525446633
CC326A   NI2P     1  0.238787583423  0.158440517242
CC326A    NN1     1  0.334087019303  0.187114168357
CC326A   NN1C     1  0.334087019303  0.187114168357
CC326A    NN2     1  0.334087019303  0.187114168357
CC326A   NN2B     1  0.334087019303  0.187114168357
CC326A   NN2C     1  0.334087019303  0.187114168357
CC326A   NN2G     1  0.334087019303  0.187114168357
CC326A   NN2U     1  0.334087019303  0.187114168357
CC326A    NN3     1  0.334087019303  0.187114168357
CC326A   NN3A     1  0.334087019303  0.187114168357
CC326A   NN3G     1  0.334087019303  0.187114168357
CC326A   NN3I     1  0.334087019303  0.187114168357
CC326A    NN4     1  0.334087019303  0.187114168357
CC326A    NN6     1  0.334087019303  0.187114168357
CC326A    NNG     1  0.334087019303  0.187114168357
CC326A     NP     1  0.334087019303  0.187114168357
CC326A    NPH     1  0.334087019303  0.187114168357
CC326A    NR1     1  0.334087019303  0.187114168357
CC326A    NR2     1  0.334087019303  0.187114168357
CC326A    NR3     1  0.334087019303  0.187114168357
CC326A   NRC4     1  0.334087019303  0.187114168357
CC326A   NRN1     1  0.347450500075  0.280671252536
CC326A   NRN2     1  0.346559601357  0.102486650838
CC326A    NS1     1  0.334087019303  0.187114168357
CC326A    NS2     1  0.334087019303  0.187114168357
CC326A    NTL     1  0.334087019303  0.187114168357
CC326A     NY     1  0.334087019303  0.187114168357
CC326A      O     1  0.293996576986  0.144938011577
CC326A    O2L     1  0.320723538531  0.144938011577
CC326A    OAL     1  0.326959829558  0.163176000000
CC326A     OB     1  0.293996576986  0.144938011577
CC326A    OBL     1  0.293996576986  0.144938011577
CC326A     OC     1  0.320723538531  0.144938011577
CC326A  OC2D1     1  0.293996576986  0.144938011577
CC326A  OC2D2     1  0.320723538531  0.144938011577
CC326A  OC2D3     1  0.293996576986  0.144938011577
CC326A  OC2D4     1  0.293996576986  0.144938011577
CC326A  OC2DP     1  0.320723538531  0.144938011577
CC326A  OC301     1  0.316269044940  0.132309697301
CC326A  OC302     1  0.316269044940  0.132309697301
CC326A  OC303     1  0.316269044940  0.132309697301
CC326A OC305A     1  0.316269044940  0.132309697301
CC326A  OC30A     1  0.316269044940  0.132309697301
CC326A  OC30P     1  0.326959829558  0.163176000000
CC326A  OC311     1  0.326514380198  0.183381431383
CC326A OC311M     1  0.326514380198  0.183381431383
CC326A  OC312     1  0.326959829558  0.163176000000
CC326A OC3C51     1  0.316269044940  0.132309697301
CC326A OC3C5M     1  0.316269044940  0.132309697301
CC326A OC3C61     1  0.316269044940  0.132309697301
CC326A    OCA     1  0.293996576986  0.144938011577
CC326A    OCL     1  0.320723538531  0.144938011577
CC326A  OG2D1     1  0.293996576986  0.144938011577
CC326A  OG2D2     1  0.320723538531  0.144938011577
CC326A  OG2D3     1  0.293996576986  0.144938011577
CC326A  OG2D4     1  0.320723538531  0.144938011577
CC326A  OG2D5     1  0.320010819556  0.169954883425
CC326A  OG2N1     1  0.320723538531  0.144938011577
CC326A  OG2P1     1  0.320723538531  0.144938011577
CC326A OG2R50     1  0.320723538531  0.144938011577
CC326A  OG2S1     1  0.318906105146  0.157831660601
CC326A  OG301     1  0.316269044940  0.132309697301
CC326A  OG302     1  0.316269044940  0.132309697301
CC326A  OG303     1  0.316269044940  0.132309697301
CC326A  OG304     1  0.316269044940  0.132309697301
CC326A  OG311     1  0.326514380198  0.183381431383
CC326A  OG312     1  0.325178032121  0.144938011577
CC326A OG3C31     1  0.316269044940  0.132309697301
CC326A OG3C51     1  0.316269044940  0.132309697301
CC326A OG3C61     1  0.316269044940  0.132309697301
CC326A OG3R60     1  0.316269044940  0.132309697301
CC326A    OH1     1  0.326959829558  0.163176000000
CC326A    OHL     1  0.326959829558  0.163176000000
CC326A   OLG1     1  0.293996576986  0.144938011577
CC326A   OLG2     1  0.320723538531  0.144938011577
CC326A   OLG3     1  0.320723538531  0.144938011577
CC326A   OLG4     1  0.316269044940  0.132309697301
CC326A   OLG5     1  0.316269044940  0.132309697301
CC326A   OLG6     1  0.326514380198  0.183381431383
CC326A   OLG7     1  0.316269044940  0.132309697301
CC326A   OLG8     1  0.316269044940  0.132309697301
CC326A     OM     1  0.320723538531  0.144938011577
CC326A    ON1     1  0.320723538531  0.144938011577
CC326A   ON1C     1  0.320723538531  0.144938011577
CC326A    ON2     1  0.326959829558  0.163176000000
CC326A   ON2B     1  0.326959829558  0.163176000000
CC326A   ON2M     1  0.316269044940  0.132309697301
CC326A    ON3     1  0.320723538531  0.144938011577
CC326A    ON4     1  0.326959829558  0.163176000000
CC326A    ON5     1  0.326959829558  0.163176000000
CC326A    ON6     1  0.326959829558  0.163176000000
CC326A   ON6B     1  0.326959829558  0.163176000000
CC326A   OPER     1  0.318427692534  0.188901923946
CC326A     OS     1  0.326959829558  0.163176000000
CC326A   OSIA     1  0.326959829558  0.163176000000
CC326A   OSIE     1  0.326959829558  0.163176000000
CC326A   OSIH     1  0.326959829558  0.163176000000
CC326A    OSL     1  0.316269044940  0.132309697301
CC326A   OSLP     1  0.316269044940  0.132309697301
CC326A    OST     1  0.320010819556  0.169954883425
CC326A     OT     1  0.326799467788  0.163176000000
CC326A     OX     1  0.320723538531  0.144938011577
CC326A      P     1  0.360813980847  0.320014464673
CC326A     P2     1  0.360813980847  0.320014464673
CC326A     P3     1  0.360813980847  0.320014464673
CC326A     P4     1  0.360813980847  0.320014464673
CC326A     PB     1  0.328073452955  0.716185437439
CC326A   PB2P     1  0.325890751096  0.204716924713
CC326A     PC     1  0.360813980847  0.320014464673
CC326A     PD     1  0.294842930769  1.037598257516
CC326A   PD2P     1  0.251865976605  0.174628752363
CC326A    PG0     1  0.360813980847  0.320014464673
CC326A    PG1     1  0.360813980847  0.320014464673
CC326A    PG2     1  0.360813980847  0.320014464673
CC326A     PL     1  0.360813980847  0.320014464673
CC326A   PM3P     1  0.316910492017  0.176275053255
CC326A    POT     1  0.326403017859  0.123410269913
CC326A   PR3P     1  0.317079762773  0.178642591472
CC326A     PT     1  0.296001099102  1.168527606863
CC326A   PT2P     1  0.240284293270  0.168973521997
CC326A   PU3P     1  0.318024115415  0.179522368790
CC326A   RA2P     1  0.355459679551  0.229891668540
CC326A   RH3P     1  0.210367914314  0.149983415617
CC326A    RUB     1  0.338541512893  0.162045623205
CC326A      S     1  0.347450500075  0.280671252536
CC326A     SC     1  0.356359487256  0.286840588481
CC326A   SC3P     1  0.266993436839  0.157109060719
CC326A  SEGD1     1  0.363041227642  0.330244580395
CC326A  SG2D1     1  0.351904993665  0.314496560236
CC326A  SG2P1     1  0.355798221064  0.332305491450
CC326A  SG2P2     1  0.352314807076  0.329421919951
CC326A SG2R50     1  0.347450500075  0.280671252536
CC326A  SG301     1  0.345223253279  0.257919081884
CC326A  SG302     1  0.365268474438  0.286840588481
CC326A  SG311     1  0.347450500075  0.280671252536
CC326A  SG3O1     1  0.356359487256  0.286840588481
CC326A  SG3O2     1  0.347450500075  0.247528778125
CC326A  SG3O3     1  0.347450500075  0.247528778125
CC326A     SI     1  0.365268474438  0.324091246411
CC326A   SIH3     1  0.365268474438  0.324091246411
CC326A     SL     1  0.356359487256  0.286840588481
CC326A     SM     1  0.345223253279  0.257919081884
CC326A   SM2P     1  0.334666103469  0.207012887251
CC326A   SM3P     1  0.308847858618  0.175378986746
CC326A   SN2P     1  0.316981763914  0.181365662197
CC326A    SOD     1  0.294954293108  0.090610410351
CC326A     SP     1  0.365268474438  0.280671252536
CC326A   SR2P     1  0.334612649546  0.200133451797
CC326A     SS     1  0.365268474438  0.286840588481
CC326A   TB3P     1  0.300678317372  0.172155203837
CC326A   TI1P     1  0.341276571958  0.266826378666
CC326A   TI3P     1  0.243117351193  0.149983415617
CC326A   TL3P     1  0.246716582015  0.168869889039
CC326A   TM3P     1  0.289417357575  0.168402751521
CC326A    U3P     1  0.320830446377  0.182184255566
CC326A    V2P     1  0.267599247968  0.167830039933
CC326A    V3P     1  0.223989755715  0.147096016316
CC326A    Y3P     1  0.295190381269  0.170263611896
CC326A   YB2P     1  0.312616360195  0.189623385225
CC326A   YB3P     1  0.284659958420  0.167569069413
CC326A     ZN     1  0.266378716724  0.209200000000
 CC32A  CC32A     1  0.338541512893  0.041840000000
 CC32A  CC331     1  0.338541512893  0.041840000000
 CC32A  CC33A     1  0.338541512893  0.041840000000
 CC32A    CCL     1  0.347450500075  0.110698234855
 CC32A     CD     1  0.347450500075  0.110698234855
 CC32A    CE1     1  0.355468588538  0.109105371453
 CC32A    CE2     1  0.354577689820  0.105847757841
 CC32A   CE3P     1  0.321748072056  0.179522368790
 CC32A   CEL1     1  0.355468588538  0.109105371453
 CC32A   CEL2     1  0.354577689820  0.105847757841
 CC32A   CEL3     1  0.355468588538  0.109105371453
 CC32A    CES     1  0.356359487256  0.182376331798
 CC32A    CF1     1  0.338541512893  0.102486650838
 CC32A    CF2     1  0.351904993665  0.085746484010
 CC32A    CF3     1  0.374177461619  0.059170695450
 CC32A  CG1N1     1  0.335868816739  0.177512086349
 CC32A  CG1T1     1  0.333196120584  0.170981810495
 CC32A  CG1T2     1  0.346782326036  0.134409982486
 CC32A CG251O     1  0.355468588538  0.109105371453
 CC32A CG252O     1  0.355468588538  0.109105371453
 CC32A CG25C1     1  0.355468588538  0.109105371453
 CC32A CG25C2     1  0.355468588538  0.109105371453
 CC32A  CG2D1     1  0.355468588538  0.109105371453
 CC32A CG2D1O     1  0.355468588538  0.109105371453
 CC32A  CG2D2     1  0.354577689820  0.105847757841
 CC32A CG2D2O     1  0.355468588538  0.109105371453
 CC32A CG2DC1     1  0.355468588538  0.109105371453
 CC32A CG2DC2     1  0.355468588538  0.109105371453
 CC32A CG2DC3     1  0.354577689820  0.105847757841
 CC32A  CG2N1     1  0.347450500075  0.138767581228
 CC32A  CG2N2     1  0.347450500075  0.138767581228
 CC32A  CG2O1     1  0.347450500075  0.138767581228
 CC32A  CG2O2     1  0.320723538531  0.130979917850
 CC32A  CG2O3     1  0.347450500075  0.110698234855
 CC32A  CG2O4     1  0.329632525712  0.102486650838
 CC32A  CG2O5     1  0.347450500075  0.125520000000
 CC32A  CG2O6     1  0.347450500075  0.110698234855
 CC32A  CG2O7     1  0.308518226092  0.100764063435
 CC32A CG2R51     1  0.356359487256  0.093557084179
 CC32A CG2R52     1  0.365268474438  0.059170695450
 CC32A CG2R53     1  0.365268474438  0.059170695450
 CC32A CG2R57     1  0.356359487256  0.093557084179
 CC32A CG2R61     1  0.346773417049  0.110698234855
 CC32A CG2R62     1  0.338541512893  0.125520000000
 CC32A CG2R63     1  0.338541512893  0.132309697301
 CC32A CG2R64     1  0.356359487256  0.083680000000
 CC32A CG2R66     1  0.338541512893  0.110698234855
 CC32A CG2R67     1  0.346773417049  0.110698234855
 CC32A CG2R71     1  0.346987232741  0.108300154755
 CC32A CG2RC0     1  0.334977918021  0.131646486622
 CC32A CG2RC7     1  0.334977918021  0.131646486622
 CC32A  CG301     1  0.338541512893  0.041840000000
 CC32A  CG302     1  0.374177461619  0.059170695450
 CC32A  CG311     1  0.338541512893  0.041840000000
 CC32A  CG312     1  0.351904993665  0.085746484010
 CC32A  CG314     1  0.338541512893  0.041840000000
 CC32A  CG321     1  0.338541512893  0.041840000000
 CC32A  CG322     1  0.338541512893  0.102486650838
 CC32A  CG323     1  0.365268474438  0.138767581228
 CC32A  CG324     1  0.338541512893  0.041840000000
 CC32A  CG331     1  0.338541512893  0.041840000000
 CC32A  CG334     1  0.338541512893  0.041840000000
 CC32A CG3AM0     1  0.344777803920  0.110698234855
 CC32A CG3AM1     1  0.345668702638  0.116852760686
 CC32A CG3AM2     1  0.346559601357  0.118341390899
 CC32A CG3C31     1  0.338541512893  0.041840000000
 CC32A CG3C41     1  0.338541512893  0.041840000000
 CC32A CG3C50     1  0.338541512893  0.041840000000
 CC32A CG3C51     1  0.338541512893  0.041840000000
 CC32A CG3C52     1  0.338541512893  0.041840000000
 CC32A CG3C53     1  0.338541512893  0.041840000000
 CC32A CG3C54     1  0.338541512893  0.041840000000
 CC32A CG3RC1     1  0.338541512893  0.041840000000
 CC32A     CL     1  0.347450500075  0.110698234855
 CC32A    CLA     1  0.371504765465  0.162045623205
 CC32A   CLAL     1  0.339272049842  0.072469005789
 CC32A  CLG01     1  0.355468588538  0.109105371453
 CC32A  CLG02     1  0.355468588538  0.109105371453
 CC32A  CLG03     1  0.320723538531  0.130979917850
 CC32A  CLG04     1  0.347450500075  0.110698234855
 CC32A  CLG05     1  0.329632525712  0.102486650838
 CC32A  CLG06     1  0.346773417049  0.110698234855
 CC32A CLG06A     1  0.346773417049  0.110698234855
 CC32A CLG06B     1  0.346773417049  0.110698234855
 CC32A  CLG07     1  0.338541512893  0.125520000000
 CC32A  CLG08     1  0.338541512893  0.132309697301
 CC32A  CLG09     1  0.346773417049  0.110698234855
 CC32A  CLG10     1  0.334977918021  0.131646486622
 CC32A  CLG11     1  0.338541512893  0.041840000000
 CC32A  CLG12     1  0.338541512893  0.041840000000
 CC32A  CLG13     1  0.338541512893  0.041840000000
 CC32A  CLG14     1  0.338541512893  0.041840000000
 CC32A  CLG15     1  0.338541512893  0.041840000000
 CC32A  CLG16     1  0.338541512893  0.041840000000
 CC32A  CLGA1     1  0.339432411611  0.245040988571
 CC32A  CLGA3     1  0.339432411611  0.232955260941
 CC32A  CLGR1     1  0.334977918021  0.200657590935
 CC32A     CM     1  0.356359487256  0.138767581228
 CC32A     CN     1  0.325178032121  0.187114168357
 CC32A    CN1     1  0.338541512893  0.132309697301
 CC32A   CN1A     1  0.347450500075  0.110698234855
 CC32A   CN1T     1  0.338541512893  0.132309697301
 CC32A    CN2     1  0.338541512893  0.132309697301
 CC32A    CN3     1  0.338541512893  0.125520000000
 CC32A   CN3A     1  0.329632525712  0.177512086349
 CC32A   CN3B     1  0.329632525712  0.177512086349
 CC32A   CN3C     1  0.329632525712  0.177512086349
 CC32A   CN3D     1  0.338541512893  0.125520000000
 CC32A   CN3T     1  0.338541512893  0.125520000000
 CC32A    CN4     1  0.338541512893  0.114583559030
 CC32A    CN5     1  0.338541512893  0.114583559030
 CC32A   CN5G     1  0.338541512893  0.114583559030
 CC32A    CN6     1  0.338541512893  0.041840000000
 CC32A    CN7     1  0.338541512893  0.041840000000
 CC32A   CN7B     1  0.338541512893  0.041840000000
 CC32A   CN7E     1  0.338541512893  0.041840000000
 CC32A    CN8     1  0.338541512893  0.041840000000
 CC32A   CN8B     1  0.338541512893  0.041840000000
 CC32A    CN9     1  0.338541512893  0.041840000000
 CC32A    CNA     1  0.346773417049  0.110698234855
 CC32A   CNA2     1  0.338541512893  0.110698234855
 CC32A   CNE1     1  0.355468588538  0.109105371453
 CC32A   CNE2     1  0.354577689820  0.105847757841
 CC32A    CNG     1  0.347450500075  0.138767581228
 CC32A   CO2P     1  0.251910521541  0.164138698618
 CC32A   CO3P     1  0.192264852362  0.144393471099
 CC32A    COA     1  0.347450500075  0.138767581228
 CC32A    CP1     1  0.338541512893  0.041840000000
 CC32A    CP2     1  0.338541512893  0.041840000000
 CC32A    CP3     1  0.338541512893  0.041840000000
 CC32A    CPA     1  0.329632525712  0.125520000000
 CC32A    CPB     1  0.329632525712  0.125520000000
 CC32A   CPD1     1  0.338541512893  0.041840000000
 CC32A   CPH1     1  0.329632525712  0.093557084179
 CC32A   CPH2     1  0.329632525712  0.093557084179
 CC32A    CPM     1  0.329632525712  0.125520000000
 CC32A    CPT     1  0.334977918021  0.131646486622
 CC32A   CR2P     1  0.263634748672  0.170828164985
 CC32A   CR33     1  0.338541512893  0.041840000000
 CC32A   CR3P     1  0.244382427373  0.145299904804
 CC32A   CRL1     1  0.338541512893  0.041840000000
 CC32A   CRL2     1  0.338541512893  0.041840000000
 CC32A   CRN1     1  0.347450500075  0.138767581228
 CC32A     CS     1  0.365268474438  0.138767581228
 CC32A    CST     1  0.308518226092  0.100764063435
 CC32A     CT     1  0.338541512893  0.041840000000
 CC32A    CT1     1  0.338541512893  0.041840000000
 CC32A   CT1X     1  0.338541512893  0.041840000000
 CC32A    CT2     1  0.338541512893  0.041840000000
 CC32A   CT2A     1  0.338541512893  0.041840000000
 CC32A   CT2P     1  0.338541512893  0.041840000000
 CC32A   CT2X     1  0.338541512893  0.041840000000
 CC32A    CT3     1  0.338541512893  0.041840000000
 CC32A   CT3X     1  0.338541512893  0.041840000000
 CC32A   CTD1     1  0.338541512893  0.041840000000
 CC32A   CTL1     1  0.338541512893  0.041840000000
 CC32A   CTL2     1  0.338541512893  0.041840000000
 CC32A   CTL3     1  0.338541512893  0.041840000000
 CC32A   CTL5     1  0.338541512893  0.041840000000
 CC32A   CTO1     1  0.338541512893  0.041840000000
 CC32A   CTO2     1  0.338541512893  0.041840000000
 CC32A     CU     1  0.285800308779  0.908997471504
 CC32A   CU1P     1  0.246066225950  0.180057894334
 CC32A   CU2P     1  0.233869822499  0.162315474555
 CC32A     CY     1  0.346559601357  0.113045454929
 CC32A    DUM     1  0.169270756447  0.000000000000
 CC32A   DY3P     1  0.297952167295  0.171135318061
 CC32A   ER3P     1  0.291083338178  0.169232326746
 CC32A   EU2P     1  0.333231756533  0.203602227414
 CC32A   EU3P     1  0.304954631219  0.174528477447
 CC32A     F1     1  0.314487247504  0.153729976257
 CC32A     F2     1  0.314487247504  0.135577095411
 CC32A     F3     1  0.311814551349  0.130309939452
 CC32A     FA     1  0.320723538531  0.144938011577
 CC32A     FE     1  0.227179173126  0.000000000000
 CC32A   FE2P     1  0.265496726993  0.167098295383
 CC32A   FE3P     1  0.219722350855  0.148045032716
 CC32A   FGA1     1  0.314487247504  0.153729976257
 CC32A   FGA2     1  0.314487247504  0.135577095411
 CC32A   FGA3     1  0.311814551349  0.130309939452
 CC32A   FGP1     1  0.311814551349  0.130309939452
 CC32A   FGR1     1  0.320723538531  0.144938011577
 CC32A    FNA     1  0.320723538531  0.144938011577
 CC32A   GA3P     1  0.189485248361  0.145299904804
 CC32A   GD3P     1  0.303351013527  0.173673803114
 CC32A      H     1  0.189271432669  0.089736802707
 CC32A     HA     1  0.286869387241  0.062058748940
 CC32A    HA1     1  0.288651184677  0.088756043175
 CC32A    HA2     1  0.288651184677  0.077149148019
 CC32A    HA3     1  0.288651184677  0.064818249282
 CC32A    HAL     1  0.286869387241  0.062058748940
 CC32A   HAL1     1  0.286869387241  0.062058748940
 CC32A   HAL2     1  0.288651184677  0.070011711020
 CC32A   HAL3     1  0.288651184677  0.064818249282
 CC32A     HB     1  0.286869387241  0.062058748940
 CC32A    HB1     1  0.286869387241  0.062058748940
 CC32A    HB2     1  0.288651184677  0.070011711020
 CC32A    HBL     1  0.286869387241  0.062058748940
 CC32A     HC     1  0.189271432669  0.089736802707
 CC32A   HCA1     1  0.288651184677  0.088756043175
 CC32A  HCA1A     1  0.288651184677  0.088756043175
 CC32A HCA1C2     1  0.288651184677  0.088756043175
 CC32A   HCA2     1  0.288651184677  0.078275472531
 CC32A HCA25A     1  0.285087589805  0.078275472531
 CC32A  HCA2A     1  0.288651184677  0.078275472531
 CC32A HCA2C2     1  0.285087589805  0.078275472531
 CC32A   HCA3     1  0.288651184677  0.064818249282
 CC32A  HCA3A     1  0.288651184677  0.064818249282
 CC32A  HCA3M     1  0.288651184677  0.064818249282
 CC32A    HCL     1  0.189271432669  0.089736802707
 CC32A   HCP1     1  0.189271432669  0.089736802707
 CC32A  HCP1M     1  0.189271432669  0.089736802707
 CC32A   HCR1     1  0.240542653898  0.089736802707
 CC32A     HE     1  0.301123766731  0.061020452073
 CC32A    HE1     1  0.280633096214  0.073666921749
 CC32A    HE2     1  0.281523994932  0.067464972838
 CC32A   HEL1     1  0.280633096214  0.073666921749
 CC32A   HEL2     1  0.281523994932  0.067464972838
 CC32A    HF1     1  0.286869387241  0.070011711020
 CC32A    HF2     1  0.285087589805  0.072469005789
 CC32A   HG2P     1  0.274557166956  0.189623385225
 CC32A   HGA1     1  0.288651184677  0.088756043175
 CC32A   HGA2     1  0.288651184677  0.078275472531
 CC32A   HGA3     1  0.288651184677  0.064818249282
 CC32A   HGA4     1  0.280633096214  0.073666921749
 CC32A   HGA5     1  0.281523994932  0.067464972838
 CC32A   HGA6     1  0.286869387241  0.070011711020
 CC32A   HGA7     1  0.285087589805  0.072469005789
 CC32A HGAAM0     1  0.283305792369  0.070011711020
 CC32A HGAAM1     1  0.283305792369  0.070011711020
 CC32A HGAAM2     1  0.281523994932  0.083680000000
 CC32A   HGP1     1  0.189271432669  0.089736802707
 CC32A   HGP2     1  0.189271432669  0.089736802707
 CC32A   HGP3     1  0.209361198763  0.132309697301
 CC32A   HGP4     1  0.189271432669  0.089736802707
 CC32A   HGP5     1  0.231633666716  0.089736802707
 CC32A HGPAM1     1  0.247224394284  0.039692909190
 CC32A HGPAM2     1  0.247224394284  0.041840000000
 CC32A HGPAM3     1  0.246778944925  0.045833423612
 CC32A  HGR51     1  0.290272620344  0.072469005789
 CC32A  HGR52     1  0.249451641079  0.089736802707
 CC32A  HGR53     1  0.231633666716  0.089736802707
 CC32A  HGR61     1  0.290272620344  0.072469005789
 CC32A  HGR62     1  0.267269615442  0.089736802707
 CC32A  HGR63     1  0.249451641079  0.089736802707
 CC32A  HGR71     1  0.290272620344  0.072469005789
 CC32A     HL     1  0.231633666716  0.089736802707
 CC32A  HLGA1     1  0.288651184677  0.088756043175
 CC32A  HLGA2     1  0.288651184677  0.078275472531
 CC32A  HLGA3     1  0.288651184677  0.064818249282
 CC32A  HLGA4     1  0.280633096214  0.073666921749
 CC32A  HLGP1     1  0.189271432669  0.089736802707
 CC32A HLGR52     1  0.249451641079  0.089736802707
 CC32A HLGR61     1  0.290272620344  0.072469005789
 CC32A HLGR62     1  0.267269615442  0.089736802707
 CC32A    HN1     1  0.189271432669  0.089736802707
 CC32A    HN2     1  0.189271432669  0.089736802707
 CC32A    HN3     1  0.267269615442  0.089736802707
 CC32A   HN3B     1  0.249451641079  0.089736802707
 CC32A    HN4     1  0.189271432669  0.089736802707
 CC32A    HN5     1  0.189271432669  0.089736802707
 CC32A    HN6     1  0.286869387241  0.062058748940
 CC32A    HN7     1  0.286869387241  0.062058748940
 CC32A    HN8     1  0.288651184677  0.070011711020
 CC32A    HN9     1  0.288651184677  0.064818249282
 CC32A   HNE1     1  0.280633096214  0.073666921749
 CC32A   HNE2     1  0.281523994932  0.067464972838
 CC32A    HNP     1  0.290272620344  0.072469005789
 CC32A   HO3P     1  0.293168041178  0.170263611896
 CC32A    HOL     1  0.189271432669  0.089736802707
 CC32A     HP     1  0.290272620344  0.072469005789
 CC32A   HPER     1  0.189271432669  0.089736802707
 CC32A    HR1     1  0.249451641079  0.089736802707
 CC32A    HR2     1  0.231633666716  0.089736802707
 CC32A    HR3     1  0.300054688270  0.036952087465
 CC32A   HRA3     1  0.288651184677  0.064818249282
 CC32A   HRM1     1  0.247224394284  0.039692909190
 CC32A   HRM2     1  0.247224394284  0.041840000000
 CC32A   HRP2     1  0.189271432669  0.089736802707
 CC32A     HS     1  0.209361198763  0.132309697301
 CC32A   HSIA     1  0.286869387241  0.062058748940
 CC32A   HSIO     1  0.189271432669  0.089736802707
 CC32A     HT     1  0.189271432669  0.089736802707
 CC32A     HX     1  0.189271432669  0.089736802707
 CC32A   IGR1     1  0.368832069310  0.301712530731
 CC32A   IN3P     1  0.246449312399  0.160580590010
 CC32A   LA3P     1  0.327200372211  0.182184255566
 CC32A    LIT     1  0.284864865125  0.020196198771
 CC32A    LPH     1  0.169270756447  0.000000000000
 CC32A   LU3P     1  0.289648991242  0.166731218816
 CC32A     MG     1  0.274842254546  0.051243325419
 CC32A   MN2P     1  0.276508235149  0.171747976291
 CC32A   MN3P     1  0.203516903172  0.148045032716
 CC32A      N     1  0.334087019303  0.004184000000
 CC32A     NC     1  0.334087019303  0.324091246411
 CC32A    NC2     1  0.334087019303  0.187114168357
 CC32A  NC2D1     1  0.307360057758  0.187114168357
 CC32A  NC311     1  0.347450500075  0.088756043175
 CC32A   ND3P     1  0.313587439798  0.177117175768
 CC32A     NE     1  0.305578260322  0.122698965603
 CC32A  NG1T1     1  0.328741626994  0.177512086349
 CC32A  NG2D1     1  0.334087019303  0.187114168357
 CC32A  NG2O1     1  0.334087019303  0.187114168357
 CC32A  NG2P1     1  0.334087019303  0.187114168357
 CC32A NG2R43     1  0.334087019303  0.187114168357
 CC32A NG2R50     1  0.334087019303  0.187114168357
 CC32A NG2R51     1  0.334087019303  0.187114168357
 CC32A NG2R52     1  0.334087019303  0.187114168357
 CC32A NG2R53     1  0.334087019303  0.187114168357
 CC32A NG2R57     1  0.334087019303  0.187114168357
 CC32A NG2R60     1  0.337650614175  0.102486650838
 CC32A NG2R61     1  0.334087019303  0.187114168357
 CC32A NG2R62     1  0.352795892384  0.093557084179
 CC32A NG2R67     1  0.334087019303  0.187114168357
 CC32A NG2RC0     1  0.334087019303  0.187114168357
 CC32A  NG2S0     1  0.334087019303  0.004184000000
 CC32A  NG2S1     1  0.307360057758  0.187114168357
 CC32A  NG2S2     1  0.334087019303  0.187114168357
 CC32A  NG2S3     1  0.334087019303  0.187114168357
 CC32A  NG301     1  0.347450500075  0.078275472531
 CC32A  NG311     1  0.347450500075  0.088756043175
 CC32A  NG321     1  0.346559601357  0.102486650838
 CC32A  NG331     1  0.345668702638  0.110698234855
 CC32A NG3C51     1  0.334087019303  0.187114168357
 CC32A  NG3N1     1  0.351904993665  0.102486650838
 CC32A  NG3P0     1  0.334087019303  0.187114168357
 CC32A  NG3P1     1  0.334087019303  0.187114168357
 CC32A  NG3P2     1  0.334087019303  0.187114168357
 CC32A  NG3P3     1  0.334087019303  0.187114168357
 CC32A    NH1     1  0.307360057758  0.187114168357
 CC32A    NH2     1  0.334087019303  0.187114168357
 CC32A    NH3     1  0.334087019303  0.187114168357
 CC32A   NH3L     1  0.334087019303  0.187114168357
 CC32A    NHL     1  0.307360057758  0.187114168357
 CC32A     NI     1  0.282949432881  0.994525446633
 CC32A   NI2P     1  0.238787583423  0.158440517242
 CC32A    NN1     1  0.334087019303  0.187114168357
 CC32A   NN1C     1  0.334087019303  0.187114168357
 CC32A    NN2     1  0.334087019303  0.187114168357
 CC32A   NN2B     1  0.334087019303  0.187114168357
 CC32A   NN2C     1  0.334087019303  0.187114168357
 CC32A   NN2G     1  0.334087019303  0.187114168357
 CC32A   NN2U     1  0.334087019303  0.187114168357
 CC32A    NN3     1  0.334087019303  0.187114168357
 CC32A   NN3A     1  0.334087019303  0.187114168357
 CC32A   NN3G     1  0.334087019303  0.187114168357
 CC32A   NN3I     1  0.334087019303  0.187114168357
 CC32A    NN4     1  0.334087019303  0.187114168357
 CC32A    NN6     1  0.334087019303  0.187114168357
 CC32A    NNG     1  0.334087019303  0.187114168357
 CC32A     NP     1  0.334087019303  0.187114168357
 CC32A    NPH     1  0.334087019303  0.187114168357
 CC32A    NR1     1  0.334087019303  0.187114168357
 CC32A    NR2     1  0.334087019303  0.187114168357
 CC32A    NR3     1  0.334087019303  0.187114168357
 CC32A   NRC4     1  0.334087019303  0.187114168357
 CC32A   NRN1     1  0.347450500075  0.280671252536
 CC32A   NRN2     1  0.346559601357  0.102486650838
 CC32A    NS1     1  0.334087019303  0.187114168357
 CC32A    NS2     1  0.334087019303  0.187114168357
 CC32A    NTL     1  0.334087019303  0.187114168357
 CC32A     NY     1  0.334087019303  0.187114168357
 CC32A      O     1  0.293996576986  0.144938011577
 CC32A    O2L     1  0.320723538531  0.144938011577
 CC32A    OAL     1  0.326959829558  0.163176000000
 CC32A     OB     1  0.293996576986  0.144938011577
 CC32A    OBL     1  0.293996576986  0.144938011577
 CC32A     OC     1  0.320723538531  0.144938011577
 CC32A  OC2D1     1  0.293996576986  0.144938011577
 CC32A  OC2D2     1  0.320723538531  0.144938011577
 CC32A  OC2D3     1  0.293996576986  0.144938011577
 CC32A  OC2D4     1  0.293996576986  0.144938011577
 CC32A  OC2DP     1  0.320723538531  0.144938011577
 CC32A  OC301     1  0.316269044940  0.132309697301
 CC32A  OC302     1  0.316269044940  0.132309697301
 CC32A  OC303     1  0.316269044940  0.132309697301
 CC32A OC305A     1  0.316269044940  0.132309697301
 CC32A  OC30A     1  0.316269044940  0.132309697301
 CC32A  OC30P     1  0.326959829558  0.163176000000
 CC32A  OC311     1  0.326514380198  0.183381431383
 CC32A OC311M     1  0.326514380198  0.183381431383
 CC32A  OC312     1  0.326959829558  0.163176000000
 CC32A OC3C51     1  0.316269044940  0.132309697301
 CC32A OC3C5M     1  0.316269044940  0.132309697301
 CC32A OC3C61     1  0.316269044940  0.132309697301
 CC32A    OCA     1  0.293996576986  0.144938011577
 CC32A    OCL     1  0.320723538531  0.144938011577
 CC32A  OG2D1     1  0.293996576986  0.144938011577
 CC32A  OG2D2     1  0.320723538531  0.144938011577
 CC32A  OG2D3     1  0.293996576986  0.144938011577
 CC32A  OG2D4     1  0.320723538531  0.144938011577
 CC32A  OG2D5     1  0.320010819556  0.169954883425
 CC32A  OG2N1     1  0.320723538531  0.144938011577
 CC32A  OG2P1     1  0.320723538531  0.144938011577
 CC32A OG2R50     1  0.320723538531  0.144938011577
 CC32A  OG2S1     1  0.318906105146  0.157831660601
 CC32A  OG301     1  0.316269044940  0.132309697301
 CC32A  OG302     1  0.316269044940  0.132309697301
 CC32A  OG303     1  0.316269044940  0.132309697301
 CC32A  OG304     1  0.316269044940  0.132309697301
 CC32A  OG311     1  0.326514380198  0.183381431383
 CC32A  OG312     1  0.325178032121  0.144938011577
 CC32A OG3C31     1  0.316269044940  0.132309697301
 CC32A OG3C51     1  0.316269044940  0.132309697301
 CC32A OG3C61     1  0.316269044940  0.132309697301
 CC32A OG3R60     1  0.316269044940  0.132309697301
 CC32A    OH1     1  0.326959829558  0.163176000000
 CC32A    OHL     1  0.326959829558  0.163176000000
 CC32A   OLG1     1  0.293996576986  0.144938011577
 CC32A   OLG2     1  0.320723538531  0.144938011577
 CC32A   OLG3     1  0.320723538531  0.144938011577
 CC32A   OLG4     1  0.316269044940  0.132309697301
 CC32A   OLG5     1  0.316269044940  0.132309697301
 CC32A   OLG6     1  0.326514380198  0.183381431383
 CC32A   OLG7     1  0.316269044940  0.132309697301
 CC32A   OLG8     1  0.316269044940  0.132309697301
 CC32A     OM     1  0.320723538531  0.144938011577
 CC32A    ON1     1  0.320723538531  0.144938011577
 CC32A   ON1C     1  0.320723538531  0.144938011577
 CC32A    ON2     1  0.326959829558  0.163176000000
 CC32A   ON2B     1  0.326959829558  0.163176000000
 CC32A   ON2M     1  0.316269044940  0.132309697301
 CC32A    ON3     1  0.320723538531  0.144938011577
 CC32A    ON4     1  0.326959829558  0.163176000000
 CC32A    ON5     1  0.326959829558  0.163176000000
 CC32A    ON6     1  0.326959829558  0.163176000000
 CC32A   ON6B     1  0.326959829558  0.163176000000
 CC32A   OPER     1  0.318427692534  0.188901923946
 CC32A     OS     1  0.326959829558  0.163176000000
 CC32A   OSIA     1  0.326959829558  0.163176000000
 CC32A   OSIE     1  0.326959829558  0.163176000000
 CC32A   OSIH     1  0.326959829558  0.163176000000
 CC32A    OSL     1  0.316269044940  0.132309697301
 CC32A   OSLP     1  0.316269044940  0.132309697301
 CC32A    OST     1  0.320010819556  0.169954883425
 CC32A     OT     1  0.326799467788  0.163176000000
 CC32A     OX     1  0.320723538531  0.144938011577
 CC32A      P     1  0.360813980847  0.320014464673
 CC32A     P2     1  0.360813980847  0.320014464673
 CC32A     P3     1  0.360813980847  0.320014464673
 CC32A     P4     1  0.360813980847  0.320014464673
 CC32A     PB     1  0.328073452955  0.716185437439
 CC32A   PB2P     1  0.325890751096  0.204716924713
 CC32A     PC     1  0.360813980847  0.320014464673
 CC32A     PD     1  0.294842930769  1.037598257516
 CC32A   PD2P     1  0.251865976605  0.174628752363
 CC32A    PG0     1  0.360813980847  0.320014464673
 CC32A    PG1     1  0.360813980847  0.320014464673
 CC32A    PG2     1  0.360813980847  0.320014464673
 CC32A     PL     1  0.360813980847  0.320014464673
 CC32A   PM3P     1  0.316910492017  0.176275053255
 CC32A    POT     1  0.326403017859  0.123410269913
 CC32A   PR3P     1  0.317079762773  0.178642591472
 CC32A     PT     1  0.296001099102  1.168527606863
 CC32A   PT2P     1  0.240284293270  0.168973521997
 CC32A   PU3P     1  0.318024115415  0.179522368790
 CC32A   RA2P     1  0.355459679551  0.229891668540
 CC32A   RH3P     1  0.210367914314  0.149983415617
 CC32A    RUB     1  0.338541512893  0.162045623205
 CC32A      S     1  0.347450500075  0.280671252536
 CC32A     SC     1  0.356359487256  0.286840588481
 CC32A   SC3P     1  0.266993436839  0.157109060719
 CC32A  SEGD1     1  0.363041227642  0.330244580395
 CC32A  SG2D1     1  0.351904993665  0.314496560236
 CC32A  SG2P1     1  0.355798221064  0.332305491450
 CC32A  SG2P2     1  0.352314807076  0.329421919951
 CC32A SG2R50     1  0.347450500075  0.280671252536
 CC32A  SG301     1  0.345223253279  0.257919081884
 CC32A  SG302     1  0.365268474438  0.286840588481
 CC32A  SG311     1  0.347450500075  0.280671252536
 CC32A  SG3O1     1  0.356359487256  0.286840588481
 CC32A  SG3O2     1  0.347450500075  0.247528778125
 CC32A  SG3O3     1  0.347450500075  0.247528778125
 CC32A     SI     1  0.365268474438  0.324091246411
 CC32A   SIH3     1  0.365268474438  0.324091246411
 CC32A     SL     1  0.356359487256  0.286840588481
 CC32A     SM     1  0.345223253279  0.257919081884
 CC32A   SM2P     1  0.334666103469  0.207012887251
 CC32A   SM3P     1  0.308847858618  0.175378986746
 CC32A   SN2P     1  0.316981763914  0.181365662197
 CC32A    SOD     1  0.294954293108  0.090610410351
 CC32A     SP     1  0.365268474438  0.280671252536
 CC32A   SR2P     1  0.334612649546  0.200133451797
 CC32A     SS     1  0.365268474438  0.286840588481
 CC32A   TB3P     1  0.300678317372  0.172155203837
 CC32A   TI1P     1  0.341276571958  0.266826378666
 CC32A   TI3P     1  0.243117351193  0.149983415617
 CC32A   TL3P     1  0.246716582015  0.168869889039
 CC32A   TM3P     1  0.289417357575  0.168402751521
 CC32A    U3P     1  0.320830446377  0.182184255566
 CC32A    V2P     1  0.267599247968  0.167830039933
 CC32A    V3P     1  0.223989755715  0.147096016316
 CC32A    Y3P     1  0.295190381269  0.170263611896
 CC32A   YB2P     1  0.312616360195  0.189623385225
 CC32A   YB3P     1  0.284659958420  0.167569069413
 CC32A     ZN     1  0.266378716724  0.209200000000
 CC331  CC331     1  0.338541512893  0.041840000000
 CC331  CC33A     1  0.338541512893  0.041840000000
 CC331    CCL     1  0.347450500075  0.110698234855
 CC331     CD     1  0.347450500075  0.110698234855
 CC331    CE1     1  0.355468588538  0.109105371453
 CC331    CE2     1  0.354577689820  0.105847757841
 CC331   CE3P     1  0.321748072056  0.179522368790
 CC331   CEL1     1  0.355468588538  0.109105371453
 CC331   CEL2     1  0.354577689820  0.105847757841
 CC331   CEL3     1  0.355468588538  0.109105371453
 CC331    CES     1  0.356359487256  0.182376331798
 CC331    CF1     1  0.338541512893  0.102486650838
 CC331    CF2     1  0.351904993665  0.085746484010
 CC331    CF3     1  0.374177461619  0.059170695450
 CC331  CG1N1     1  0.335868816739  0.177512086349
 CC331  CG1T1     1  0.333196120584  0.170981810495
 CC331  CG1T2     1  0.346782326036  0.134409982486
 CC331 CG251O     1  0.355468588538  0.109105371453
 CC331 CG252O     1  0.355468588538  0.109105371453
 CC331 CG25C1     1  0.355468588538  0.109105371453
 CC331 CG25C2     1  0.355468588538  0.109105371453
 CC331  CG2D1     1  0.355468588538  0.109105371453
 CC331 CG2D1O     1  0.355468588538  0.109105371453
 CC331  CG2D2     1  0.354577689820  0.105847757841
 CC331 CG2D2O     1  0.355468588538  0.109105371453
 CC331 CG2DC1     1  0.355468588538  0.109105371453
 CC331 CG2DC2     1  0.355468588538  0.109105371453
 CC331 CG2DC3     1  0.354577689820  0.105847757841
 CC331  CG2N1     1  0.347450500075  0.138767581228
 CC331  CG2N2     1  0.347450500075  0.138767581228
 CC331  CG2O1     1  0.347450500075  0.138767581228
 CC331  CG2O2     1  0.320723538531  0.130979917850
 CC331  CG2O3     1  0.347450500075  0.110698234855
 CC331  CG2O4     1  0.329632525712  0.102486650838
 CC331  CG2O5     1  0.347450500075  0.125520000000
 CC331  CG2O6     1  0.347450500075  0.110698234855
 CC331  CG2O7     1  0.308518226092  0.100764063435
 CC331 CG2R51     1  0.356359487256  0.093557084179
 CC331 CG2R52     1  0.365268474438  0.059170695450
 CC331 CG2R53     1  0.365268474438  0.059170695450
 CC331 CG2R57     1  0.356359487256  0.093557084179
 CC331 CG2R61     1  0.346773417049  0.110698234855
 CC331 CG2R62     1  0.338541512893  0.125520000000
 CC331 CG2R63     1  0.338541512893  0.132309697301
 CC331 CG2R64     1  0.356359487256  0.083680000000
 CC331 CG2R66     1  0.338541512893  0.110698234855
 CC331 CG2R67     1  0.346773417049  0.110698234855
 CC331 CG2R71     1  0.346987232741  0.108300154755
 CC331 CG2RC0     1  0.334977918021  0.131646486622
 CC331 CG2RC7     1  0.334977918021  0.131646486622
 CC331  CG301     1  0.338541512893  0.041840000000
 CC331  CG302     1  0.374177461619  0.059170695450
 CC331  CG311     1  0.338541512893  0.041840000000
 CC331  CG312     1  0.351904993665  0.085746484010
 CC331  CG314     1  0.338541512893  0.041840000000
 CC331  CG321     1  0.338541512893  0.041840000000
 CC331  CG322     1  0.338541512893  0.102486650838
 CC331  CG323     1  0.365268474438  0.138767581228
 CC331  CG324     1  0.338541512893  0.041840000000
 CC331  CG331     1  0.338541512893  0.041840000000
 CC331  CG334     1  0.338541512893  0.041840000000
 CC331 CG3AM0     1  0.344777803920  0.110698234855
 CC331 CG3AM1     1  0.345668702638  0.116852760686
 CC331 CG3AM2     1  0.346559601357  0.118341390899
 CC331 CG3C31     1  0.338541512893  0.041840000000
 CC331 CG3C41     1  0.338541512893  0.041840000000
 CC331 CG3C50     1  0.338541512893  0.041840000000
 CC331 CG3C51     1  0.338541512893  0.041840000000
 CC331 CG3C52     1  0.338541512893  0.041840000000
 CC331 CG3C53     1  0.338541512893  0.041840000000
 CC331 CG3C54     1  0.338541512893  0.041840000000
 CC331 CG3RC1     1  0.338541512893  0.041840000000
 CC331     CL     1  0.347450500075  0.110698234855
 CC331    CLA     1  0.371504765465  0.162045623205
 CC331   CLAL     1  0.339272049842  0.072469005789
 CC331  CLG01     1  0.355468588538  0.109105371453
 CC331  CLG02     1  0.355468588538  0.109105371453
 CC331  CLG03     1  0.320723538531  0.130979917850
 CC331  CLG04     1  0.347450500075  0.110698234855
 CC331  CLG05     1  0.329632525712  0.102486650838
 CC331  CLG06     1  0.346773417049  0.110698234855
 CC331 CLG06A     1  0.346773417049  0.110698234855
 CC331 CLG06B     1  0.346773417049  0.110698234855
 CC331  CLG07     1  0.338541512893  0.125520000000
 CC331  CLG08     1  0.338541512893  0.132309697301
 CC331  CLG09     1  0.346773417049  0.110698234855
 CC331  CLG10     1  0.334977918021  0.131646486622
 CC331  CLG11     1  0.338541512893  0.041840000000
 CC331  CLG12     1  0.338541512893  0.041840000000
 CC331  CLG13     1  0.338541512893  0.041840000000
 CC331  CLG14     1  0.338541512893  0.041840000000
 CC331  CLG15     1  0.338541512893  0.041840000000
 CC331  CLG16     1  0.338541512893  0.041840000000
 CC331  CLGA1     1  0.339432411611  0.245040988571
 CC331  CLGA3     1  0.339432411611  0.232955260941
 CC331  CLGR1     1  0.334977918021  0.200657590935
 CC331     CM     1  0.356359487256  0.138767581228
 CC331     CN     1  0.325178032121  0.187114168357
 CC331    CN1     1  0.338541512893  0.132309697301
 CC331   CN1A     1  0.347450500075  0.110698234855
 CC331   CN1T     1  0.338541512893  0.132309697301
 CC331    CN2     1  0.338541512893  0.132309697301
 CC331    CN3     1  0.338541512893  0.125520000000
 CC331   CN3A     1  0.329632525712  0.177512086349
 CC331   CN3B     1  0.329632525712  0.177512086349
 CC331   CN3C     1  0.329632525712  0.177512086349
 CC331   CN3D     1  0.338541512893  0.125520000000
 CC331   CN3T     1  0.338541512893  0.125520000000
 CC331    CN4     1  0.338541512893  0.114583559030
 CC331    CN5     1  0.338541512893  0.114583559030
 CC331   CN5G     1  0.338541512893  0.114583559030
 CC331    CN6     1  0.338541512893  0.041840000000
 CC331    CN7     1  0.338541512893  0.041840000000
 CC331   CN7B     1  0.338541512893  0.041840000000
 CC331   CN7E     1  0.338541512893  0.041840000000
 CC331    CN8     1  0.338541512893  0.041840000000
 CC331   CN8B     1  0.338541512893  0.041840000000
 CC331    CN9     1  0.338541512893  0.041840000000
 CC331    CNA     1  0.346773417049  0.110698234855
 CC331   CNA2     1  0.338541512893  0.110698234855
 CC331   CNE1     1  0.355468588538  0.109105371453
 CC331   CNE2     1  0.354577689820  0.105847757841
 CC331    CNG     1  0.347450500075  0.138767581228
 CC331   CO2P     1  0.251910521541  0.164138698618
 CC331   CO3P     1  0.192264852362  0.144393471099
 CC331    COA     1  0.347450500075  0.138767581228
 CC331    CP1     1  0.338541512893  0.041840000000
 CC331    CP2     1  0.338541512893  0.041840000000
 CC331    CP3     1  0.338541512893  0.041840000000
 CC331    CPA     1  0.329632525712  0.125520000000
 CC331    CPB     1  0.329632525712  0.125520000000
 CC331   CPD1     1  0.338541512893  0.041840000000
 CC331   CPH1     1  0.329632525712  0.093557084179
 CC331   CPH2     1  0.329632525712  0.093557084179
 CC331    CPM     1  0.329632525712  0.125520000000
 CC331    CPT     1  0.334977918021  0.131646486622
 CC331   CR2P     1  0.263634748672  0.170828164985
 CC331   CR33     1  0.338541512893  0.041840000000
 CC331   CR3P     1  0.244382427373  0.145299904804
 CC331   CRL1     1  0.338541512893  0.041840000000
 CC331   CRL2     1  0.338541512893  0.041840000000
 CC331   CRN1     1  0.347450500075  0.138767581228
 CC331     CS     1  0.365268474438  0.138767581228
 CC331    CST     1  0.308518226092  0.100764063435
 CC331     CT     1  0.338541512893  0.041840000000
 CC331    CT1     1  0.338541512893  0.041840000000
 CC331   CT1X     1  0.338541512893  0.041840000000
 CC331    CT2     1  0.338541512893  0.041840000000
 CC331   CT2A     1  0.338541512893  0.041840000000
 CC331   CT2P     1  0.338541512893  0.041840000000
 CC331   CT2X     1  0.338541512893  0.041840000000
 CC331    CT3     1  0.338541512893  0.041840000000
 CC331   CT3X     1  0.338541512893  0.041840000000
 CC331   CTD1     1  0.338541512893  0.041840000000
 CC331   CTL1     1  0.338541512893  0.041840000000
 CC331   CTL2     1  0.338541512893  0.041840000000
 CC331   CTL3     1  0.338541512893  0.041840000000
 CC331   CTL5     1  0.338541512893  0.041840000000
 CC331   CTO1     1  0.338541512893  0.041840000000
 CC331   CTO2     1  0.338541512893  0.041840000000
 CC331     CU     1  0.285800308779  0.908997471504
 CC331   CU1P     1  0.246066225950  0.180057894334
 CC331   CU2P     1  0.233869822499  0.162315474555
 CC331     CY     1  0.346559601357  0.113045454929
 CC331    DUM     1  0.169270756447  0.000000000000
 CC331   DY3P     1  0.297952167295  0.171135318061
 CC331   ER3P     1  0.291083338178  0.169232326746
 CC331   EU2P     1  0.333231756533  0.203602227414
 CC331   EU3P     1  0.304954631219  0.174528477447
 CC331     F1     1  0.314487247504  0.153729976257
 CC331     F2     1  0.314487247504  0.135577095411
 CC331     F3     1  0.311814551349  0.130309939452
 CC331     FA     1  0.320723538531  0.144938011577
 CC331     FE     1  0.227179173126  0.000000000000
 CC331   FE2P     1  0.265496726993  0.167098295383
 CC331   FE3P     1  0.219722350855  0.148045032716
 CC331   FGA1     1  0.314487247504  0.153729976257
 CC331   FGA2     1  0.314487247504  0.135577095411
 CC331   FGA3     1  0.311814551349  0.130309939452
 CC331   FGP1     1  0.311814551349  0.130309939452
 CC331   FGR1     1  0.320723538531  0.144938011577
 CC331    FNA     1  0.320723538531  0.144938011577
 CC331   GA3P     1  0.189485248361  0.145299904804
 CC331   GD3P     1  0.303351013527  0.173673803114
 CC331      H     1  0.189271432669  0.089736802707
 CC331     HA     1  0.286869387241  0.062058748940
 CC331    HA1     1  0.288651184677  0.088756043175
 CC331    HA2     1  0.288651184677  0.077149148019
 CC331    HA3     1  0.288651184677  0.064818249282
 CC331    HAL     1  0.286869387241  0.062058748940
 CC331   HAL1     1  0.286869387241  0.062058748940
 CC331   HAL2     1  0.288651184677  0.070011711020
 CC331   HAL3     1  0.288651184677  0.064818249282
 CC331     HB     1  0.286869387241  0.062058748940
 CC331    HB1     1  0.286869387241  0.062058748940
 CC331    HB2     1  0.288651184677  0.070011711020
 CC331    HBL     1  0.286869387241  0.062058748940
 CC331     HC     1  0.189271432669  0.089736802707
 CC331   HCA1     1  0.288651184677  0.088756043175
 CC331  HCA1A     1  0.288651184677  0.088756043175
 CC331 HCA1C2     1  0.288651184677  0.088756043175
 CC331   HCA2     1  0.288651184677  0.078275472531
 CC331 HCA25A     1  0.285087589805  0.078275472531
 CC331  HCA2A     1  0.288651184677  0.078275472531
 CC331 HCA2C2     1  0.285087589805  0.078275472531
 CC331   HCA3     1  0.288651184677  0.064818249282
 CC331  HCA3A     1  0.288651184677  0.064818249282
 CC331  HCA3M     1  0.288651184677  0.064818249282
 CC331    HCL     1  0.189271432669  0.089736802707
 CC331   HCP1     1  0.189271432669  0.089736802707
 CC331  HCP1M     1  0.189271432669  0.089736802707
 CC331   HCR1     1  0.240542653898  0.089736802707
 CC331     HE     1  0.301123766731  0.061020452073
 CC331    HE1     1  0.280633096214  0.073666921749
 CC331    HE2     1  0.281523994932  0.067464972838
 CC331   HEL1     1  0.280633096214  0.073666921749
 CC331   HEL2     1  0.281523994932  0.067464972838
 CC331    HF1     1  0.286869387241  0.070011711020
 CC331    HF2     1  0.285087589805  0.072469005789
 CC331   HG2P     1  0.274557166956  0.189623385225
 CC331   HGA1     1  0.288651184677  0.088756043175
 CC331   HGA2     1  0.288651184677  0.078275472531
 CC331   HGA3     1  0.288651184677  0.064818249282
 CC331   HGA4     1  0.280633096214  0.073666921749
 CC331   HGA5     1  0.281523994932  0.067464972838
 CC331   HGA6     1  0.286869387241  0.070011711020
 CC331   HGA7     1  0.285087589805  0.072469005789
 CC331 HGAAM0     1  0.283305792369  0.070011711020
 CC331 HGAAM1     1  0.283305792369  0.070011711020
 CC331 HGAAM2     1  0.281523994932  0.083680000000
 CC331   HGP1     1  0.189271432669  0.089736802707
 CC331   HGP2     1  0.189271432669  0.089736802707
 CC331   HGP3     1  0.209361198763  0.132309697301
 CC331   HGP4     1  0.189271432669  0.089736802707
 CC331   HGP5     1  0.231633666716  0.089736802707
 CC331 HGPAM1     1  0.247224394284  0.039692909190
 CC331 HGPAM2     1  0.247224394284  0.041840000000
 CC331 HGPAM3     1  0.246778944925  0.045833423612
 CC331  HGR51     1  0.290272620344  0.072469005789
 CC331  HGR52     1  0.249451641079  0.089736802707
 CC331  HGR53     1  0.231633666716  0.089736802707
 CC331  HGR61     1  0.290272620344  0.072469005789
 CC331  HGR62     1  0.267269615442  0.089736802707
 CC331  HGR63     1  0.249451641079  0.089736802707
 CC331  HGR71     1  0.290272620344  0.072469005789
 CC331     HL     1  0.231633666716  0.089736802707
 CC331  HLGA1     1  0.288651184677  0.088756043175
 CC331  HLGA2     1  0.288651184677  0.078275472531
 CC331  HLGA3     1  0.288651184677  0.064818249282
 CC331  HLGA4     1  0.280633096214  0.073666921749
 CC331  HLGP1     1  0.189271432669  0.089736802707
 CC331 HLGR52     1  0.249451641079  0.089736802707
 CC331 HLGR61     1  0.290272620344  0.072469005789
 CC331 HLGR62     1  0.267269615442  0.089736802707
 CC331    HN1     1  0.189271432669  0.089736802707
 CC331    HN2     1  0.189271432669  0.089736802707
 CC331    HN3     1  0.267269615442  0.089736802707
 CC331   HN3B     1  0.249451641079  0.089736802707
 CC331    HN4     1  0.189271432669  0.089736802707
 CC331    HN5     1  0.189271432669  0.089736802707
 CC331    HN6     1  0.286869387241  0.062058748940
 CC331    HN7     1  0.286869387241  0.062058748940
 CC331    HN8     1  0.288651184677  0.070011711020
 CC331    HN9     1  0.288651184677  0.064818249282
 CC331   HNE1     1  0.280633096214  0.073666921749
 CC331   HNE2     1  0.281523994932  0.067464972838
 CC331    HNP     1  0.290272620344  0.072469005789
 CC331   HO3P     1  0.293168041178  0.170263611896
 CC331    HOL     1  0.189271432669  0.089736802707
 CC331     HP     1  0.290272620344  0.072469005789
 CC331   HPER     1  0.189271432669  0.089736802707
 CC331    HR1     1  0.249451641079  0.089736802707
 CC331    HR2     1  0.231633666716  0.089736802707
 CC331    HR3     1  0.300054688270  0.036952087465
 CC331   HRA3     1  0.288651184677  0.064818249282
 CC331   HRM1     1  0.247224394284  0.039692909190
 CC331   HRM2     1  0.247224394284  0.041840000000
 CC331   HRP2     1  0.189271432669  0.089736802707
 CC331     HS     1  0.209361198763  0.132309697301
 CC331   HSIA     1  0.286869387241  0.062058748940
 CC331   HSIO     1  0.189271432669  0.089736802707
 CC331     HT     1  0.189271432669  0.089736802707
 CC331     HX     1  0.189271432669  0.089736802707
 CC331   IGR1     1  0.368832069310  0.301712530731
 CC331   IN3P     1  0.246449312399  0.160580590010
 CC331   LA3P     1  0.327200372211  0.182184255566
 CC331    LIT     1  0.284864865125  0.020196198771
 CC331    LPH     1  0.169270756447  0.000000000000
 CC331   LU3P     1  0.289648991242  0.166731218816
 CC331     MG     1  0.274842254546  0.051243325419
 CC331   MN2P     1  0.276508235149  0.171747976291
 CC331   MN3P     1  0.203516903172  0.148045032716
 CC331      N     1  0.334087019303  0.004184000000
 CC331     NC     1  0.334087019303  0.324091246411
 CC331    NC2     1  0.334087019303  0.187114168357
 CC331  NC2D1     1  0.307360057758  0.187114168357
 CC331  NC311     1  0.347450500075  0.088756043175
 CC331   ND3P     1  0.313587439798  0.177117175768
 CC331     NE     1  0.305578260322  0.122698965603
 CC331  NG1T1     1  0.328741626994  0.177512086349
 CC331  NG2D1     1  0.334087019303  0.187114168357
 CC331  NG2O1     1  0.334087019303  0.187114168357
 CC331  NG2P1     1  0.334087019303  0.187114168357
 CC331 NG2R43     1  0.334087019303  0.187114168357
 CC331 NG2R50     1  0.334087019303  0.187114168357
 CC331 NG2R51     1  0.334087019303  0.187114168357
 CC331 NG2R52     1  0.334087019303  0.187114168357
 CC331 NG2R53     1  0.334087019303  0.187114168357
 CC331 NG2R57     1  0.334087019303  0.187114168357
 CC331 NG2R60     1  0.337650614175  0.102486650838
 CC331 NG2R61     1  0.334087019303  0.187114168357
 CC331 NG2R62     1  0.352795892384  0.093557084179
 CC331 NG2R67     1  0.334087019303  0.187114168357
 CC331 NG2RC0     1  0.334087019303  0.187114168357
 CC331  NG2S0     1  0.334087019303  0.004184000000
 CC331  NG2S1     1  0.307360057758  0.187114168357
 CC331  NG2S2     1  0.334087019303  0.187114168357
 CC331  NG2S3     1  0.334087019303  0.187114168357
 CC331  NG301     1  0.347450500075  0.078275472531
 CC331  NG311     1  0.347450500075  0.088756043175
 CC331  NG321     1  0.346559601357  0.102486650838
 CC331  NG331     1  0.345668702638  0.110698234855
 CC331 NG3C51     1  0.334087019303  0.187114168357
 CC331  NG3N1     1  0.351904993665  0.102486650838
 CC331  NG3P0     1  0.334087019303  0.187114168357
 CC331  NG3P1     1  0.334087019303  0.187114168357
 CC331  NG3P2     1  0.334087019303  0.187114168357
 CC331  NG3P3     1  0.334087019303  0.187114168357
 CC331    NH1     1  0.307360057758  0.187114168357
 CC331    NH2     1  0.334087019303  0.187114168357
 CC331    NH3     1  0.334087019303  0.187114168357
 CC331   NH3L     1  0.334087019303  0.187114168357
 CC331    NHL     1  0.307360057758  0.187114168357
 CC331     NI     1  0.282949432881  0.994525446633
 CC331   NI2P     1  0.238787583423  0.158440517242
 CC331    NN1     1  0.334087019303  0.187114168357
 CC331   NN1C     1  0.334087019303  0.187114168357
 CC331    NN2     1  0.334087019303  0.187114168357
 CC331   NN2B     1  0.334087019303  0.187114168357
 CC331   NN2C     1  0.334087019303  0.187114168357
 CC331   NN2G     1  0.334087019303  0.187114168357
 CC331   NN2U     1  0.334087019303  0.187114168357
 CC331    NN3     1  0.334087019303  0.187114168357
 CC331   NN3A     1  0.334087019303  0.187114168357
 CC331   NN3G     1  0.334087019303  0.187114168357
 CC331   NN3I     1  0.334087019303  0.187114168357
 CC331    NN4     1  0.334087019303  0.187114168357
 CC331    NN6     1  0.334087019303  0.187114168357
 CC331    NNG     1  0.334087019303  0.187114168357
 CC331     NP     1  0.334087019303  0.187114168357
 CC331    NPH     1  0.334087019303  0.187114168357
 CC331    NR1     1  0.334087019303  0.187114168357
 CC331    NR2     1  0.334087019303  0.187114168357
 CC331    NR3     1  0.334087019303  0.187114168357
 CC331   NRC4     1  0.334087019303  0.187114168357
 CC331   NRN1     1  0.347450500075  0.280671252536
 CC331   NRN2     1  0.346559601357  0.102486650838
 CC331    NS1     1  0.334087019303  0.187114168357
 CC331    NS2     1  0.334087019303  0.187114168357
 CC331    NTL     1  0.334087019303  0.187114168357
 CC331     NY     1  0.334087019303  0.187114168357
 CC331      O     1  0.293996576986  0.144938011577
 CC331    O2L     1  0.320723538531  0.144938011577
 CC331    OAL     1  0.326959829558  0.163176000000
 CC331     OB     1  0.293996576986  0.144938011577
 CC331    OBL     1  0.293996576986  0.144938011577
 CC331     OC     1  0.320723538531  0.144938011577
 CC331  OC2D1     1  0.293996576986  0.144938011577
 CC331  OC2D2     1  0.320723538531  0.144938011577
 CC331  OC2D3     1  0.293996576986  0.144938011577
 CC331  OC2D4     1  0.293996576986  0.144938011577
 CC331  OC2DP     1  0.320723538531  0.144938011577
 CC331  OC301     1  0.316269044940  0.132309697301
 CC331  OC302     1  0.316269044940  0.132309697301
 CC331  OC303     1  0.316269044940  0.132309697301
 CC331 OC305A     1  0.316269044940  0.132309697301
 CC331  OC30A     1  0.316269044940  0.132309697301
 CC331  OC30P     1  0.326959829558  0.163176000000
 CC331  OC311     1  0.326514380198  0.183381431383
 CC331 OC311M     1  0.326514380198  0.183381431383
 CC331  OC312     1  0.326959829558  0.163176000000
 CC331 OC3C51     1  0.316269044940  0.132309697301
 CC331 OC3C5M     1  0.316269044940  0.132309697301
 CC331 OC3C61     1  0.316269044940  0.132309697301
 CC331    OCA     1  0.293996576986  0.144938011577
 CC331    OCL     1  0.320723538531  0.144938011577
 CC331  OG2D1     1  0.293996576986  0.144938011577
 CC331  OG2D2     1  0.320723538531  0.144938011577
 CC331  OG2D3     1  0.293996576986  0.144938011577
 CC331  OG2D4     1  0.320723538531  0.144938011577
 CC331  OG2D5     1  0.320010819556  0.169954883425
 CC331  OG2N1     1  0.320723538531  0.144938011577
 CC331  OG2P1     1  0.320723538531  0.144938011577
 CC331 OG2R50     1  0.320723538531  0.144938011577
 CC331  OG2S1     1  0.318906105146  0.157831660601
 CC331  OG301     1  0.316269044940  0.132309697301
 CC331  OG302     1  0.316269044940  0.132309697301
 CC331  OG303     1  0.316269044940  0.132309697301
 CC331  OG304     1  0.316269044940  0.132309697301
 CC331  OG311     1  0.326514380198  0.183381431383
 CC331  OG312     1  0.325178032121  0.144938011577
 CC331 OG3C31     1  0.316269044940  0.132309697301
 CC331 OG3C51     1  0.316269044940  0.132309697301
 CC331 OG3C61     1  0.316269044940  0.132309697301
 CC331 OG3R60     1  0.316269044940  0.132309697301
 CC331    OH1     1  0.326959829558  0.163176000000
 CC331    OHL     1  0.326959829558  0.163176000000
 CC331   OLG1     1  0.293996576986  0.144938011577
 CC331   OLG2     1  0.320723538531  0.144938011577
 CC331   OLG3     1  0.320723538531  0.144938011577
 CC331   OLG4     1  0.316269044940  0.132309697301
 CC331   OLG5     1  0.316269044940  0.132309697301
 CC331   OLG6     1  0.326514380198  0.183381431383
 CC331   OLG7     1  0.316269044940  0.132309697301
 CC331   OLG8     1  0.316269044940  0.132309697301
 CC331     OM     1  0.320723538531  0.144938011577
 CC331    ON1     1  0.320723538531  0.144938011577
 CC331   ON1C     1  0.320723538531  0.144938011577
 CC331    ON2     1  0.326959829558  0.163176000000
 CC331   ON2B     1  0.326959829558  0.163176000000
 CC331   ON2M     1  0.316269044940  0.132309697301
 CC331    ON3     1  0.320723538531  0.144938011577
 CC331    ON4     1  0.326959829558  0.163176000000
 CC331    ON5     1  0.326959829558  0.163176000000
 CC331    ON6     1  0.326959829558  0.163176000000
 CC331   ON6B     1  0.326959829558  0.163176000000
 CC331   OPER     1  0.318427692534  0.188901923946
 CC331     OS     1  0.326959829558  0.163176000000
 CC331   OSIA     1  0.326959829558  0.163176000000
 CC331   OSIE     1  0.326959829558  0.163176000000
 CC331   OSIH     1  0.326959829558  0.163176000000
 CC331    OSL     1  0.316269044940  0.132309697301
 CC331   OSLP     1  0.316269044940  0.132309697301
 CC331    OST     1  0.320010819556  0.169954883425
 CC331     OT     1  0.326799467788  0.163176000000
 CC331     OX     1  0.320723538531  0.144938011577
 CC331      P     1  0.360813980847  0.320014464673
 CC331     P2     1  0.360813980847  0.320014464673
 CC331     P3     1  0.360813980847  0.320014464673
 CC331     P4     1  0.360813980847  0.320014464673
 CC331     PB     1  0.328073452955  0.716185437439
 CC331   PB2P     1  0.325890751096  0.204716924713
 CC331     PC     1  0.360813980847  0.320014464673
 CC331     PD     1  0.294842930769  1.037598257516
 CC331   PD2P     1  0.251865976605  0.174628752363
 CC331    PG0     1  0.360813980847  0.320014464673
 CC331    PG1     1  0.360813980847  0.320014464673
 CC331    PG2     1  0.360813980847  0.320014464673
 CC331     PL     1  0.360813980847  0.320014464673
 CC331   PM3P     1  0.316910492017  0.176275053255
 CC331    POT     1  0.326403017859  0.123410269913
 CC331   PR3P     1  0.317079762773  0.178642591472
 CC331     PT     1  0.296001099102  1.168527606863
 CC331   PT2P     1  0.240284293270  0.168973521997
 CC331   PU3P     1  0.318024115415  0.179522368790
 CC331   RA2P     1  0.355459679551  0.229891668540
 CC331   RH3P     1  0.210367914314  0.149983415617
 CC331    RUB     1  0.338541512893  0.162045623205
 CC331      S     1  0.347450500075  0.280671252536
 CC331     SC     1  0.356359487256  0.286840588481
 CC331   SC3P     1  0.266993436839  0.157109060719
 CC331  SEGD1     1  0.363041227642  0.330244580395
 CC331  SG2D1     1  0.351904993665  0.314496560236
 CC331  SG2P1     1  0.355798221064  0.332305491450
 CC331  SG2P2     1  0.352314807076  0.329421919951
 CC331 SG2R50     1  0.347450500075  0.280671252536
 CC331  SG301     1  0.345223253279  0.257919081884
 CC331  SG302     1  0.365268474438  0.286840588481
 CC331  SG311     1  0.347450500075  0.280671252536
 CC331  SG3O1     1  0.356359487256  0.286840588481
 CC331  SG3O2     1  0.347450500075  0.247528778125
 CC331  SG3O3     1  0.347450500075  0.247528778125
 CC331     SI     1  0.365268474438  0.324091246411
 CC331   SIH3     1  0.365268474438  0.324091246411
 CC331     SL     1  0.356359487256  0.286840588481
 CC331     SM     1  0.345223253279  0.257919081884
 CC331   SM2P     1  0.334666103469  0.207012887251
 CC331   SM3P     1  0.308847858618  0.175378986746
 CC331   SN2P     1  0.316981763914  0.181365662197
 CC331    SOD     1  0.294954293108  0.090610410351
 CC331     SP     1  0.365268474438  0.280671252536
 CC331   SR2P     1  0.334612649546  0.200133451797
 CC331     SS     1  0.365268474438  0.286840588481
 CC331   TB3P     1  0.300678317372  0.172155203837
 CC331   TI1P     1  0.341276571958  0.266826378666
 CC331   TI3P     1  0.243117351193  0.149983415617
 CC331   TL3P     1  0.246716582015  0.168869889039
 CC331   TM3P     1  0.289417357575  0.168402751521
 CC331    U3P     1  0.320830446377  0.182184255566
 CC331    V2P     1  0.267599247968  0.167830039933
 CC331    V3P     1  0.223989755715  0.147096016316
 CC331    Y3P     1  0.295190381269  0.170263611896
 CC331   YB2P     1  0.312616360195  0.189623385225
 CC331   YB3P     1  0.284659958420  0.167569069413
 CC331     ZN     1  0.266378716724  0.209200000000
 CC33A  CC33A     1  0.338541512893  0.041840000000
 CC33A    CCL     1  0.347450500075  0.110698234855
 CC33A     CD     1  0.347450500075  0.110698234855
 CC33A    CE1     1  0.355468588538  0.109105371453
 CC33A    CE2     1  0.354577689820  0.105847757841
 CC33A   CE3P     1  0.321748072056  0.179522368790
 CC33A   CEL1     1  0.355468588538  0.109105371453
 CC33A   CEL2     1  0.354577689820  0.105847757841
 CC33A   CEL3     1  0.355468588538  0.109105371453
 CC33A    CES     1  0.356359487256  0.182376331798
 CC33A    CF1     1  0.338541512893  0.102486650838
 CC33A    CF2     1  0.351904993665  0.085746484010
 CC33A    CF3     1  0.374177461619  0.059170695450
 CC33A  CG1N1     1  0.335868816739  0.177512086349
 CC33A  CG1T1     1  0.333196120584  0.170981810495
 CC33A  CG1T2     1  0.346782326036  0.134409982486
 CC33A CG251O     1  0.355468588538  0.109105371453
 CC33A CG252O     1  0.355468588538  0.109105371453
 CC33A CG25C1     1  0.355468588538  0.109105371453
 CC33A CG25C2     1  0.355468588538  0.109105371453
 CC33A  CG2D1     1  0.355468588538  0.109105371453
 CC33A CG2D1O     1  0.355468588538  0.109105371453
 CC33A  CG2D2     1  0.354577689820  0.105847757841
 CC33A CG2D2O     1  0.355468588538  0.109105371453
 CC33A CG2DC1     1  0.355468588538  0.109105371453
 CC33A CG2DC2     1  0.355468588538  0.109105371453
 CC33A CG2DC3     1  0.354577689820  0.105847757841
 CC33A  CG2N1     1  0.347450500075  0.138767581228
 CC33A  CG2N2     1  0.347450500075  0.138767581228
 CC33A  CG2O1     1  0.347450500075  0.138767581228
 CC33A  CG2O2     1  0.320723538531  0.130979917850
 CC33A  CG2O3     1  0.347450500075  0.110698234855
 CC33A  CG2O4     1  0.329632525712  0.102486650838
 CC33A  CG2O5     1  0.347450500075  0.125520000000
 CC33A  CG2O6     1  0.347450500075  0.110698234855
 CC33A  CG2O7     1  0.308518226092  0.100764063435
 CC33A CG2R51     1  0.356359487256  0.093557084179
 CC33A CG2R52     1  0.365268474438  0.059170695450
 CC33A CG2R53     1  0.365268474438  0.059170695450
 CC33A CG2R57     1  0.356359487256  0.093557084179
 CC33A CG2R61     1  0.346773417049  0.110698234855
 CC33A CG2R62     1  0.338541512893  0.125520000000
 CC33A CG2R63     1  0.338541512893  0.132309697301
 CC33A CG2R64     1  0.356359487256  0.083680000000
 CC33A CG2R66     1  0.338541512893  0.110698234855
 CC33A CG2R67     1  0.346773417049  0.110698234855
 CC33A CG2R71     1  0.346987232741  0.108300154755
 CC33A CG2RC0     1  0.334977918021  0.131646486622
 CC33A CG2RC7     1  0.334977918021  0.131646486622
 CC33A  CG301     1  0.338541512893  0.041840000000
 CC33A  CG302     1  0.374177461619  0.059170695450
 CC33A  CG311     1  0.338541512893  0.041840000000
 CC33A  CG312     1  0.351904993665  0.085746484010
 CC33A  CG314     1  0.338541512893  0.041840000000
 CC33A  CG321     1  0.338541512893  0.041840000000
 CC33A  CG322     1  0.338541512893  0.102486650838
 CC33A  CG323     1  0.365268474438  0.138767581228
 CC33A  CG324     1  0.338541512893  0.041840000000
 CC33A  CG331     1  0.338541512893  0.041840000000
 CC33A  CG334     1  0.338541512893  0.041840000000
 CC33A CG3AM0     1  0.344777803920  0.110698234855
 CC33A CG3AM1     1  0.345668702638  0.116852760686
 CC33A CG3AM2     1  0.346559601357  0.118341390899
 CC33A CG3C31     1  0.338541512893  0.041840000000
 CC33A CG3C41     1  0.338541512893  0.041840000000
 CC33A CG3C50     1  0.338541512893  0.041840000000
 CC33A CG3C51     1  0.338541512893  0.041840000000
 CC33A CG3C52     1  0.338541512893  0.041840000000
 CC33A CG3C53     1  0.338541512893  0.041840000000
 CC33A CG3C54     1  0.338541512893  0.041840000000
 CC33A CG3RC1     1  0.338541512893  0.041840000000
 CC33A     CL     1  0.347450500075  0.110698234855
 CC33A    CLA     1  0.371504765465  0.162045623205
 CC33A   CLAL     1  0.339272049842  0.072469005789
 CC33A  CLG01     1  0.355468588538  0.109105371453
 CC33A  CLG02     1  0.355468588538  0.109105371453
 CC33A  CLG03     1  0.320723538531  0.130979917850
 CC33A  CLG04     1  0.347450500075  0.110698234855
 CC33A  CLG05     1  0.329632525712  0.102486650838
 CC33A  CLG06     1  0.346773417049  0.110698234855
 CC33A CLG06A     1  0.346773417049  0.110698234855
 CC33A CLG06B     1  0.346773417049  0.110698234855
 CC33A  CLG07     1  0.338541512893  0.125520000000
 CC33A  CLG08     1  0.338541512893  0.132309697301
 CC33A  CLG09     1  0.346773417049  0.110698234855
 CC33A  CLG10     1  0.334977918021  0.131646486622
 CC33A  CLG11     1  0.338541512893  0.041840000000
 CC33A  CLG12     1  0.338541512893  0.041840000000
 CC33A  CLG13     1  0.338541512893  0.041840000000
 CC33A  CLG14     1  0.338541512893  0.041840000000
 CC33A  CLG15     1  0.338541512893  0.041840000000
 CC33A  CLG16     1  0.338541512893  0.041840000000
 CC33A  CLGA1     1  0.339432411611  0.245040988571
 CC33A  CLGA3     1  0.339432411611  0.232955260941
 CC33A  CLGR1     1  0.334977918021  0.200657590935
 CC33A     CM     1  0.356359487256  0.138767581228
 CC33A     CN     1  0.325178032121  0.187114168357
 CC33A    CN1     1  0.338541512893  0.132309697301
 CC33A   CN1A     1  0.347450500075  0.110698234855
 CC33A   CN1T     1  0.338541512893  0.132309697301
 CC33A    CN2     1  0.338541512893  0.132309697301
 CC33A    CN3     1  0.338541512893  0.125520000000
 CC33A   CN3A     1  0.329632525712  0.177512086349
 CC33A   CN3B     1  0.329632525712  0.177512086349
 CC33A   CN3C     1  0.329632525712  0.177512086349
 CC33A   CN3D     1  0.338541512893  0.125520000000
 CC33A   CN3T     1  0.338541512893  0.125520000000
 CC33A    CN4     1  0.338541512893  0.114583559030
 CC33A    CN5     1  0.338541512893  0.114583559030
 CC33A   CN5G     1  0.338541512893  0.114583559030
 CC33A    CN6     1  0.338541512893  0.041840000000
 CC33A    CN7     1  0.338541512893  0.041840000000
 CC33A   CN7B     1  0.338541512893  0.041840000000
 CC33A   CN7E     1  0.338541512893  0.041840000000
 CC33A    CN8     1  0.338541512893  0.041840000000
 CC33A   CN8B     1  0.338541512893  0.041840000000
 CC33A    CN9     1  0.338541512893  0.041840000000
 CC33A    CNA     1  0.346773417049  0.110698234855
 CC33A   CNA2     1  0.338541512893  0.110698234855
 CC33A   CNE1     1  0.355468588538  0.109105371453
 CC33A   CNE2     1  0.354577689820  0.105847757841
 CC33A    CNG     1  0.347450500075  0.138767581228
 CC33A   CO2P     1  0.251910521541  0.164138698618
 CC33A   CO3P     1  0.192264852362  0.144393471099
 CC33A    COA     1  0.347450500075  0.138767581228
 CC33A    CP1     1  0.338541512893  0.041840000000
 CC33A    CP2     1  0.338541512893  0.041840000000
 CC33A    CP3     1  0.338541512893  0.041840000000
 CC33A    CPA     1  0.329632525712  0.125520000000
 CC33A    CPB     1  0.329632525712  0.125520000000
 CC33A   CPD1     1  0.338541512893  0.041840000000
 CC33A   CPH1     1  0.329632525712  0.093557084179
 CC33A   CPH2     1  0.329632525712  0.093557084179
 CC33A    CPM     1  0.329632525712  0.125520000000
 CC33A    CPT     1  0.334977918021  0.131646486622
 CC33A   CR2P     1  0.263634748672  0.170828164985
 CC33A   CR33     1  0.338541512893  0.041840000000
 CC33A   CR3P     1  0.244382427373  0.145299904804
 CC33A   CRL1     1  0.338541512893  0.041840000000
 CC33A   CRL2     1  0.338541512893  0.041840000000
 CC33A   CRN1     1  0.347450500075  0.138767581228
 CC33A     CS     1  0.365268474438  0.138767581228
 CC33A    CST     1  0.308518226092  0.100764063435
 CC33A     CT     1  0.338541512893  0.041840000000
 CC33A    CT1     1  0.338541512893  0.041840000000
 CC33A   CT1X     1  0.338541512893  0.041840000000
 CC33A    CT2     1  0.338541512893  0.041840000000
 CC33A   CT2A     1  0.338541512893  0.041840000000
 CC33A   CT2P     1  0.338541512893  0.041840000000
 CC33A   CT2X     1  0.338541512893  0.041840000000
 CC33A    CT3     1  0.338541512893  0.041840000000
 CC33A   CT3X     1  0.338541512893  0.041840000000
 CC33A   CTD1     1  0.338541512893  0.041840000000
 CC33A   CTL1     1  0.338541512893  0.041840000000
 CC33A   CTL2     1  0.338541512893  0.041840000000
 CC33A   CTL3     1  0.338541512893  0.041840000000
 CC33A   CTL5     1  0.338541512893  0.041840000000
 CC33A   CTO1     1  0.338541512893  0.041840000000
 CC33A   CTO2     1  0.338541512893  0.041840000000
 CC33A     CU     1  0.285800308779  0.908997471504
 CC33A   CU1P     1  0.246066225950  0.180057894334
 CC33A   CU2P     1  0.233869822499  0.162315474555
 CC33A     CY     1  0.346559601357  0.113045454929
 CC33A    DUM     1  0.169270756447  0.000000000000
 CC33A   DY3P     1  0.297952167295  0.171135318061
 CC33A   ER3P     1  0.291083338178  0.169232326746
 CC33A   EU2P     1  0.333231756533  0.203602227414
 CC33A   EU3P     1  0.304954631219  0.174528477447
 CC33A     F1     1  0.314487247504  0.153729976257
 CC33A     F2     1  0.314487247504  0.135577095411
 CC33A     F3     1  0.311814551349  0.130309939452
 CC33A     FA     1  0.320723538531  0.144938011577
 CC33A     FE     1  0.227179173126  0.000000000000
 CC33A   FE2P     1  0.265496726993  0.167098295383
 CC33A   FE3P     1  0.219722350855  0.148045032716
 CC33A   FGA1     1  0.314487247504  0.153729976257
 CC33A   FGA2     1  0.314487247504  0.135577095411
 CC33A   FGA3     1  0.311814551349  0.130309939452
 CC33A   FGP1     1  0.311814551349  0.130309939452
 CC33A   FGR1     1  0.320723538531  0.144938011577
 CC33A    FNA     1  0.320723538531  0.144938011577
 CC33A   GA3P     1  0.189485248361  0.145299904804
 CC33A   GD3P     1  0.303351013527  0.173673803114
 CC33A      H     1  0.189271432669  0.089736802707
 CC33A     HA     1  0.286869387241  0.062058748940
 CC33A    HA1     1  0.288651184677  0.088756043175
 CC33A    HA2     1  0.288651184677  0.077149148019
 CC33A    HA3     1  0.288651184677  0.064818249282
 CC33A    HAL     1  0.286869387241  0.062058748940
 CC33A   HAL1     1  0.286869387241  0.062058748940
 CC33A   HAL2     1  0.288651184677  0.070011711020
 CC33A   HAL3     1  0.288651184677  0.064818249282
 CC33A     HB     1  0.286869387241  0.062058748940
 CC33A    HB1     1  0.286869387241  0.062058748940
 CC33A    HB2     1  0.288651184677  0.070011711020
 CC33A    HBL     1  0.286869387241  0.062058748940
 CC33A     HC     1  0.189271432669  0.089736802707
 CC33A   HCA1     1  0.288651184677  0.088756043175
 CC33A  HCA1A     1  0.288651184677  0.088756043175
 CC33A HCA1C2     1  0.288651184677  0.088756043175
 CC33A   HCA2     1  0.288651184677  0.078275472531
 CC33A HCA25A     1  0.285087589805  0.078275472531
 CC33A  HCA2A     1  0.288651184677  0.078275472531
 CC33A HCA2C2     1  0.285087589805  0.078275472531
 CC33A   HCA3     1  0.288651184677  0.064818249282
 CC33A  HCA3A     1  0.288651184677  0.064818249282
 CC33A  HCA3M     1  0.288651184677  0.064818249282
 CC33A    HCL     1  0.189271432669  0.089736802707
 CC33A   HCP1     1  0.189271432669  0.089736802707
 CC33A  HCP1M     1  0.189271432669  0.089736802707
 CC33A   HCR1     1  0.240542653898  0.089736802707
 CC33A     HE     1  0.301123766731  0.061020452073
 CC33A    HE1     1  0.280633096214  0.073666921749
 CC33A    HE2     1  0.281523994932  0.067464972838
 CC33A   HEL1     1  0.280633096214  0.073666921749
 CC33A   HEL2     1  0.281523994932  0.067464972838
 CC33A    HF1     1  0.286869387241  0.070011711020
 CC33A    HF2     1  0.285087589805  0.072469005789
 CC33A   HG2P     1  0.274557166956  0.189623385225
 CC33A   HGA1     1  0.288651184677  0.088756043175
 CC33A   HGA2     1  0.288651184677  0.078275472531
 CC33A   HGA3     1  0.288651184677  0.064818249282
 CC33A   HGA4     1  0.280633096214  0.073666921749
 CC33A   HGA5     1  0.281523994932  0.067464972838
 CC33A   HGA6     1  0.286869387241  0.070011711020
 CC33A   HGA7     1  0.285087589805  0.072469005789
 CC33A HGAAM0     1  0.283305792369  0.070011711020
 CC33A HGAAM1     1  0.283305792369  0.070011711020
 CC33A HGAAM2     1  0.281523994932  0.083680000000
 CC33A   HGP1     1  0.189271432669  0.089736802707
 CC33A   HGP2     1  0.189271432669  0.089736802707
 CC33A   HGP3     1  0.209361198763  0.132309697301
 CC33A   HGP4     1  0.189271432669  0.089736802707
 CC33A   HGP5     1  0.231633666716  0.089736802707
 CC33A HGPAM1     1  0.247224394284  0.039692909190
 CC33A HGPAM2     1  0.247224394284  0.041840000000
 CC33A HGPAM3     1  0.246778944925  0.045833423612
 CC33A  HGR51     1  0.290272620344  0.072469005789
 CC33A  HGR52     1  0.249451641079  0.089736802707
 CC33A  HGR53     1  0.231633666716  0.089736802707
 CC33A  HGR61     1  0.290272620344  0.072469005789
 CC33A  HGR62     1  0.267269615442  0.089736802707
 CC33A  HGR63     1  0.249451641079  0.089736802707
 CC33A  HGR71     1  0.290272620344  0.072469005789
 CC33A     HL     1  0.231633666716  0.089736802707
 CC33A  HLGA1     1  0.288651184677  0.088756043175
 CC33A  HLGA2     1  0.288651184677  0.078275472531
 CC33A  HLGA3     1  0.288651184677  0.064818249282
 CC33A  HLGA4     1  0.280633096214  0.073666921749
 CC33A  HLGP1     1  0.189271432669  0.089736802707
 CC33A HLGR52     1  0.249451641079  0.089736802707
 CC33A HLGR61     1  0.290272620344  0.072469005789
 CC33A HLGR62     1  0.267269615442  0.089736802707
 CC33A    HN1     1  0.189271432669  0.089736802707
 CC33A    HN2     1  0.189271432669  0.089736802707
 CC33A    HN3     1  0.267269615442  0.089736802707
 CC33A   HN3B     1  0.249451641079  0.089736802707
 CC33A    HN4     1  0.189271432669  0.089736802707
 CC33A    HN5     1  0.189271432669  0.089736802707
 CC33A    HN6     1  0.286869387241  0.062058748940
 CC33A    HN7     1  0.286869387241  0.062058748940
 CC33A    HN8     1  0.288651184677  0.070011711020
 CC33A    HN9     1  0.288651184677  0.064818249282
 CC33A   HNE1     1  0.280633096214  0.073666921749
 CC33A   HNE2     1  0.281523994932  0.067464972838
 CC33A    HNP     1  0.290272620344  0.072469005789
 CC33A   HO3P     1  0.293168041178  0.170263611896
 CC33A    HOL     1  0.189271432669  0.089736802707
 CC33A     HP     1  0.290272620344  0.072469005789
 CC33A   HPER     1  0.189271432669  0.089736802707
 CC33A    HR1     1  0.249451641079  0.089736802707
 CC33A    HR2     1  0.231633666716  0.089736802707
 CC33A    HR3     1  0.300054688270  0.036952087465
 CC33A   HRA3     1  0.288651184677  0.064818249282
 CC33A   HRM1     1  0.247224394284  0.039692909190
 CC33A   HRM2     1  0.247224394284  0.041840000000
 CC33A   HRP2     1  0.189271432669  0.089736802707
 CC33A     HS     1  0.209361198763  0.132309697301
 CC33A   HSIA     1  0.286869387241  0.062058748940
 CC33A   HSIO     1  0.189271432669  0.089736802707
 CC33A     HT     1  0.189271432669  0.089736802707
 CC33A     HX     1  0.189271432669  0.089736802707
 CC33A   IGR1     1  0.368832069310  0.301712530731
 CC33A   IN3P     1  0.246449312399  0.160580590010
 CC33A   LA3P     1  0.327200372211  0.182184255566
 CC33A    LIT     1  0.284864865125  0.020196198771
 CC33A    LPH     1  0.169270756447  0.000000000000
 CC33A   LU3P     1  0.289648991242  0.166731218816
 CC33A     MG     1  0.274842254546  0.051243325419
 CC33A   MN2P     1  0.276508235149  0.171747976291
 CC33A   MN3P     1  0.203516903172  0.148045032716
 CC33A      N     1  0.334087019303  0.004184000000
 CC33A     NC     1  0.334087019303  0.324091246411
 CC33A    NC2     1  0.334087019303  0.187114168357
 CC33A  NC2D1     1  0.307360057758  0.187114168357
 CC33A  NC311     1  0.347450500075  0.088756043175
 CC33A   ND3P     1  0.313587439798  0.177117175768
 CC33A     NE     1  0.305578260322  0.122698965603
 CC33A  NG1T1     1  0.328741626994  0.177512086349
 CC33A  NG2D1     1  0.334087019303  0.187114168357
 CC33A  NG2O1     1  0.334087019303  0.187114168357
 CC33A  NG2P1     1  0.334087019303  0.187114168357
 CC33A NG2R43     1  0.334087019303  0.187114168357
 CC33A NG2R50     1  0.334087019303  0.187114168357
 CC33A NG2R51     1  0.334087019303  0.187114168357
 CC33A NG2R52     1  0.334087019303  0.187114168357
 CC33A NG2R53     1  0.334087019303  0.187114168357
 CC33A NG2R57     1  0.334087019303  0.187114168357
 CC33A NG2R60     1  0.337650614175  0.102486650838
 CC33A NG2R61     1  0.334087019303  0.187114168357
 CC33A NG2R62     1  0.352795892384  0.093557084179
 CC33A NG2R67     1  0.334087019303  0.187114168357
 CC33A NG2RC0     1  0.334087019303  0.187114168357
 CC33A  NG2S0     1  0.334087019303  0.004184000000
 CC33A  NG2S1     1  0.307360057758  0.187114168357
 CC33A  NG2S2     1  0.334087019303  0.187114168357
 CC33A  NG2S3     1  0.334087019303  0.187114168357
 CC33A  NG301     1  0.347450500075  0.078275472531
 CC33A  NG311     1  0.347450500075  0.088756043175
 CC33A  NG321     1  0.346559601357  0.102486650838
 CC33A  NG331     1  0.345668702638  0.110698234855
 CC33A NG3C51     1  0.334087019303  0.187114168357
 CC33A  NG3N1     1  0.351904993665  0.102486650838
 CC33A  NG3P0     1  0.334087019303  0.187114168357
 CC33A  NG3P1     1  0.334087019303  0.187114168357
 CC33A  NG3P2     1  0.334087019303  0.187114168357
 CC33A  NG3P3     1  0.334087019303  0.187114168357
 CC33A    NH1     1  0.307360057758  0.187114168357
 CC33A    NH2     1  0.334087019303  0.187114168357
 CC33A    NH3     1  0.334087019303  0.187114168357
 CC33A   NH3L     1  0.334087019303  0.187114168357
 CC33A    NHL     1  0.307360057758  0.187114168357
 CC33A     NI     1  0.282949432881  0.994525446633
 CC33A   NI2P     1  0.238787583423  0.158440517242
 CC33A    NN1     1  0.334087019303  0.187114168357
 CC33A   NN1C     1  0.334087019303  0.187114168357
 CC33A    NN2     1  0.334087019303  0.187114168357
 CC33A   NN2B     1  0.334087019303  0.187114168357
 CC33A   NN2C     1  0.334087019303  0.187114168357
 CC33A   NN2G     1  0.334087019303  0.187114168357
 CC33A   NN2U     1  0.334087019303  0.187114168357
 CC33A    NN3     1  0.334087019303  0.187114168357
 CC33A   NN3A     1  0.334087019303  0.187114168357
 CC33A   NN3G     1  0.334087019303  0.187114168357
 CC33A   NN3I     1  0.334087019303  0.187114168357
 CC33A    NN4     1  0.334087019303  0.187114168357
 CC33A    NN6     1  0.334087019303  0.187114168357
 CC33A    NNG     1  0.334087019303  0.187114168357
 CC33A     NP     1  0.334087019303  0.187114168357
 CC33A    NPH     1  0.334087019303  0.187114168357
 CC33A    NR1     1  0.334087019303  0.187114168357
 CC33A    NR2     1  0.334087019303  0.187114168357
 CC33A    NR3     1  0.334087019303  0.187114168357
 CC33A   NRC4     1  0.334087019303  0.187114168357
 CC33A   NRN1     1  0.347450500075  0.280671252536
 CC33A   NRN2     1  0.346559601357  0.102486650838
 CC33A    NS1     1  0.334087019303  0.187114168357
 CC33A    NS2     1  0.334087019303  0.187114168357
 CC33A    NTL     1  0.334087019303  0.187114168357
 CC33A     NY     1  0.334087019303  0.187114168357
 CC33A      O     1  0.293996576986  0.144938011577
 CC33A    O2L     1  0.320723538531  0.144938011577
 CC33A    OAL     1  0.326959829558  0.163176000000
 CC33A     OB     1  0.293996576986  0.144938011577
 CC33A    OBL     1  0.293996576986  0.144938011577
 CC33A     OC     1  0.320723538531  0.144938011577
 CC33A  OC2D1     1  0.293996576986  0.144938011577
 CC33A  OC2D2     1  0.320723538531  0.144938011577
 CC33A  OC2D3     1  0.293996576986  0.144938011577
 CC33A  OC2D4     1  0.293996576986  0.144938011577
 CC33A  OC2DP     1  0.320723538531  0.144938011577
 CC33A  OC301     1  0.316269044940  0.132309697301
 CC33A  OC302     1  0.316269044940  0.132309697301
 CC33A  OC303     1  0.316269044940  0.132309697301
 CC33A OC305A     1  0.316269044940  0.132309697301
 CC33A  OC30A     1  0.316269044940  0.132309697301
 CC33A  OC30P     1  0.326959829558  0.163176000000
 CC33A  OC311     1  0.326514380198  0.183381431383
 CC33A OC311M     1  0.326514380198  0.183381431383
 CC33A  OC312     1  0.326959829558  0.163176000000
 CC33A OC3C51     1  0.316269044940  0.132309697301
 CC33A OC3C5M     1  0.316269044940  0.132309697301
 CC33A OC3C61     1  0.316269044940  0.132309697301
 CC33A    OCA     1  0.293996576986  0.144938011577
 CC33A    OCL     1  0.320723538531  0.144938011577
 CC33A  OG2D1     1  0.293996576986  0.144938011577
 CC33A  OG2D2     1  0.320723538531  0.144938011577
 CC33A  OG2D3     1  0.293996576986  0.144938011577
 CC33A  OG2D4     1  0.320723538531  0.144938011577
 CC33A  OG2D5     1  0.320010819556  0.169954883425
 CC33A  OG2N1     1  0.320723538531  0.144938011577
 CC33A  OG2P1     1  0.320723538531  0.144938011577
 CC33A OG2R50     1  0.320723538531  0.144938011577
 CC33A  OG2S1     1  0.318906105146  0.157831660601
 CC33A  OG301     1  0.316269044940  0.132309697301
 CC33A  OG302     1  0.316269044940  0.132309697301
 CC33A  OG303     1  0.316269044940  0.132309697301
 CC33A  OG304     1  0.316269044940  0.132309697301
 CC33A  OG311     1  0.326514380198  0.183381431383
 CC33A  OG312     1  0.325178032121  0.144938011577
 CC33A OG3C31     1  0.316269044940  0.132309697301
 CC33A OG3C51     1  0.316269044940  0.132309697301
 CC33A OG3C61     1  0.316269044940  0.132309697301
 CC33A OG3R60     1  0.316269044940  0.132309697301
 CC33A    OH1     1  0.326959829558  0.163176000000
 CC33A    OHL     1  0.326959829558  0.163176000000
 CC33A   OLG1     1  0.293996576986  0.144938011577
 CC33A   OLG2     1  0.320723538531  0.144938011577
 CC33A   OLG3     1  0.320723538531  0.144938011577
 CC33A   OLG4     1  0.316269044940  0.132309697301
 CC33A   OLG5     1  0.316269044940  0.132309697301
 CC33A   OLG6     1  0.326514380198  0.183381431383
 CC33A   OLG7     1  0.316269044940  0.132309697301
 CC33A   OLG8     1  0.316269044940  0.132309697301
 CC33A     OM     1  0.320723538531  0.144938011577
 CC33A    ON1     1  0.320723538531  0.144938011577
 CC33A   ON1C     1  0.320723538531  0.144938011577
 CC33A    ON2     1  0.326959829558  0.163176000000
 CC33A   ON2B     1  0.326959829558  0.163176000000
 CC33A   ON2M     1  0.316269044940  0.132309697301
 CC33A    ON3     1  0.320723538531  0.144938011577
 CC33A    ON4     1  0.326959829558  0.163176000000
 CC33A    ON5     1  0.326959829558  0.163176000000
 CC33A    ON6     1  0.326959829558  0.163176000000
 CC33A   ON6B     1  0.326959829558  0.163176000000
 CC33A   OPER     1  0.318427692534  0.188901923946
 CC33A     OS     1  0.326959829558  0.163176000000
 CC33A   OSIA     1  0.326959829558  0.163176000000
 CC33A   OSIE     1  0.326959829558  0.163176000000
 CC33A   OSIH     1  0.326959829558  0.163176000000
 CC33A    OSL     1  0.316269044940  0.132309697301
 CC33A   OSLP     1  0.316269044940  0.132309697301
 CC33A    OST     1  0.320010819556  0.169954883425
 CC33A     OT     1  0.326799467788  0.163176000000
 CC33A     OX     1  0.320723538531  0.144938011577
 CC33A      P     1  0.360813980847  0.320014464673
 CC33A     P2     1  0.360813980847  0.320014464673
 CC33A     P3     1  0.360813980847  0.320014464673
 CC33A     P4     1  0.360813980847  0.320014464673
 CC33A     PB     1  0.328073452955  0.716185437439
 CC33A   PB2P     1  0.325890751096  0.204716924713
 CC33A     PC     1  0.360813980847  0.320014464673
 CC33A     PD     1  0.294842930769  1.037598257516
 CC33A   PD2P     1  0.251865976605  0.174628752363
 CC33A    PG0     1  0.360813980847  0.320014464673
 CC33A    PG1     1  0.360813980847  0.320014464673
 CC33A    PG2     1  0.360813980847  0.320014464673
 CC33A     PL     1  0.360813980847  0.320014464673
 CC33A   PM3P     1  0.316910492017  0.176275053255
 CC33A    POT     1  0.326403017859  0.123410269913
 CC33A   PR3P     1  0.317079762773  0.178642591472
 CC33A     PT     1  0.296001099102  1.168527606863
 CC33A   PT2P     1  0.240284293270  0.168973521997
 CC33A   PU3P     1  0.318024115415  0.179522368790
 CC33A   RA2P     1  0.355459679551  0.229891668540
 CC33A   RH3P     1  0.210367914314  0.149983415617
 CC33A    RUB     1  0.338541512893  0.162045623205
 CC33A      S     1  0.347450500075  0.280671252536
 CC33A     SC     1  0.356359487256  0.286840588481
 CC33A   SC3P     1  0.266993436839  0.157109060719
 CC33A  SEGD1     1  0.363041227642  0.330244580395
 CC33A  SG2D1     1  0.351904993665  0.314496560236
 CC33A  SG2P1     1  0.355798221064  0.332305491450
 CC33A  SG2P2     1  0.352314807076  0.329421919951
 CC33A SG2R50     1  0.347450500075  0.280671252536
 CC33A  SG301     1  0.345223253279  0.257919081884
 CC33A  SG302     1  0.365268474438  0.286840588481
 CC33A  SG311     1  0.347450500075  0.280671252536
 CC33A  SG3O1     1  0.356359487256  0.286840588481
 CC33A  SG3O2     1  0.347450500075  0.247528778125
 CC33A  SG3O3     1  0.347450500075  0.247528778125
 CC33A     SI     1  0.365268474438  0.324091246411
 CC33A   SIH3     1  0.365268474438  0.324091246411
 CC33A     SL     1  0.356359487256  0.286840588481
 CC33A     SM     1  0.345223253279  0.257919081884
 CC33A   SM2P     1  0.334666103469  0.207012887251
 CC33A   SM3P     1  0.308847858618  0.175378986746
 CC33A   SN2P     1  0.316981763914  0.181365662197
 CC33A    SOD     1  0.294954293108  0.090610410351
 CC33A     SP     1  0.365268474438  0.280671252536
 CC33A   SR2P     1  0.334612649546  0.200133451797
 CC33A     SS     1  0.365268474438  0.286840588481
 CC33A   TB3P     1  0.300678317372  0.172155203837
 CC33A   TI1P     1  0.341276571958  0.266826378666
 CC33A   TI3P     1  0.243117351193  0.149983415617
 CC33A   TL3P     1  0.246716582015  0.168869889039
 CC33A   TM3P     1  0.289417357575  0.168402751521
 CC33A    U3P     1  0.320830446377  0.182184255566
 CC33A    V2P     1  0.267599247968  0.167830039933
 CC33A    V3P     1  0.223989755715  0.147096016316
 CC33A    Y3P     1  0.295190381269  0.170263611896
 CC33A   YB2P     1  0.312616360195  0.189623385225
 CC33A   YB3P     1  0.284659958420  0.167569069413
 CC33A     ZN     1  0.266378716724  0.209200000000
   CCL  CG301     1  0.347450500075  0.110698234855
   CCL  CG311     1  0.347450500075  0.110698234855
   CCL  CG314     1  0.347450500075  0.110698234855
   CCL  CG321     1  0.347450500075  0.110698234855
   CCL  CG324     1  0.347450500075  0.110698234855
   CCL  CG331     1  0.347450500075  0.110698234855
   CCL  CG334     1  0.347450500075  0.110698234855
   CCL CG3C31     1  0.347450500075  0.110698234855
   CCL CG3C41     1  0.347450500075  0.110698234855
   CCL CG3C50     1  0.347450500075  0.110698234855
   CCL CG3C51     1  0.347450500075  0.110698234855
   CCL CG3C52     1  0.347450500075  0.110698234855
   CCL CG3C53     1  0.347450500075  0.110698234855
   CCL CG3C54     1  0.347450500075  0.110698234855
   CCL CG3RC1     1  0.347450500075  0.110698234855
   CCL  CLG11     1  0.347450500075  0.110698234855
   CCL  CLG12     1  0.347450500075  0.110698234855
   CCL  CLG13     1  0.347450500075  0.110698234855
   CCL  CLG14     1  0.347450500075  0.110698234855
   CCL  CLG15     1  0.347450500075  0.110698234855
   CCL  CLG16     1  0.347450500075  0.110698234855
   CCL    CN6     1  0.347450500075  0.110698234855
   CCL    CN7     1  0.347450500075  0.110698234855
   CCL   CN7B     1  0.347450500075  0.110698234855
   CCL   CN7E     1  0.347450500075  0.110698234855
   CCL    CN8     1  0.347450500075  0.110698234855
   CCL   CN8B     1  0.347450500075  0.110698234855
   CCL    CN9     1  0.347450500075  0.110698234855
   CCL    CP1     1  0.347450500075  0.110698234855
   CCL    CP2     1  0.347450500075  0.110698234855
   CCL    CP3     1  0.347450500075  0.110698234855
   CCL   CPD1     1  0.347450500075  0.110698234855
   CCL   CR33     1  0.347450500075  0.110698234855
   CCL   CRL1     1  0.347450500075  0.110698234855
   CCL   CRL2     1  0.347450500075  0.110698234855
   CCL     CT     1  0.347450500075  0.110698234855
   CCL    CT1     1  0.347450500075  0.110698234855
   CCL   CT1X     1  0.347450500075  0.110698234855
   CCL    CT2     1  0.347450500075  0.110698234855
   CCL   CT2A     1  0.347450500075  0.110698234855
   CCL   CT2P     1  0.347450500075  0.110698234855
   CCL   CT2X     1  0.347450500075  0.110698234855
   CCL    CT3     1  0.347450500075  0.110698234855
   CCL   CT3X     1  0.347450500075  0.110698234855
   CCL   CTD1     1  0.347450500075  0.110698234855
   CCL   CTL1     1  0.347450500075  0.110698234855
   CCL   CTL2     1  0.347450500075  0.110698234855
   CCL   CTL3     1  0.347450500075  0.110698234855
   CCL   CTL5     1  0.347450500075  0.110698234855
   CCL   CTO1     1  0.347450500075  0.110698234855
   CCL   CTO2     1  0.347450500075  0.110698234855
   CCL     HP     1  0.299181607526  0.191734967077
   CCL      N     1  0.342996006484  0.011069823485
   CCL  NC2D1     1  0.316269044940  0.495057556250
   CCL  NG2S0     1  0.342996006484  0.011069823485
   CCL  NG2S1     1  0.316269044940  0.495057556250
   CCL    NH1     1  0.316269044940  0.495057556250
   CCL    NHL     1  0.316269044940  0.495057556250
   CCL      O     1  0.302905564168  0.383469934154
   CCL     OB     1  0.302905564168  0.383469934154
   CCL    OBL     1  0.302905564168  0.383469934154
   CCL  OC2D1     1  0.302905564168  0.383469934154
   CCL  OC2D3     1  0.302905564168  0.383469934154
   CCL  OC2D4     1  0.302905564168  0.383469934154
   CCL    OCA     1  0.302905564168  0.383469934154
   CCL  OG2D1     1  0.302905564168  0.383469934154
   CCL  OG2D3     1  0.302905564168  0.383469934154
   CCL   OLG1     1  0.302905564168  0.383469934154
    CD  CG301     1  0.347450500075  0.110698234855
    CD  CG311     1  0.347450500075  0.110698234855
    CD  CG314     1  0.347450500075  0.110698234855
    CD  CG321     1  0.347450500075  0.110698234855
    CD  CG324     1  0.347450500075  0.110698234855
    CD  CG331     1  0.347450500075  0.110698234855
    CD  CG334     1  0.347450500075  0.110698234855
    CD CG3C31     1  0.347450500075  0.110698234855
    CD CG3C41     1  0.347450500075  0.110698234855
    CD CG3C50     1  0.347450500075  0.110698234855
    CD CG3C51     1  0.347450500075  0.110698234855
    CD CG3C52     1  0.347450500075  0.110698234855
    CD CG3C53     1  0.347450500075  0.110698234855
    CD CG3C54     1  0.347450500075  0.110698234855
    CD CG3RC1     1  0.347450500075  0.110698234855
    CD  CLG11     1  0.347450500075  0.110698234855
    CD  CLG12     1  0.347450500075  0.110698234855
    CD  CLG13     1  0.347450500075  0.110698234855
    CD  CLG14     1  0.347450500075  0.110698234855
    CD  CLG15     1  0.347450500075  0.110698234855
    CD  CLG16     1  0.347450500075  0.110698234855
    CD    CN6     1  0.347450500075  0.110698234855
    CD    CN7     1  0.347450500075  0.110698234855
    CD   CN7B     1  0.347450500075  0.110698234855
    CD   CN7E     1  0.347450500075  0.110698234855
    CD    CN8     1  0.347450500075  0.110698234855
    CD   CN8B     1  0.347450500075  0.110698234855
    CD    CN9     1  0.347450500075  0.110698234855
    CD    CP1     1  0.347450500075  0.110698234855
    CD    CP2     1  0.347450500075  0.110698234855
    CD    CP3     1  0.347450500075  0.110698234855
    CD   CPD1     1  0.347450500075  0.110698234855
    CD   CR33     1  0.347450500075  0.110698234855
    CD   CRL1     1  0.347450500075  0.110698234855
    CD   CRL2     1  0.347450500075  0.110698234855
    CD     CT     1  0.347450500075  0.110698234855
    CD    CT1     1  0.347450500075  0.110698234855
    CD   CT1X     1  0.347450500075  0.110698234855
    CD    CT2     1  0.347450500075  0.110698234855
    CD   CT2A     1  0.347450500075  0.110698234855
    CD   CT2P     1  0.347450500075  0.110698234855
    CD   CT2X     1  0.347450500075  0.110698234855
    CD    CT3     1  0.347450500075  0.110698234855
    CD   CT3X     1  0.347450500075  0.110698234855
    CD   CTD1     1  0.347450500075  0.110698234855
    CD   CTL1     1  0.347450500075  0.110698234855
    CD   CTL2     1  0.347450500075  0.110698234855
    CD   CTL3     1  0.347450500075  0.110698234855
    CD   CTL5     1  0.347450500075  0.110698234855
    CD   CTO1     1  0.347450500075  0.110698234855
    CD   CTO2     1  0.347450500075  0.110698234855
    CD     HP     1  0.299181607526  0.191734967077
    CD      N     1  0.342996006484  0.011069823485
    CD  NC2D1     1  0.316269044940  0.495057556250
    CD  NG2S0     1  0.342996006484  0.011069823485
    CD  NG2S1     1  0.316269044940  0.495057556250
    CD    NH1     1  0.316269044940  0.495057556250
    CD    NHL     1  0.316269044940  0.495057556250
    CD      O     1  0.302905564168  0.383469934154
    CD     OB     1  0.302905564168  0.383469934154
    CD    OBL     1  0.302905564168  0.383469934154
    CD  OC2D1     1  0.302905564168  0.383469934154
    CD  OC2D3     1  0.302905564168  0.383469934154
    CD  OC2D4     1  0.302905564168  0.383469934154
    CD    OCA     1  0.302905564168  0.383469934154
    CD  OG2D1     1  0.302905564168  0.383469934154
    CD  OG2D3     1  0.302905564168  0.383469934154
    CD   OLG1     1  0.302905564168  0.383469934154
   CE1  CG301     1  0.355468588538  0.109105371453
   CE1  CG311     1  0.355468588538  0.109105371453
   CE1  CG314     1  0.355468588538  0.109105371453
   CE1  CG321     1  0.355468588538  0.109105371453
   CE1  CG324     1  0.355468588538  0.109105371453
   CE1  CG331     1  0.355468588538  0.109105371453
   CE1  CG334     1  0.355468588538  0.109105371453
   CE1 CG3C31     1  0.355468588538  0.109105371453
   CE1 CG3C41     1  0.355468588538  0.109105371453
   CE1 CG3C50     1  0.355468588538  0.109105371453
   CE1 CG3C51     1  0.355468588538  0.109105371453
   CE1 CG3C52     1  0.355468588538  0.109105371453
   CE1 CG3C53     1  0.355468588538  0.109105371453
   CE1 CG3C54     1  0.355468588538  0.109105371453
   CE1 CG3RC1     1  0.355468588538  0.109105371453
   CE1  CLG11     1  0.355468588538  0.109105371453
   CE1  CLG12     1  0.355468588538  0.109105371453
   CE1  CLG13     1  0.355468588538  0.109105371453
   CE1  CLG14     1  0.355468588538  0.109105371453
   CE1  CLG15     1  0.355468588538  0.109105371453
   CE1  CLG16     1  0.355468588538  0.109105371453
   CE1    CN6     1  0.355468588538  0.109105371453
   CE1    CN7     1  0.355468588538  0.109105371453
   CE1   CN7B     1  0.355468588538  0.109105371453
   CE1   CN7E     1  0.355468588538  0.109105371453
   CE1    CN8     1  0.355468588538  0.109105371453
   CE1   CN8B     1  0.355468588538  0.109105371453
   CE1    CN9     1  0.355468588538  0.109105371453
   CE1    CP1     1  0.355468588538  0.109105371453
   CE1    CP2     1  0.355468588538  0.109105371453
   CE1    CP3     1  0.355468588538  0.109105371453
   CE1   CPD1     1  0.355468588538  0.109105371453
   CE1   CR33     1  0.355468588538  0.109105371453
   CE1   CRL1     1  0.355468588538  0.109105371453
   CE1   CRL2     1  0.355468588538  0.109105371453
   CE1     CT     1  0.355468588538  0.109105371453
   CE1    CT1     1  0.355468588538  0.109105371453
   CE1   CT1X     1  0.355468588538  0.109105371453
   CE1    CT2     1  0.355468588538  0.109105371453
   CE1   CT2A     1  0.355468588538  0.109105371453
   CE1   CT2P     1  0.355468588538  0.109105371453
   CE1   CT2X     1  0.355468588538  0.109105371453
   CE1    CT3     1  0.355468588538  0.109105371453
   CE1   CT3X     1  0.355468588538  0.109105371453
   CE1   CTD1     1  0.355468588538  0.109105371453
   CE1   CTL1     1  0.355468588538  0.109105371453
   CE1   CTL2     1  0.355468588538  0.109105371453
   CE1   CTL3     1  0.355468588538  0.109105371453
   CE1   CTL5     1  0.355468588538  0.109105371453
   CE1   CTO1     1  0.355468588538  0.109105371453
   CE1   CTO2     1  0.355468588538  0.109105371453
   CE1     HP     1  0.307199695989  0.188976046736
   CE1      N     1  0.351014094947  0.010910537145
   CE1  NC2D1     1  0.324287133403  0.487934054561
   CE1  NG2S0     1  0.351014094947  0.010910537145
   CE1  NG2S1     1  0.324287133403  0.487934054561
   CE1    NH1     1  0.324287133403  0.487934054561
   CE1    NHL     1  0.324287133403  0.487934054561
   CE1      O     1  0.310923652631  0.377952093472
   CE1     OB     1  0.310923652631  0.377952093472
   CE1    OBL     1  0.310923652631  0.377952093472
   CE1  OC2D1     1  0.310923652631  0.377952093472
   CE1  OC2D3     1  0.310923652631  0.377952093472
   CE1  OC2D4     1  0.310923652631  0.377952093472
   CE1    OCA     1  0.310923652631  0.377952093472
   CE1  OG2D1     1  0.310923652631  0.377952093472
   CE1  OG2D3     1  0.310923652631  0.377952093472
   CE1   OLG1     1  0.310923652631  0.377952093472
   CE2  CG301     1  0.354577689820  0.105847757841
   CE2  CG311     1  0.354577689820  0.105847757841
   CE2  CG314     1  0.354577689820  0.105847757841
   CE2  CG321     1  0.354577689820  0.105847757841
   CE2  CG324     1  0.354577689820  0.105847757841
   CE2  CG331     1  0.354577689820  0.105847757841
   CE2  CG334     1  0.354577689820  0.105847757841
   CE2 CG3C31     1  0.354577689820  0.105847757841
   CE2 CG3C41     1  0.354577689820  0.105847757841
   CE2 CG3C50     1  0.354577689820  0.105847757841
   CE2 CG3C51     1  0.354577689820  0.105847757841
   CE2 CG3C52     1  0.354577689820  0.105847757841
   CE2 CG3C53     1  0.354577689820  0.105847757841
   CE2 CG3C54     1  0.354577689820  0.105847757841
   CE2 CG3RC1     1  0.354577689820  0.105847757841
   CE2  CLG11     1  0.354577689820  0.105847757841
   CE2  CLG12     1  0.354577689820  0.105847757841
   CE2  CLG13     1  0.354577689820  0.105847757841
   CE2  CLG14     1  0.354577689820  0.105847757841
   CE2  CLG15     1  0.354577689820  0.105847757841
   CE2  CLG16     1  0.354577689820  0.105847757841
   CE2    CN6     1  0.354577689820  0.105847757841
   CE2    CN7     1  0.354577689820  0.105847757841
   CE2   CN7B     1  0.354577689820  0.105847757841
   CE2   CN7E     1  0.354577689820  0.105847757841
   CE2    CN8     1  0.354577689820  0.105847757841
   CE2   CN8B     1  0.354577689820  0.105847757841
   CE2    CN9     1  0.354577689820  0.105847757841
   CE2    CP1     1  0.354577689820  0.105847757841
   CE2    CP2     1  0.354577689820  0.105847757841
   CE2    CP3     1  0.354577689820  0.105847757841
   CE2   CPD1     1  0.354577689820  0.105847757841
   CE2   CR33     1  0.354577689820  0.105847757841
   CE2   CRL1     1  0.354577689820  0.105847757841
   CE2   CRL2     1  0.354577689820  0.105847757841
   CE2     CT     1  0.354577689820  0.105847757841
   CE2    CT1     1  0.354577689820  0.105847757841
   CE2   CT1X     1  0.354577689820  0.105847757841
   CE2    CT2     1  0.354577689820  0.105847757841
   CE2   CT2A     1  0.354577689820  0.105847757841
   CE2   CT2P     1  0.354577689820  0.105847757841
   CE2   CT2X     1  0.354577689820  0.105847757841
   CE2    CT3     1  0.354577689820  0.105847757841
   CE2   CT3X     1  0.354577689820  0.105847757841
   CE2   CTD1     1  0.354577689820  0.105847757841
   CE2   CTL1     1  0.354577689820  0.105847757841
   CE2   CTL2     1  0.354577689820  0.105847757841
   CE2   CTL3     1  0.354577689820  0.105847757841
   CE2   CTL5     1  0.354577689820  0.105847757841
   CE2   CTO1     1  0.354577689820  0.105847757841
   CE2   CTO2     1  0.354577689820  0.105847757841
   CE2     HP     1  0.306308797271  0.183333694448
   CE2      N     1  0.350123196229  0.010584775784
   CE2  NC2D1     1  0.323396234685  0.473365563598
   CE2  NG2S0     1  0.350123196229  0.010584775784
   CE2  NG2S1     1  0.323396234685  0.473365563598
   CE2    NH1     1  0.323396234685  0.473365563598
   CE2    NHL     1  0.323396234685  0.473365563598
   CE2      O     1  0.310032753913  0.366667388896
   CE2     OB     1  0.310032753913  0.366667388896
   CE2    OBL     1  0.310032753913  0.366667388896
   CE2  OC2D1     1  0.310032753913  0.366667388896
   CE2  OC2D3     1  0.310032753913  0.366667388896
   CE2  OC2D4     1  0.310032753913  0.366667388896
   CE2    OCA     1  0.310032753913  0.366667388896
   CE2  OG2D1     1  0.310032753913  0.366667388896
   CE2  OG2D3     1  0.310032753913  0.366667388896
   CE2   OLG1     1  0.310032753913  0.366667388896
  CE3P  CG301     1  0.321748072056  0.179522368790
  CE3P  CG311     1  0.321748072056  0.179522368790
  CE3P  CG314     1  0.321748072056  0.179522368790
  CE3P  CG321     1  0.321748072056  0.179522368790
  CE3P  CG324     1  0.321748072056  0.179522368790
  CE3P  CG331     1  0.321748072056  0.179522368790
  CE3P  CG334     1  0.321748072056  0.179522368790
  CE3P CG3C31     1  0.321748072056  0.179522368790
  CE3P CG3C41     1  0.321748072056  0.179522368790
  CE3P CG3C50     1  0.321748072056  0.179522368790
  CE3P CG3C51     1  0.321748072056  0.179522368790
  CE3P CG3C52     1  0.321748072056  0.179522368790
  CE3P CG3C53     1  0.321748072056  0.179522368790
  CE3P CG3C54     1  0.321748072056  0.179522368790
  CE3P CG3RC1     1  0.321748072056  0.179522368790
  CE3P  CLG11     1  0.321748072056  0.179522368790
  CE3P  CLG12     1  0.321748072056  0.179522368790
  CE3P  CLG13     1  0.321748072056  0.179522368790
  CE3P  CLG14     1  0.321748072056  0.179522368790
  CE3P  CLG15     1  0.321748072056  0.179522368790
  CE3P  CLG16     1  0.321748072056  0.179522368790
  CE3P    CN6     1  0.321748072056  0.179522368790
  CE3P    CN7     1  0.321748072056  0.179522368790
  CE3P   CN7B     1  0.321748072056  0.179522368790
  CE3P   CN7E     1  0.321748072056  0.179522368790
  CE3P    CN8     1  0.321748072056  0.179522368790
  CE3P   CN8B     1  0.321748072056  0.179522368790
  CE3P    CN9     1  0.321748072056  0.179522368790
  CE3P    CP1     1  0.321748072056  0.179522368790
  CE3P    CP2     1  0.321748072056  0.179522368790
  CE3P    CP3     1  0.321748072056  0.179522368790
  CE3P   CPD1     1  0.321748072056  0.179522368790
  CE3P   CR33     1  0.321748072056  0.179522368790
  CE3P   CRL1     1  0.321748072056  0.179522368790
  CE3P   CRL2     1  0.321748072056  0.179522368790
  CE3P     CT     1  0.321748072056  0.179522368790
  CE3P    CT1     1  0.321748072056  0.179522368790
  CE3P   CT1X     1  0.321748072056  0.179522368790
  CE3P    CT2     1  0.321748072056  0.179522368790
  CE3P   CT2A     1  0.321748072056  0.179522368790
  CE3P   CT2P     1  0.321748072056  0.179522368790
  CE3P   CT2X     1  0.321748072056  0.179522368790
  CE3P    CT3     1  0.321748072056  0.179522368790
  CE3P   CT3X     1  0.321748072056  0.179522368790
  CE3P   CTD1     1  0.321748072056  0.179522368790
  CE3P   CTL1     1  0.321748072056  0.179522368790
  CE3P   CTL2     1  0.321748072056  0.179522368790
  CE3P   CTL3     1  0.321748072056  0.179522368790
  CE3P   CTL5     1  0.321748072056  0.179522368790
  CE3P   CTO1     1  0.321748072056  0.179522368790
  CE3P   CTO2     1  0.321748072056  0.179522368790
  CE3P     HP     1  0.273479179508  0.310941863840
  CE3P      N     1  0.317293578466  0.017952236879
  CE3P  NC2D1     1  0.290566616921  0.802848440193
  CE3P  NG2S0     1  0.317293578466  0.017952236879
  CE3P  NG2S1     1  0.290566616921  0.802848440193
  CE3P    NH1     1  0.290566616921  0.802848440193
  CE3P    NHL     1  0.290566616921  0.802848440193
  CE3P      O     1  0.277203136149  0.621883727679
  CE3P     OB     1  0.277203136149  0.621883727679
  CE3P    OBL     1  0.277203136149  0.621883727679
  CE3P  OC2D1     1  0.277203136149  0.621883727679
  CE3P  OC2D3     1  0.277203136149  0.621883727679
  CE3P  OC2D4     1  0.277203136149  0.621883727679
  CE3P    OCA     1  0.277203136149  0.621883727679
  CE3P  OG2D1     1  0.277203136149  0.621883727679
  CE3P  OG2D3     1  0.277203136149  0.621883727679
  CE3P   OLG1     1  0.277203136149  0.621883727679
  CEL1  CG301     1  0.355468588538  0.109105371453
  CEL1  CG311     1  0.355468588538  0.109105371453
  CEL1  CG314     1  0.355468588538  0.109105371453
  CEL1  CG321     1  0.355468588538  0.109105371453
  CEL1  CG324     1  0.355468588538  0.109105371453
  CEL1  CG331     1  0.355468588538  0.109105371453
  CEL1  CG334     1  0.355468588538  0.109105371453
  CEL1 CG3C31     1  0.355468588538  0.109105371453
  CEL1 CG3C41     1  0.355468588538  0.109105371453
  CEL1 CG3C50     1  0.355468588538  0.109105371453
  CEL1 CG3C51     1  0.355468588538  0.109105371453
  CEL1 CG3C52     1  0.355468588538  0.109105371453
  CEL1 CG3C53     1  0.355468588538  0.109105371453
  CEL1 CG3C54     1  0.355468588538  0.109105371453
  CEL1 CG3RC1     1  0.355468588538  0.109105371453
  CEL1  CLG11     1  0.355468588538  0.109105371453
  CEL1  CLG12     1  0.355468588538  0.109105371453
  CEL1  CLG13     1  0.355468588538  0.109105371453
  CEL1  CLG14     1  0.355468588538  0.109105371453
  CEL1  CLG15     1  0.355468588538  0.109105371453
  CEL1  CLG16     1  0.355468588538  0.109105371453
  CEL1    CN6     1  0.355468588538  0.109105371453
  CEL1    CN7     1  0.355468588538  0.109105371453
  CEL1   CN7B     1  0.355468588538  0.109105371453
  CEL1   CN7E     1  0.355468588538  0.109105371453
  CEL1    CN8     1  0.355468588538  0.109105371453
  CEL1   CN8B     1  0.355468588538  0.109105371453
  CEL1    CN9     1  0.355468588538  0.109105371453
  CEL1    CP1     1  0.355468588538  0.109105371453
  CEL1    CP2     1  0.355468588538  0.109105371453
  CEL1    CP3     1  0.355468588538  0.109105371453
  CEL1   CPD1     1  0.355468588538  0.109105371453
  CEL1   CR33     1  0.355468588538  0.109105371453
  CEL1   CRL1     1  0.355468588538  0.109105371453
  CEL1   CRL2     1  0.355468588538  0.109105371453
  CEL1     CT     1  0.355468588538  0.109105371453
  CEL1    CT1     1  0.355468588538  0.109105371453
  CEL1   CT1X     1  0.355468588538  0.109105371453
  CEL1    CT2     1  0.355468588538  0.109105371453
  CEL1   CT2A     1  0.355468588538  0.109105371453
  CEL1   CT2P     1  0.355468588538  0.109105371453
  CEL1   CT2X     1  0.355468588538  0.109105371453
  CEL1    CT3     1  0.355468588538  0.109105371453
  CEL1   CT3X     1  0.355468588538  0.109105371453
  CEL1   CTD1     1  0.355468588538  0.109105371453
  CEL1   CTL1     1  0.355468588538  0.109105371453
  CEL1   CTL2     1  0.355468588538  0.109105371453
  CEL1   CTL3     1  0.355468588538  0.109105371453
  CEL1   CTL5     1  0.355468588538  0.109105371453
  CEL1   CTO1     1  0.355468588538  0.109105371453
  CEL1   CTO2     1  0.355468588538  0.109105371453
  CEL1     HP     1  0.307199695989  0.188976046736
  CEL1      N     1  0.351014094947  0.010910537145
  CEL1  NC2D1     1  0.324287133403  0.487934054561
  CEL1  NG2S0     1  0.351014094947  0.010910537145
  CEL1  NG2S1     1  0.324287133403  0.487934054561
  CEL1    NH1     1  0.324287133403  0.487934054561
  CEL1    NHL     1  0.324287133403  0.487934054561
  CEL1      O     1  0.310923652631  0.377952093472
  CEL1     OB     1  0.310923652631  0.377952093472
  CEL1    OBL     1  0.310923652631  0.377952093472
  CEL1  OC2D1     1  0.310923652631  0.377952093472
  CEL1  OC2D3     1  0.310923652631  0.377952093472
  CEL1  OC2D4     1  0.310923652631  0.377952093472
  CEL1    OCA     1  0.310923652631  0.377952093472
  CEL1  OG2D1     1  0.310923652631  0.377952093472
  CEL1  OG2D3     1  0.310923652631  0.377952093472
  CEL1   OLG1     1  0.310923652631  0.377952093472
  CEL2  CG301     1  0.354577689820  0.105847757841
  CEL2  CG311     1  0.354577689820  0.105847757841
  CEL2  CG314     1  0.354577689820  0.105847757841
  CEL2  CG321     1  0.354577689820  0.105847757841
  CEL2  CG324     1  0.354577689820  0.105847757841
  CEL2  CG331     1  0.354577689820  0.105847757841
  CEL2  CG334     1  0.354577689820  0.105847757841
  CEL2 CG3C31     1  0.354577689820  0.105847757841
  CEL2 CG3C41     1  0.354577689820  0.105847757841
  CEL2 CG3C50     1  0.354577689820  0.105847757841
  CEL2 CG3C51     1  0.354577689820  0.105847757841
  CEL2 CG3C52     1  0.354577689820  0.105847757841
  CEL2 CG3C53     1  0.354577689820  0.105847757841
  CEL2 CG3C54     1  0.354577689820  0.105847757841
  CEL2 CG3RC1     1  0.354577689820  0.105847757841
  CEL2  CLG11     1  0.354577689820  0.105847757841
  CEL2  CLG12     1  0.354577689820  0.105847757841
  CEL2  CLG13     1  0.354577689820  0.105847757841
  CEL2  CLG14     1  0.354577689820  0.105847757841
  CEL2  CLG15     1  0.354577689820  0.105847757841
  CEL2  CLG16     1  0.354577689820  0.105847757841
  CEL2    CN6     1  0.354577689820  0.105847757841
  CEL2    CN7     1  0.354577689820  0.105847757841
  CEL2   CN7B     1  0.354577689820  0.105847757841
  CEL2   CN7E     1  0.354577689820  0.105847757841
  CEL2    CN8     1  0.354577689820  0.105847757841
  CEL2   CN8B     1  0.354577689820  0.105847757841
  CEL2    CN9     1  0.354577689820  0.105847757841
  CEL2    CP1     1  0.354577689820  0.105847757841
  CEL2    CP2     1  0.354577689820  0.105847757841
  CEL2    CP3     1  0.354577689820  0.105847757841
  CEL2   CPD1     1  0.354577689820  0.105847757841
  CEL2   CR33     1  0.354577689820  0.105847757841
  CEL2   CRL1     1  0.354577689820  0.105847757841
  CEL2   CRL2     1  0.354577689820  0.105847757841
  CEL2     CT     1  0.354577689820  0.105847757841
  CEL2    CT1     1  0.354577689820  0.105847757841
  CEL2   CT1X     1  0.354577689820  0.105847757841
  CEL2    CT2     1  0.354577689820  0.105847757841
  CEL2   CT2A     1  0.354577689820  0.105847757841
  CEL2   CT2P     1  0.354577689820  0.105847757841
  CEL2   CT2X     1  0.354577689820  0.105847757841
  CEL2    CT3     1  0.354577689820  0.105847757841
  CEL2   CT3X     1  0.354577689820  0.105847757841
  CEL2   CTD1     1  0.354577689820  0.105847757841
  CEL2   CTL1     1  0.354577689820  0.105847757841
  CEL2   CTL2     1  0.354577689820  0.105847757841
  CEL2   CTL3     1  0.354577689820  0.105847757841
  CEL2   CTL5     1  0.354577689820  0.105847757841
  CEL2   CTO1     1  0.354577689820  0.105847757841
  CEL2   CTO2     1  0.354577689820  0.105847757841
  CEL2     HP     1  0.306308797271  0.183333694448
  CEL2      N     1  0.350123196229  0.010584775784
  CEL2  NC2D1     1  0.323396234685  0.473365563598
  CEL2  NG2S0     1  0.350123196229  0.010584775784
  CEL2  NG2S1     1  0.323396234685  0.473365563598
  CEL2    NH1     1  0.323396234685  0.473365563598
  CEL2    NHL     1  0.323396234685  0.473365563598
  CEL2      O     1  0.310032753913  0.366667388896
  CEL2     OB     1  0.310032753913  0.366667388896
  CEL2    OBL     1  0.310032753913  0.366667388896
  CEL2  OC2D1     1  0.310032753913  0.366667388896
  CEL2  OC2D3     1  0.310032753913  0.366667388896
  CEL2  OC2D4     1  0.310032753913  0.366667388896
  CEL2    OCA     1  0.310032753913  0.366667388896
  CEL2  OG2D1     1  0.310032753913  0.366667388896
  CEL2  OG2D3     1  0.310032753913  0.366667388896
  CEL2   OLG1     1  0.310032753913  0.366667388896
  CEL3  CG301     1  0.355468588538  0.109105371453
  CEL3  CG311     1  0.355468588538  0.109105371453
  CEL3  CG314     1  0.355468588538  0.109105371453
  CEL3  CG321     1  0.355468588538  0.109105371453
  CEL3  CG324     1  0.355468588538  0.109105371453
  CEL3  CG331     1  0.355468588538  0.109105371453
  CEL3  CG334     1  0.355468588538  0.109105371453
  CEL3 CG3C31     1  0.355468588538  0.109105371453
  CEL3 CG3C41     1  0.355468588538  0.109105371453
  CEL3 CG3C50     1  0.355468588538  0.109105371453
  CEL3 CG3C51     1  0.355468588538  0.109105371453
  CEL3 CG3C52     1  0.355468588538  0.109105371453
  CEL3 CG3C53     1  0.355468588538  0.109105371453
  CEL3 CG3C54     1  0.355468588538  0.109105371453
  CEL3 CG3RC1     1  0.355468588538  0.109105371453
  CEL3  CLG11     1  0.355468588538  0.109105371453
  CEL3  CLG12     1  0.355468588538  0.109105371453
  CEL3  CLG13     1  0.355468588538  0.109105371453
  CEL3  CLG14     1  0.355468588538  0.109105371453
  CEL3  CLG15     1  0.355468588538  0.109105371453
  CEL3  CLG16     1  0.355468588538  0.109105371453
  CEL3    CN6     1  0.355468588538  0.109105371453
  CEL3    CN7     1  0.355468588538  0.109105371453
  CEL3   CN7B     1  0.355468588538  0.109105371453
  CEL3   CN7E     1  0.355468588538  0.109105371453
  CEL3    CN8     1  0.355468588538  0.109105371453
  CEL3   CN8B     1  0.355468588538  0.109105371453
  CEL3    CN9     1  0.355468588538  0.109105371453
  CEL3    CP1     1  0.355468588538  0.109105371453
  CEL3    CP2     1  0.355468588538  0.109105371453
  CEL3    CP3     1  0.355468588538  0.109105371453
  CEL3   CPD1     1  0.355468588538  0.109105371453
  CEL3   CR33     1  0.355468588538  0.109105371453
  CEL3   CRL1     1  0.355468588538  0.109105371453
  CEL3   CRL2     1  0.355468588538  0.109105371453
  CEL3     CT     1  0.355468588538  0.109105371453
  CEL3    CT1     1  0.355468588538  0.109105371453
  CEL3   CT1X     1  0.355468588538  0.109105371453
  CEL3    CT2     1  0.355468588538  0.109105371453
  CEL3   CT2A     1  0.355468588538  0.109105371453
  CEL3   CT2P     1  0.355468588538  0.109105371453
  CEL3   CT2X     1  0.355468588538  0.109105371453
  CEL3    CT3     1  0.355468588538  0.109105371453
  CEL3   CT3X     1  0.355468588538  0.109105371453
  CEL3   CTD1     1  0.355468588538  0.109105371453
  CEL3   CTL1     1  0.355468588538  0.109105371453
  CEL3   CTL2     1  0.355468588538  0.109105371453
  CEL3   CTL3     1  0.355468588538  0.109105371453
  CEL3   CTL5     1  0.355468588538  0.109105371453
  CEL3   CTO1     1  0.355468588538  0.109105371453
  CEL3   CTO2     1  0.355468588538  0.109105371453
  CEL3     HP     1  0.307199695989  0.188976046736
  CEL3      N     1  0.351014094947  0.010910537145
  CEL3  NC2D1     1  0.324287133403  0.487934054561
  CEL3  NG2S0     1  0.351014094947  0.010910537145
  CEL3  NG2S1     1  0.324287133403  0.487934054561
  CEL3    NH1     1  0.324287133403  0.487934054561
  CEL3    NHL     1  0.324287133403  0.487934054561
  CEL3      O     1  0.310923652631  0.377952093472
  CEL3     OB     1  0.310923652631  0.377952093472
  CEL3    OBL     1  0.310923652631  0.377952093472
  CEL3  OC2D1     1  0.310923652631  0.377952093472
  CEL3  OC2D3     1  0.310923652631  0.377952093472
  CEL3  OC2D4     1  0.310923652631  0.377952093472
  CEL3    OCA     1  0.310923652631  0.377952093472
  CEL3  OG2D1     1  0.310923652631  0.377952093472
  CEL3  OG2D3     1  0.310923652631  0.377952093472
  CEL3   OLG1     1  0.310923652631  0.377952093472
   CES  CG301     1  0.356359487256  0.182376331798
   CES  CG311     1  0.356359487256  0.182376331798
   CES  CG314     1  0.356359487256  0.182376331798
   CES  CG321     1  0.356359487256  0.182376331798
   CES  CG324     1  0.356359487256  0.182376331798
   CES  CG331     1  0.356359487256  0.182376331798
   CES  CG334     1  0.356359487256  0.182376331798
   CES CG3C31     1  0.356359487256  0.182376331798
   CES CG3C41     1  0.356359487256  0.182376331798
   CES CG3C50     1  0.356359487256  0.182376331798
   CES CG3C51     1  0.356359487256  0.182376331798
   CES CG3C52     1  0.356359487256  0.182376331798
   CES CG3C53     1  0.356359487256  0.182376331798
   CES CG3C54     1  0.356359487256  0.182376331798
   CES CG3RC1     1  0.356359487256  0.182376331798
   CES  CLG11     1  0.356359487256  0.182376331798
   CES  CLG12     1  0.356359487256  0.182376331798
   CES  CLG13     1  0.356359487256  0.182376331798
   CES  CLG14     1  0.356359487256  0.182376331798
   CES  CLG15     1  0.356359487256  0.182376331798
   CES  CLG16     1  0.356359487256  0.182376331798
   CES    CN6     1  0.356359487256  0.182376331798
   CES    CN7     1  0.356359487256  0.182376331798
   CES   CN7B     1  0.356359487256  0.182376331798
   CES   CN7E     1  0.356359487256  0.182376331798
   CES    CN8     1  0.356359487256  0.182376331798
   CES   CN8B     1  0.356359487256  0.182376331798
   CES    CN9     1  0.356359487256  0.182376331798
   CES    CP1     1  0.356359487256  0.182376331798
   CES    CP2     1  0.356359487256  0.182376331798
   CES    CP3     1  0.356359487256  0.182376331798
   CES   CPD1     1  0.356359487256  0.182376331798
   CES   CR33     1  0.356359487256  0.182376331798
   CES   CRL1     1  0.356359487256  0.182376331798
   CES   CRL2     1  0.356359487256  0.182376331798
   CES     CT     1  0.356359487256  0.182376331798
   CES    CT1     1  0.356359487256  0.182376331798
   CES   CT1X     1  0.356359487256  0.182376331798
   CES    CT2     1  0.356359487256  0.182376331798
   CES   CT2A     1  0.356359487256  0.182376331798
   CES   CT2P     1  0.356359487256  0.182376331798
   CES   CT2X     1  0.356359487256  0.182376331798
   CES    CT3     1  0.356359487256  0.182376331798
   CES   CT3X     1  0.356359487256  0.182376331798
   CES   CTD1     1  0.356359487256  0.182376331798
   CES   CTL1     1  0.356359487256  0.182376331798
   CES   CTL2     1  0.356359487256  0.182376331798
   CES   CTL3     1  0.356359487256  0.182376331798
   CES   CTL5     1  0.356359487256  0.182376331798
   CES   CTO1     1  0.356359487256  0.182376331798
   CES   CTO2     1  0.356359487256  0.182376331798
   CES     HP     1  0.308090594707  0.315885072772
   CES      N     1  0.351904993665  0.018237633180
   CES  NC2D1     1  0.325178032121  0.815611750774
   CES  NG2S0     1  0.351904993665  0.018237633180
   CES  NG2S1     1  0.325178032121  0.815611750774
   CES    NH1     1  0.325178032121  0.815611750774
   CES    NHL     1  0.325178032121  0.815611750774
   CES      O     1  0.311814551349  0.631770145543
   CES     OB     1  0.311814551349  0.631770145543
   CES    OBL     1  0.311814551349  0.631770145543
   CES  OC2D1     1  0.311814551349  0.631770145543
   CES  OC2D3     1  0.311814551349  0.631770145543
   CES  OC2D4     1  0.311814551349  0.631770145543
   CES    OCA     1  0.311814551349  0.631770145543
   CES  OG2D1     1  0.311814551349  0.631770145543
   CES  OG2D3     1  0.311814551349  0.631770145543
   CES   OLG1     1  0.311814551349  0.631770145543
   CF1  CG301     1  0.338541512893  0.102486650838
   CF1  CG311     1  0.338541512893  0.102486650838
   CF1  CG314     1  0.338541512893  0.102486650838
   CF1  CG321     1  0.338541512893  0.102486650838
   CF1  CG324     1  0.338541512893  0.102486650838
   CF1  CG331     1  0.338541512893  0.102486650838
   CF1  CG334     1  0.338541512893  0.102486650838
   CF1 CG3C31     1  0.338541512893  0.102486650838
   CF1 CG3C41     1  0.338541512893  0.102486650838
   CF1 CG3C50     1  0.338541512893  0.102486650838
   CF1 CG3C51     1  0.338541512893  0.102486650838
   CF1 CG3C52     1  0.338541512893  0.102486650838
   CF1 CG3C53     1  0.338541512893  0.102486650838
   CF1 CG3C54     1  0.338541512893  0.102486650838
   CF1 CG3RC1     1  0.338541512893  0.102486650838
   CF1  CLG11     1  0.338541512893  0.102486650838
   CF1  CLG12     1  0.338541512893  0.102486650838
   CF1  CLG13     1  0.338541512893  0.102486650838
   CF1  CLG14     1  0.338541512893  0.102486650838
   CF1  CLG15     1  0.338541512893  0.102486650838
   CF1  CLG16     1  0.338541512893  0.102486650838
   CF1    CN6     1  0.338541512893  0.102486650838
   CF1    CN7     1  0.338541512893  0.102486650838
   CF1   CN7B     1  0.338541512893  0.102486650838
   CF1   CN7E     1  0.338541512893  0.102486650838
   CF1    CN8     1  0.338541512893  0.102486650838
   CF1   CN8B     1  0.338541512893  0.102486650838
   CF1    CN9     1  0.338541512893  0.102486650838
   CF1    CP1     1  0.338541512893  0.102486650838
   CF1    CP2     1  0.338541512893  0.102486650838
   CF1    CP3     1  0.338541512893  0.102486650838
   CF1   CPD1     1  0.338541512893  0.102486650838
   CF1   CR33     1  0.338541512893  0.102486650838
   CF1   CRL1     1  0.338541512893  0.102486650838
   CF1   CRL2     1  0.338541512893  0.102486650838
   CF1     CT     1  0.338541512893  0.102486650838
   CF1    CT1     1  0.338541512893  0.102486650838
   CF1   CT1X     1  0.338541512893  0.102486650838
   CF1    CT2     1  0.338541512893  0.102486650838
   CF1   CT2A     1  0.338541512893  0.102486650838
   CF1   CT2P     1  0.338541512893  0.102486650838
   CF1   CT2X     1  0.338541512893  0.102486650838
   CF1    CT3     1  0.338541512893  0.102486650838
   CF1   CT3X     1  0.338541512893  0.102486650838
   CF1   CTD1     1  0.338541512893  0.102486650838
   CF1   CTL1     1  0.338541512893  0.102486650838
   CF1   CTL2     1  0.338541512893  0.102486650838
   CF1   CTL3     1  0.338541512893  0.102486650838
   CF1   CTL5     1  0.338541512893  0.102486650838
   CF1   CTO1     1  0.338541512893  0.102486650838
   CF1   CTO2     1  0.338541512893  0.102486650838
   CF1     HP     1  0.290272620344  0.177512086349
   CF1      N     1  0.334087019303  0.010248665084
   CF1  NC2D1     1  0.307360057758  0.458334236120
   CF1  NG2S0     1  0.334087019303  0.010248665084
   CF1  NG2S1     1  0.307360057758  0.458334236120
   CF1    NH1     1  0.307360057758  0.458334236120
   CF1    NHL     1  0.307360057758  0.458334236120
   CF1      O     1  0.293996576986  0.355024172698
   CF1     OB     1  0.293996576986  0.355024172698
   CF1    OBL     1  0.293996576986  0.355024172698
   CF1  OC2D1     1  0.293996576986  0.355024172698
   CF1  OC2D3     1  0.293996576986  0.355024172698
   CF1  OC2D4     1  0.293996576986  0.355024172698
   CF1    OCA     1  0.293996576986  0.355024172698
   CF1  OG2D1     1  0.293996576986  0.355024172698
   CF1  OG2D3     1  0.293996576986  0.355024172698
   CF1   OLG1     1  0.293996576986  0.355024172698
   CF2  CG301     1  0.351904993665  0.085746484010
   CF2  CG311     1  0.351904993665  0.085746484010
   CF2  CG314     1  0.351904993665  0.085746484010
   CF2  CG321     1  0.351904993665  0.085746484010
   CF2  CG324     1  0.351904993665  0.085746484010
   CF2  CG331     1  0.351904993665  0.085746484010
   CF2  CG334     1  0.351904993665  0.085746484010
   CF2 CG3C31     1  0.351904993665  0.085746484010
   CF2 CG3C41     1  0.351904993665  0.085746484010
   CF2 CG3C50     1  0.351904993665  0.085746484010
   CF2 CG3C51     1  0.351904993665  0.085746484010
   CF2 CG3C52     1  0.351904993665  0.085746484010
   CF2 CG3C53     1  0.351904993665  0.085746484010
   CF2 CG3C54     1  0.351904993665  0.085746484010
   CF2 CG3RC1     1  0.351904993665  0.085746484010
   CF2  CLG11     1  0.351904993665  0.085746484010
   CF2  CLG12     1  0.351904993665  0.085746484010
   CF2  CLG13     1  0.351904993665  0.085746484010
   CF2  CLG14     1  0.351904993665  0.085746484010
   CF2  CLG15     1  0.351904993665  0.085746484010
   CF2  CLG16     1  0.351904993665  0.085746484010
   CF2    CN6     1  0.351904993665  0.085746484010
   CF2    CN7     1  0.351904993665  0.085746484010
   CF2   CN7B     1  0.351904993665  0.085746484010
   CF2   CN7E     1  0.351904993665  0.085746484010
   CF2    CN8     1  0.351904993665  0.085746484010
   CF2   CN8B     1  0.351904993665  0.085746484010
   CF2    CN9     1  0.351904993665  0.085746484010
   CF2    CP1     1  0.351904993665  0.085746484010
   CF2    CP2     1  0.351904993665  0.085746484010
   CF2    CP3     1  0.351904993665  0.085746484010
   CF2   CPD1     1  0.351904993665  0.085746484010
   CF2   CR33     1  0.351904993665  0.085746484010
   CF2   CRL1     1  0.351904993665  0.085746484010
   CF2   CRL2     1  0.351904993665  0.085746484010
   CF2     CT     1  0.351904993665  0.085746484010
   CF2    CT1     1  0.351904993665  0.085746484010
   CF2   CT1X     1  0.351904993665  0.085746484010
   CF2    CT2     1  0.351904993665  0.085746484010
   CF2   CT2A     1  0.351904993665  0.085746484010
   CF2   CT2P     1  0.351904993665  0.085746484010
   CF2   CT2X     1  0.351904993665  0.085746484010
   CF2    CT3     1  0.351904993665  0.085746484010
   CF2   CT3X     1  0.351904993665  0.085746484010
   CF2   CTD1     1  0.351904993665  0.085746484010
   CF2   CTL1     1  0.351904993665  0.085746484010
   CF2   CTL2     1  0.351904993665  0.085746484010
   CF2   CTL3     1  0.351904993665  0.085746484010
   CF2   CTL5     1  0.351904993665  0.085746484010
   CF2   CTO1     1  0.351904993665  0.085746484010
   CF2   CTO2     1  0.351904993665  0.085746484010
   CF2     HP     1  0.303636101117  0.148517266875
   CF2      N     1  0.347450500075  0.008574648401
   CF2  NC2D1     1  0.320723538531  0.383469934154
   CF2  NG2S0     1  0.347450500075  0.008574648401
   CF2  NG2S1     1  0.320723538531  0.383469934154
   CF2    NH1     1  0.320723538531  0.383469934154
   CF2    NHL     1  0.320723538531  0.383469934154
   CF2      O     1  0.307360057758  0.297034533750
   CF2     OB     1  0.307360057758  0.297034533750
   CF2    OBL     1  0.307360057758  0.297034533750
   CF2  OC2D1     1  0.307360057758  0.297034533750
   CF2  OC2D3     1  0.307360057758  0.297034533750
   CF2  OC2D4     1  0.307360057758  0.297034533750
   CF2    OCA     1  0.307360057758  0.297034533750
   CF2  OG2D1     1  0.307360057758  0.297034533750
   CF2  OG2D3     1  0.307360057758  0.297034533750
   CF2   OLG1     1  0.307360057758  0.297034533750
   CF3  CG301     1  0.374177461619  0.059170695450
   CF3  CG311     1  0.374177461619  0.059170695450
   CF3  CG314     1  0.374177461619  0.059170695450
   CF3  CG321     1  0.374177461619  0.059170695450
   CF3  CG324     1  0.374177461619  0.059170695450
   CF3  CG331     1  0.374177461619  0.059170695450
   CF3  CG334     1  0.374177461619  0.059170695450
   CF3 CG3C31     1  0.374177461619  0.059170695450
   CF3 CG3C41     1  0.374177461619  0.059170695450
   CF3 CG3C50     1  0.374177461619  0.059170695450
   CF3 CG3C51     1  0.374177461619  0.059170695450
   CF3 CG3C52     1  0.374177461619  0.059170695450
   CF3 CG3C53     1  0.374177461619  0.059170695450
   CF3 CG3C54     1  0.374177461619  0.059170695450
   CF3 CG3RC1     1  0.374177461619  0.059170695450
   CF3  CLG11     1  0.374177461619  0.059170695450
   CF3  CLG12     1  0.374177461619  0.059170695450
   CF3  CLG13     1  0.374177461619  0.059170695450
   CF3  CLG14     1  0.374177461619  0.059170695450
   CF3  CLG15     1  0.374177461619  0.059170695450
   CF3  CLG16     1  0.374177461619  0.059170695450
   CF3    CN6     1  0.374177461619  0.059170695450
   CF3    CN7     1  0.374177461619  0.059170695450
   CF3   CN7B     1  0.374177461619  0.059170695450
   CF3   CN7E     1  0.374177461619  0.059170695450
   CF3    CN8     1  0.374177461619  0.059170695450
   CF3   CN8B     1  0.374177461619  0.059170695450
   CF3    CN9     1  0.374177461619  0.059170695450
   CF3    CP1     1  0.374177461619  0.059170695450
   CF3    CP2     1  0.374177461619  0.059170695450
   CF3    CP3     1  0.374177461619  0.059170695450
   CF3   CPD1     1  0.374177461619  0.059170695450
   CF3   CR33     1  0.374177461619  0.059170695450
   CF3   CRL1     1  0.374177461619  0.059170695450
   CF3   CRL2     1  0.374177461619  0.059170695450
   CF3     CT     1  0.374177461619  0.059170695450
   CF3    CT1     1  0.374177461619  0.059170695450
   CF3   CT1X     1  0.374177461619  0.059170695450
   CF3    CT2     1  0.374177461619  0.059170695450
   CF3   CT2A     1  0.374177461619  0.059170695450
   CF3   CT2P     1  0.374177461619  0.059170695450
   CF3   CT2X     1  0.374177461619  0.059170695450
   CF3    CT3     1  0.374177461619  0.059170695450
   CF3   CT3X     1  0.374177461619  0.059170695450
   CF3   CTD1     1  0.374177461619  0.059170695450
   CF3   CTL1     1  0.374177461619  0.059170695450
   CF3   CTL2     1  0.374177461619  0.059170695450
   CF3   CTL3     1  0.374177461619  0.059170695450
   CF3   CTL5     1  0.374177461619  0.059170695450
   CF3   CTO1     1  0.374177461619  0.059170695450
   CF3   CTO2     1  0.374177461619  0.059170695450
   CF3     HP     1  0.325908569070  0.102486650838
   CF3      N     1  0.369722968028  0.005917069545
   CF3  NC2D1     1  0.342996006484  0.264619394603
   CF3  NG2S0     1  0.369722968028  0.005917069545
   CF3  NG2S1     1  0.342996006484  0.264619394603
   CF3    NH1     1  0.342996006484  0.264619394603
   CF3    NHL     1  0.342996006484  0.264619394603
   CF3      O     1  0.329632525712  0.204973301676
   CF3     OB     1  0.329632525712  0.204973301676
   CF3    OBL     1  0.329632525712  0.204973301676
   CF3  OC2D1     1  0.329632525712  0.204973301676
   CF3  OC2D3     1  0.329632525712  0.204973301676
   CF3  OC2D4     1  0.329632525712  0.204973301676
   CF3    OCA     1  0.329632525712  0.204973301676
   CF3  OG2D1     1  0.329632525712  0.204973301676
   CF3  OG2D3     1  0.329632525712  0.204973301676
   CF3   OLG1     1  0.329632525712  0.204973301676
 CG1N1  CG301     1  0.335868816739  0.177512086349
 CG1N1  CG311     1  0.335868816739  0.177512086349
 CG1N1  CG314     1  0.335868816739  0.177512086349
 CG1N1  CG321     1  0.335868816739  0.177512086349
 CG1N1  CG324     1  0.335868816739  0.177512086349
 CG1N1  CG331     1  0.335868816739  0.177512086349
 CG1N1  CG334     1  0.335868816739  0.177512086349
 CG1N1 CG3C31     1  0.335868816739  0.177512086349
 CG1N1 CG3C41     1  0.335868816739  0.177512086349
 CG1N1 CG3C50     1  0.335868816739  0.177512086349
 CG1N1 CG3C51     1  0.335868816739  0.177512086349
 CG1N1 CG3C52     1  0.335868816739  0.177512086349
 CG1N1 CG3C53     1  0.335868816739  0.177512086349
 CG1N1 CG3C54     1  0.335868816739  0.177512086349
 CG1N1 CG3RC1     1  0.335868816739  0.177512086349
 CG1N1  CLG11     1  0.335868816739  0.177512086349
 CG1N1  CLG12     1  0.335868816739  0.177512086349
 CG1N1  CLG13     1  0.335868816739  0.177512086349
 CG1N1  CLG14     1  0.335868816739  0.177512086349
 CG1N1  CLG15     1  0.335868816739  0.177512086349
 CG1N1  CLG16     1  0.335868816739  0.177512086349
 CG1N1    CN6     1  0.335868816739  0.177512086349
 CG1N1    CN7     1  0.335868816739  0.177512086349
 CG1N1   CN7B     1  0.335868816739  0.177512086349
 CG1N1   CN7E     1  0.335868816739  0.177512086349
 CG1N1    CN8     1  0.335868816739  0.177512086349
 CG1N1   CN8B     1  0.335868816739  0.177512086349
 CG1N1    CN9     1  0.335868816739  0.177512086349
 CG1N1    CP1     1  0.335868816739  0.177512086349
 CG1N1    CP2     1  0.335868816739  0.177512086349
 CG1N1    CP3     1  0.335868816739  0.177512086349
 CG1N1   CPD1     1  0.335868816739  0.177512086349
 CG1N1   CR33     1  0.335868816739  0.177512086349
 CG1N1   CRL1     1  0.335868816739  0.177512086349
 CG1N1   CRL2     1  0.335868816739  0.177512086349
 CG1N1     CT     1  0.335868816739  0.177512086349
 CG1N1    CT1     1  0.335868816739  0.177512086349
 CG1N1   CT1X     1  0.335868816739  0.177512086349
 CG1N1    CT2     1  0.335868816739  0.177512086349
 CG1N1   CT2A     1  0.335868816739  0.177512086349
 CG1N1   CT2P     1  0.335868816739  0.177512086349
 CG1N1   CT2X     1  0.335868816739  0.177512086349
 CG1N1    CT3     1  0.335868816739  0.177512086349
 CG1N1   CT3X     1  0.335868816739  0.177512086349
 CG1N1   CTD1     1  0.335868816739  0.177512086349
 CG1N1   CTL1     1  0.335868816739  0.177512086349
 CG1N1   CTL2     1  0.335868816739  0.177512086349
 CG1N1   CTL3     1  0.335868816739  0.177512086349
 CG1N1   CTL5     1  0.335868816739  0.177512086349
 CG1N1   CTO1     1  0.335868816739  0.177512086349
 CG1N1   CTO2     1  0.335868816739  0.177512086349
 CG1N1     HP     1  0.287599924190  0.307459952514
 CG1N1      N     1  0.331414323148  0.017751208635
 CG1N1  NC2D1     1  0.304687361604  0.793858183809
 CG1N1  NG2S0     1  0.331414323148  0.017751208635
 CG1N1  NG2S1     1  0.304687361604  0.793858183809
 CG1N1    NH1     1  0.304687361604  0.793858183809
 CG1N1    NHL     1  0.304687361604  0.793858183809
 CG1N1      O     1  0.291323880832  0.614919905028
 CG1N1     OB     1  0.291323880832  0.614919905028
 CG1N1    OBL     1  0.291323880832  0.614919905028
 CG1N1  OC2D1     1  0.291323880832  0.614919905028
 CG1N1  OC2D3     1  0.291323880832  0.614919905028
 CG1N1  OC2D4     1  0.291323880832  0.614919905028
 CG1N1    OCA     1  0.291323880832  0.614919905028
 CG1N1  OG2D1     1  0.291323880832  0.614919905028
 CG1N1  OG2D3     1  0.291323880832  0.614919905028
 CG1N1   OLG1     1  0.291323880832  0.614919905028
 CG1T1  CG301     1  0.333196120584  0.170981810495
 CG1T1  CG311     1  0.333196120584  0.170981810495
 CG1T1  CG314     1  0.333196120584  0.170981810495
 CG1T1  CG321     1  0.333196120584  0.170981810495
 CG1T1  CG324     1  0.333196120584  0.170981810495
 CG1T1  CG331     1  0.333196120584  0.170981810495
 CG1T1  CG334     1  0.333196120584  0.170981810495
 CG1T1 CG3C31     1  0.333196120584  0.170981810495
 CG1T1 CG3C41     1  0.333196120584  0.170981810495
 CG1T1 CG3C50     1  0.333196120584  0.170981810495
 CG1T1 CG3C51     1  0.333196120584  0.170981810495
 CG1T1 CG3C52     1  0.333196120584  0.170981810495
 CG1T1 CG3C53     1  0.333196120584  0.170981810495
 CG1T1 CG3C54     1  0.333196120584  0.170981810495
 CG1T1 CG3RC1     1  0.333196120584  0.170981810495
 CG1T1  CLG11     1  0.333196120584  0.170981810495
 CG1T1  CLG12     1  0.333196120584  0.170981810495
 CG1T1  CLG13     1  0.333196120584  0.170981810495
 CG1T1  CLG14     1  0.333196120584  0.170981810495
 CG1T1  CLG15     1  0.333196120584  0.170981810495
 CG1T1  CLG16     1  0.333196120584  0.170981810495
 CG1T1    CN6     1  0.333196120584  0.170981810495
 CG1T1    CN7     1  0.333196120584  0.170981810495
 CG1T1   CN7B     1  0.333196120584  0.170981810495
 CG1T1   CN7E     1  0.333196120584  0.170981810495
 CG1T1    CN8     1  0.333196120584  0.170981810495
 CG1T1   CN8B     1  0.333196120584  0.170981810495
 CG1T1    CN9     1  0.333196120584  0.170981810495
 CG1T1    CP1     1  0.333196120584  0.170981810495
 CG1T1    CP2     1  0.333196120584  0.170981810495
 CG1T1    CP3     1  0.333196120584  0.170981810495
 CG1T1   CPD1     1  0.333196120584  0.170981810495
 CG1T1   CR33     1  0.333196120584  0.170981810495
 CG1T1   CRL1     1  0.333196120584  0.170981810495
 CG1T1   CRL2     1  0.333196120584  0.170981810495
 CG1T1     CT     1  0.333196120584  0.170981810495
 CG1T1    CT1     1  0.333196120584  0.170981810495
 CG1T1   CT1X     1  0.333196120584  0.170981810495
 CG1T1    CT2     1  0.333196120584  0.170981810495
 CG1T1   CT2A     1  0.333196120584  0.170981810495
 CG1T1   CT2P     1  0.333196120584  0.170981810495
 CG1T1   CT2X     1  0.333196120584  0.170981810495
 CG1T1    CT3     1  0.333196120584  0.170981810495
 CG1T1   CT3X     1  0.333196120584  0.170981810495
 CG1T1   CTD1     1  0.333196120584  0.170981810495
 CG1T1   CTL1     1  0.333196120584  0.170981810495
 CG1T1   CTL2     1  0.333196120584  0.170981810495
 CG1T1   CTL3     1  0.333196120584  0.170981810495
 CG1T1   CTL5     1  0.333196120584  0.170981810495
 CG1T1   CTO1     1  0.333196120584  0.170981810495
 CG1T1   CTO2     1  0.333196120584  0.170981810495
 CG1T1     HP     1  0.284927228036  0.296149182947
 CG1T1      N     1  0.328741626994  0.017098181049
 CG1T1  NC2D1     1  0.302014665450  0.764653902364
 CG1T1  NG2S0     1  0.328741626994  0.017098181049
 CG1T1  NG2S1     1  0.302014665450  0.764653902364
 CG1T1    NH1     1  0.302014665450  0.764653902364
 CG1T1    NHL     1  0.302014665450  0.764653902364
 CG1T1      O     1  0.288651184677  0.592298365893
 CG1T1     OB     1  0.288651184677  0.592298365893
 CG1T1    OBL     1  0.288651184677  0.592298365893
 CG1T1  OC2D1     1  0.288651184677  0.592298365893
 CG1T1  OC2D3     1  0.288651184677  0.592298365893
 CG1T1  OC2D4     1  0.288651184677  0.592298365893
 CG1T1    OCA     1  0.288651184677  0.592298365893
 CG1T1  OG2D1     1  0.288651184677  0.592298365893
 CG1T1  OG2D3     1  0.288651184677  0.592298365893
 CG1T1   OLG1     1  0.288651184677  0.592298365893
 CG1T2  CG301     1  0.346782326036  0.134409982486
 CG1T2  CG311     1  0.346782326036  0.134409982486
 CG1T2  CG314     1  0.346782326036  0.134409982486
 CG1T2  CG321     1  0.346782326036  0.134409982486
 CG1T2  CG324     1  0.346782326036  0.134409982486
 CG1T2  CG331     1  0.346782326036  0.134409982486
 CG1T2  CG334     1  0.346782326036  0.134409982486
 CG1T2 CG3C31     1  0.346782326036  0.134409982486
 CG1T2 CG3C41     1  0.346782326036  0.134409982486
 CG1T2 CG3C50     1  0.346782326036  0.134409982486
 CG1T2 CG3C51     1  0.346782326036  0.134409982486
 CG1T2 CG3C52     1  0.346782326036  0.134409982486
 CG1T2 CG3C53     1  0.346782326036  0.134409982486
 CG1T2 CG3C54     1  0.346782326036  0.134409982486
 CG1T2 CG3RC1     1  0.346782326036  0.134409982486
 CG1T2  CLG11     1  0.346782326036  0.134409982486
 CG1T2  CLG12     1  0.346782326036  0.134409982486
 CG1T2  CLG13     1  0.346782326036  0.134409982486
 CG1T2  CLG14     1  0.346782326036  0.134409982486
 CG1T2  CLG15     1  0.346782326036  0.134409982486
 CG1T2  CLG16     1  0.346782326036  0.134409982486
 CG1T2    CN6     1  0.346782326036  0.134409982486
 CG1T2    CN7     1  0.346782326036  0.134409982486
 CG1T2   CN7B     1  0.346782326036  0.134409982486
 CG1T2   CN7E     1  0.346782326036  0.134409982486
 CG1T2    CN8     1  0.346782326036  0.134409982486
 CG1T2   CN8B     1  0.346782326036  0.134409982486
 CG1T2    CN9     1  0.346782326036  0.134409982486
 CG1T2    CP1     1  0.346782326036  0.134409982486
 CG1T2    CP2     1  0.346782326036  0.134409982486
 CG1T2    CP3     1  0.346782326036  0.134409982486
 CG1T2   CPD1     1  0.346782326036  0.134409982486
 CG1T2   CR33     1  0.346782326036  0.134409982486
 CG1T2   CRL1     1  0.346782326036  0.134409982486
 CG1T2   CRL2     1  0.346782326036  0.134409982486
 CG1T2     CT     1  0.346782326036  0.134409982486
 CG1T2    CT1     1  0.346782326036  0.134409982486
 CG1T2   CT1X     1  0.346782326036  0.134409982486
 CG1T2    CT2     1  0.346782326036  0.134409982486
 CG1T2   CT2A     1  0.346782326036  0.134409982486
 CG1T2   CT2P     1  0.346782326036  0.134409982486
 CG1T2   CT2X     1  0.346782326036  0.134409982486
 CG1T2    CT3     1  0.346782326036  0.134409982486
 CG1T2   CT3X     1  0.346782326036  0.134409982486
 CG1T2   CTD1     1  0.346782326036  0.134409982486
 CG1T2   CTL1     1  0.346782326036  0.134409982486
 CG1T2   CTL2     1  0.346782326036  0.134409982486
 CG1T2   CTL3     1  0.346782326036  0.134409982486
 CG1T2   CTL5     1  0.346782326036  0.134409982486
 CG1T2   CTO1     1  0.346782326036  0.134409982486
 CG1T2   CTO2     1  0.346782326036  0.134409982486
 CG1T2     HP     1  0.298513433487  0.232804918711
 CG1T2      N     1  0.342327832445  0.013440998249
 CG1T2  NC2D1     1  0.315600870901  0.601099715388
 CG1T2  NG2S0     1  0.342327832445  0.013440998249
 CG1T2  NG2S1     1  0.315600870901  0.601099715388
 CG1T2    NH1     1  0.315600870901  0.601099715388
 CG1T2    NHL     1  0.315600870901  0.601099715388
 CG1T2      O     1  0.302237390129  0.465609837422
 CG1T2     OB     1  0.302237390129  0.465609837422
 CG1T2    OBL     1  0.302237390129  0.465609837422
 CG1T2  OC2D1     1  0.302237390129  0.465609837422
 CG1T2  OC2D3     1  0.302237390129  0.465609837422
 CG1T2  OC2D4     1  0.302237390129  0.465609837422
 CG1T2    OCA     1  0.302237390129  0.465609837422
 CG1T2  OG2D1     1  0.302237390129  0.465609837422
 CG1T2  OG2D3     1  0.302237390129  0.465609837422
 CG1T2   OLG1     1  0.302237390129  0.465609837422
CG251O  CG301     1  0.355468588538  0.109105371453
CG251O  CG311     1  0.355468588538  0.109105371453
CG251O  CG314     1  0.355468588538  0.109105371453
CG251O  CG321     1  0.355468588538  0.109105371453
CG251O  CG324     1  0.355468588538  0.109105371453
CG251O  CG331     1  0.355468588538  0.109105371453
CG251O  CG334     1  0.355468588538  0.109105371453
CG251O CG3C31     1  0.355468588538  0.109105371453
CG251O CG3C41     1  0.355468588538  0.109105371453
CG251O CG3C50     1  0.355468588538  0.109105371453
CG251O CG3C51     1  0.355468588538  0.109105371453
CG251O CG3C52     1  0.355468588538  0.109105371453
CG251O CG3C53     1  0.355468588538  0.109105371453
CG251O CG3C54     1  0.355468588538  0.109105371453
CG251O CG3RC1     1  0.355468588538  0.109105371453
CG251O  CLG11     1  0.355468588538  0.109105371453
CG251O  CLG12     1  0.355468588538  0.109105371453
CG251O  CLG13     1  0.355468588538  0.109105371453
CG251O  CLG14     1  0.355468588538  0.109105371453
CG251O  CLG15     1  0.355468588538  0.109105371453
CG251O  CLG16     1  0.355468588538  0.109105371453
CG251O    CN6     1  0.355468588538  0.109105371453
CG251O    CN7     1  0.355468588538  0.109105371453
CG251O   CN7B     1  0.355468588538  0.109105371453
CG251O   CN7E     1  0.355468588538  0.109105371453
CG251O    CN8     1  0.355468588538  0.109105371453
CG251O   CN8B     1  0.355468588538  0.109105371453
CG251O    CN9     1  0.355468588538  0.109105371453
CG251O    CP1     1  0.355468588538  0.109105371453
CG251O    CP2     1  0.355468588538  0.109105371453
CG251O    CP3     1  0.355468588538  0.109105371453
CG251O   CPD1     1  0.355468588538  0.109105371453
CG251O   CR33     1  0.355468588538  0.109105371453
CG251O   CRL1     1  0.355468588538  0.109105371453
CG251O   CRL2     1  0.355468588538  0.109105371453
CG251O     CT     1  0.355468588538  0.109105371453
CG251O    CT1     1  0.355468588538  0.109105371453
CG251O   CT1X     1  0.355468588538  0.109105371453
CG251O    CT2     1  0.355468588538  0.109105371453
CG251O   CT2A     1  0.355468588538  0.109105371453
CG251O   CT2P     1  0.355468588538  0.109105371453
CG251O   CT2X     1  0.355468588538  0.109105371453
CG251O    CT3     1  0.355468588538  0.109105371453
CG251O   CT3X     1  0.355468588538  0.109105371453
CG251O   CTD1     1  0.355468588538  0.109105371453
CG251O   CTL1     1  0.355468588538  0.109105371453
CG251O   CTL2     1  0.355468588538  0.109105371453
CG251O   CTL3     1  0.355468588538  0.109105371453
CG251O   CTL5     1  0.355468588538  0.109105371453
CG251O   CTO1     1  0.355468588538  0.109105371453
CG251O   CTO2     1  0.355468588538  0.109105371453
CG251O     HP     1  0.307199695989  0.188976046736
CG251O      N     1  0.351014094947  0.010910537145
CG251O  NC2D1     1  0.324287133403  0.487934054561
CG251O  NG2S0     1  0.351014094947  0.010910537145
CG251O  NG2S1     1  0.324287133403  0.487934054561
CG251O    NH1     1  0.324287133403  0.487934054561
CG251O    NHL     1  0.324287133403  0.487934054561
CG251O      O     1  0.310923652631  0.377952093472
CG251O     OB     1  0.310923652631  0.377952093472
CG251O    OBL     1  0.310923652631  0.377952093472
CG251O  OC2D1     1  0.310923652631  0.377952093472
CG251O  OC2D3     1  0.310923652631  0.377952093472
CG251O  OC2D4     1  0.310923652631  0.377952093472
CG251O    OCA     1  0.310923652631  0.377952093472
CG251O  OG2D1     1  0.310923652631  0.377952093472
CG251O  OG2D3     1  0.310923652631  0.377952093472
CG251O   OLG1     1  0.310923652631  0.377952093472
CG252O  CG301     1  0.355468588538  0.109105371453
CG252O  CG311     1  0.355468588538  0.109105371453
CG252O  CG314     1  0.355468588538  0.109105371453
CG252O  CG321     1  0.355468588538  0.109105371453
CG252O  CG324     1  0.355468588538  0.109105371453
CG252O  CG331     1  0.355468588538  0.109105371453
CG252O  CG334     1  0.355468588538  0.109105371453
CG252O CG3C31     1  0.355468588538  0.109105371453
CG252O CG3C41     1  0.355468588538  0.109105371453
CG252O CG3C50     1  0.355468588538  0.109105371453
CG252O CG3C51     1  0.355468588538  0.109105371453
CG252O CG3C52     1  0.355468588538  0.109105371453
CG252O CG3C53     1  0.355468588538  0.109105371453
CG252O CG3C54     1  0.355468588538  0.109105371453
CG252O CG3RC1     1  0.355468588538  0.109105371453
CG252O  CLG11     1  0.355468588538  0.109105371453
CG252O  CLG12     1  0.355468588538  0.109105371453
CG252O  CLG13     1  0.355468588538  0.109105371453
CG252O  CLG14     1  0.355468588538  0.109105371453
CG252O  CLG15     1  0.355468588538  0.109105371453
CG252O  CLG16     1  0.355468588538  0.109105371453
CG252O    CN6     1  0.355468588538  0.109105371453
CG252O    CN7     1  0.355468588538  0.109105371453
CG252O   CN7B     1  0.355468588538  0.109105371453
CG252O   CN7E     1  0.355468588538  0.109105371453
CG252O    CN8     1  0.355468588538  0.109105371453
CG252O   CN8B     1  0.355468588538  0.109105371453
CG252O    CN9     1  0.355468588538  0.109105371453
CG252O    CP1     1  0.355468588538  0.109105371453
CG252O    CP2     1  0.355468588538  0.109105371453
CG252O    CP3     1  0.355468588538  0.109105371453
CG252O   CPD1     1  0.355468588538  0.109105371453
CG252O   CR33     1  0.355468588538  0.109105371453
CG252O   CRL1     1  0.355468588538  0.109105371453
CG252O   CRL2     1  0.355468588538  0.109105371453
CG252O     CT     1  0.355468588538  0.109105371453
CG252O    CT1     1  0.355468588538  0.109105371453
CG252O   CT1X     1  0.355468588538  0.109105371453
CG252O    CT2     1  0.355468588538  0.109105371453
CG252O   CT2A     1  0.355468588538  0.109105371453
CG252O   CT2P     1  0.355468588538  0.109105371453
CG252O   CT2X     1  0.355468588538  0.109105371453
CG252O    CT3     1  0.355468588538  0.109105371453
CG252O   CT3X     1  0.355468588538  0.109105371453
CG252O   CTD1     1  0.355468588538  0.109105371453
CG252O   CTL1     1  0.355468588538  0.109105371453
CG252O   CTL2     1  0.355468588538  0.109105371453
CG252O   CTL3     1  0.355468588538  0.109105371453
CG252O   CTL5     1  0.355468588538  0.109105371453
CG252O   CTO1     1  0.355468588538  0.109105371453
CG252O   CTO2     1  0.355468588538  0.109105371453
CG252O     HP     1  0.307199695989  0.188976046736
CG252O      N     1  0.351014094947  0.010910537145
CG252O  NC2D1     1  0.324287133403  0.487934054561
CG252O  NG2S0     1  0.351014094947  0.010910537145
CG252O  NG2S1     1  0.324287133403  0.487934054561
CG252O    NH1     1  0.324287133403  0.487934054561
CG252O    NHL     1  0.324287133403  0.487934054561
CG252O      O     1  0.310923652631  0.377952093472
CG252O     OB     1  0.310923652631  0.377952093472
CG252O    OBL     1  0.310923652631  0.377952093472
CG252O  OC2D1     1  0.310923652631  0.377952093472
CG252O  OC2D3     1  0.310923652631  0.377952093472
CG252O  OC2D4     1  0.310923652631  0.377952093472
CG252O    OCA     1  0.310923652631  0.377952093472
CG252O  OG2D1     1  0.310923652631  0.377952093472
CG252O  OG2D3     1  0.310923652631  0.377952093472
CG252O   OLG1     1  0.310923652631  0.377952093472
CG25C1  CG301     1  0.355468588538  0.109105371453
CG25C1  CG311     1  0.355468588538  0.109105371453
CG25C1  CG314     1  0.355468588538  0.109105371453
CG25C1  CG321     1  0.355468588538  0.109105371453
CG25C1  CG324     1  0.355468588538  0.109105371453
CG25C1  CG331     1  0.355468588538  0.109105371453
CG25C1  CG334     1  0.355468588538  0.109105371453
CG25C1 CG3C31     1  0.355468588538  0.109105371453
CG25C1 CG3C41     1  0.355468588538  0.109105371453
CG25C1 CG3C50     1  0.355468588538  0.109105371453
CG25C1 CG3C51     1  0.355468588538  0.109105371453
CG25C1 CG3C52     1  0.355468588538  0.109105371453
CG25C1 CG3C53     1  0.355468588538  0.109105371453
CG25C1 CG3C54     1  0.355468588538  0.109105371453
CG25C1 CG3RC1     1  0.355468588538  0.109105371453
CG25C1  CLG11     1  0.355468588538  0.109105371453
CG25C1  CLG12     1  0.355468588538  0.109105371453
CG25C1  CLG13     1  0.355468588538  0.109105371453
CG25C1  CLG14     1  0.355468588538  0.109105371453
CG25C1  CLG15     1  0.355468588538  0.109105371453
CG25C1  CLG16     1  0.355468588538  0.109105371453
CG25C1    CN6     1  0.355468588538  0.109105371453
CG25C1    CN7     1  0.355468588538  0.109105371453
CG25C1   CN7B     1  0.355468588538  0.109105371453
CG25C1   CN7E     1  0.355468588538  0.109105371453
CG25C1    CN8     1  0.355468588538  0.109105371453
CG25C1   CN8B     1  0.355468588538  0.109105371453
CG25C1    CN9     1  0.355468588538  0.109105371453
CG25C1    CP1     1  0.355468588538  0.109105371453
CG25C1    CP2     1  0.355468588538  0.109105371453
CG25C1    CP3     1  0.355468588538  0.109105371453
CG25C1   CPD1     1  0.355468588538  0.109105371453
CG25C1   CR33     1  0.355468588538  0.109105371453
CG25C1   CRL1     1  0.355468588538  0.109105371453
CG25C1   CRL2     1  0.355468588538  0.109105371453
CG25C1     CT     1  0.355468588538  0.109105371453
CG25C1    CT1     1  0.355468588538  0.109105371453
CG25C1   CT1X     1  0.355468588538  0.109105371453
CG25C1    CT2     1  0.355468588538  0.109105371453
CG25C1   CT2A     1  0.355468588538  0.109105371453
CG25C1   CT2P     1  0.355468588538  0.109105371453
CG25C1   CT2X     1  0.355468588538  0.109105371453
CG25C1    CT3     1  0.355468588538  0.109105371453
CG25C1   CT3X     1  0.355468588538  0.109105371453
CG25C1   CTD1     1  0.355468588538  0.109105371453
CG25C1   CTL1     1  0.355468588538  0.109105371453
CG25C1   CTL2     1  0.355468588538  0.109105371453
CG25C1   CTL3     1  0.355468588538  0.109105371453
CG25C1   CTL5     1  0.355468588538  0.109105371453
CG25C1   CTO1     1  0.355468588538  0.109105371453
CG25C1   CTO2     1  0.355468588538  0.109105371453
CG25C1     HP     1  0.307199695989  0.188976046736
CG25C1      N     1  0.351014094947  0.010910537145
CG25C1  NC2D1     1  0.324287133403  0.487934054561
CG25C1  NG2S0     1  0.351014094947  0.010910537145
CG25C1  NG2S1     1  0.324287133403  0.487934054561
CG25C1    NH1     1  0.324287133403  0.487934054561
CG25C1    NHL     1  0.324287133403  0.487934054561
CG25C1      O     1  0.310923652631  0.377952093472
CG25C1     OB     1  0.310923652631  0.377952093472
CG25C1    OBL     1  0.310923652631  0.377952093472
CG25C1  OC2D1     1  0.310923652631  0.377952093472
CG25C1  OC2D3     1  0.310923652631  0.377952093472
CG25C1  OC2D4     1  0.310923652631  0.377952093472
CG25C1    OCA     1  0.310923652631  0.377952093472
CG25C1  OG2D1     1  0.310923652631  0.377952093472
CG25C1  OG2D3     1  0.310923652631  0.377952093472
CG25C1   OLG1     1  0.310923652631  0.377952093472
CG25C2  CG301     1  0.355468588538  0.109105371453
CG25C2  CG311     1  0.355468588538  0.109105371453
CG25C2  CG314     1  0.355468588538  0.109105371453
CG25C2  CG321     1  0.355468588538  0.109105371453
CG25C2  CG324     1  0.355468588538  0.109105371453
CG25C2  CG331     1  0.355468588538  0.109105371453
CG25C2  CG334     1  0.355468588538  0.109105371453
CG25C2 CG3C31     1  0.355468588538  0.109105371453
CG25C2 CG3C41     1  0.355468588538  0.109105371453
CG25C2 CG3C50     1  0.355468588538  0.109105371453
CG25C2 CG3C51     1  0.355468588538  0.109105371453
CG25C2 CG3C52     1  0.355468588538  0.109105371453
CG25C2 CG3C53     1  0.355468588538  0.109105371453
CG25C2 CG3C54     1  0.355468588538  0.109105371453
CG25C2 CG3RC1     1  0.355468588538  0.109105371453
CG25C2  CLG11     1  0.355468588538  0.109105371453
CG25C2  CLG12     1  0.355468588538  0.109105371453
CG25C2  CLG13     1  0.355468588538  0.109105371453
CG25C2  CLG14     1  0.355468588538  0.109105371453
CG25C2  CLG15     1  0.355468588538  0.109105371453
CG25C2  CLG16     1  0.355468588538  0.109105371453
CG25C2    CN6     1  0.355468588538  0.109105371453
CG25C2    CN7     1  0.355468588538  0.109105371453
CG25C2   CN7B     1  0.355468588538  0.109105371453
CG25C2   CN7E     1  0.355468588538  0.109105371453
CG25C2    CN8     1  0.355468588538  0.109105371453
CG25C2   CN8B     1  0.355468588538  0.109105371453
CG25C2    CN9     1  0.355468588538  0.109105371453
CG25C2    CP1     1  0.355468588538  0.109105371453
CG25C2    CP2     1  0.355468588538  0.109105371453
CG25C2    CP3     1  0.355468588538  0.109105371453
CG25C2   CPD1     1  0.355468588538  0.109105371453
CG25C2   CR33     1  0.355468588538  0.109105371453
CG25C2   CRL1     1  0.355468588538  0.109105371453
CG25C2   CRL2     1  0.355468588538  0.109105371453
CG25C2     CT     1  0.355468588538  0.109105371453
CG25C2    CT1     1  0.355468588538  0.109105371453
CG25C2   CT1X     1  0.355468588538  0.109105371453
CG25C2    CT2     1  0.355468588538  0.109105371453
CG25C2   CT2A     1  0.355468588538  0.109105371453
CG25C2   CT2P     1  0.355468588538  0.109105371453
CG25C2   CT2X     1  0.355468588538  0.109105371453
CG25C2    CT3     1  0.355468588538  0.109105371453
CG25C2   CT3X     1  0.355468588538  0.109105371453
CG25C2   CTD1     1  0.355468588538  0.109105371453
CG25C2   CTL1     1  0.355468588538  0.109105371453
CG25C2   CTL2     1  0.355468588538  0.109105371453
CG25C2   CTL3     1  0.355468588538  0.109105371453
CG25C2   CTL5     1  0.355468588538  0.109105371453
CG25C2   CTO1     1  0.355468588538  0.109105371453
CG25C2   CTO2     1  0.355468588538  0.109105371453
CG25C2     HP     1  0.307199695989  0.188976046736
CG25C2      N     1  0.351014094947  0.010910537145
CG25C2  NC2D1     1  0.324287133403  0.487934054561
CG25C2  NG2S0     1  0.351014094947  0.010910537145
CG25C2  NG2S1     1  0.324287133403  0.487934054561
CG25C2    NH1     1  0.324287133403  0.487934054561
CG25C2    NHL     1  0.324287133403  0.487934054561
CG25C2      O     1  0.310923652631  0.377952093472
CG25C2     OB     1  0.310923652631  0.377952093472
CG25C2    OBL     1  0.310923652631  0.377952093472
CG25C2  OC2D1     1  0.310923652631  0.377952093472
CG25C2  OC2D3     1  0.310923652631  0.377952093472
CG25C2  OC2D4     1  0.310923652631  0.377952093472
CG25C2    OCA     1  0.310923652631  0.377952093472
CG25C2  OG2D1     1  0.310923652631  0.377952093472
CG25C2  OG2D3     1  0.310923652631  0.377952093472
CG25C2   OLG1     1  0.310923652631  0.377952093472
 CG2D1  CG301     1  0.355468588538  0.109105371453
 CG2D1  CG311     1  0.355468588538  0.109105371453
 CG2D1  CG314     1  0.355468588538  0.109105371453
 CG2D1  CG321     1  0.355468588538  0.109105371453
 CG2D1  CG324     1  0.355468588538  0.109105371453
 CG2D1  CG331     1  0.355468588538  0.109105371453
 CG2D1  CG334     1  0.355468588538  0.109105371453
 CG2D1 CG3C31     1  0.355468588538  0.109105371453
 CG2D1 CG3C41     1  0.355468588538  0.109105371453
 CG2D1 CG3C50     1  0.355468588538  0.109105371453
 CG2D1 CG3C51     1  0.355468588538  0.109105371453
 CG2D1 CG3C52     1  0.355468588538  0.109105371453
 CG2D1 CG3C53     1  0.355468588538  0.109105371453
 CG2D1 CG3C54     1  0.355468588538  0.109105371453
 CG2D1 CG3RC1     1  0.355468588538  0.109105371453
 CG2D1  CLG11     1  0.355468588538  0.109105371453
 CG2D1  CLG12     1  0.355468588538  0.109105371453
 CG2D1  CLG13     1  0.355468588538  0.109105371453
 CG2D1  CLG14     1  0.355468588538  0.109105371453
 CG2D1  CLG15     1  0.355468588538  0.109105371453
 CG2D1  CLG16     1  0.355468588538  0.109105371453
 CG2D1    CN6     1  0.355468588538  0.109105371453
 CG2D1    CN7     1  0.355468588538  0.109105371453
 CG2D1   CN7B     1  0.355468588538  0.109105371453
 CG2D1   CN7E     1  0.355468588538  0.109105371453
 CG2D1    CN8     1  0.355468588538  0.109105371453
 CG2D1   CN8B     1  0.355468588538  0.109105371453
 CG2D1    CN9     1  0.355468588538  0.109105371453
 CG2D1    CP1     1  0.355468588538  0.109105371453
 CG2D1    CP2     1  0.355468588538  0.109105371453
 CG2D1    CP3     1  0.355468588538  0.109105371453
 CG2D1   CPD1     1  0.355468588538  0.109105371453
 CG2D1   CR33     1  0.355468588538  0.109105371453
 CG2D1   CRL1     1  0.355468588538  0.109105371453
 CG2D1   CRL2     1  0.355468588538  0.109105371453
 CG2D1     CT     1  0.355468588538  0.109105371453
 CG2D1    CT1     1  0.355468588538  0.109105371453
 CG2D1   CT1X     1  0.355468588538  0.109105371453
 CG2D1    CT2     1  0.355468588538  0.109105371453
 CG2D1   CT2A     1  0.355468588538  0.109105371453
 CG2D1   CT2P     1  0.355468588538  0.109105371453
 CG2D1   CT2X     1  0.355468588538  0.109105371453
 CG2D1    CT3     1  0.355468588538  0.109105371453
 CG2D1   CT3X     1  0.355468588538  0.109105371453
 CG2D1   CTD1     1  0.355468588538  0.109105371453
 CG2D1   CTL1     1  0.355468588538  0.109105371453
 CG2D1   CTL2     1  0.355468588538  0.109105371453
 CG2D1   CTL3     1  0.355468588538  0.109105371453
 CG2D1   CTL5     1  0.355468588538  0.109105371453
 CG2D1   CTO1     1  0.355468588538  0.109105371453
 CG2D1   CTO2     1  0.355468588538  0.109105371453
 CG2D1     HP     1  0.307199695989  0.188976046736
 CG2D1      N     1  0.351014094947  0.010910537145
 CG2D1  NC2D1     1  0.324287133403  0.487934054561
 CG2D1  NG2S0     1  0.351014094947  0.010910537145
 CG2D1  NG2S1     1  0.324287133403  0.487934054561
 CG2D1    NH1     1  0.324287133403  0.487934054561
 CG2D1    NHL     1  0.324287133403  0.487934054561
 CG2D1      O     1  0.310923652631  0.377952093472
 CG2D1     OB     1  0.310923652631  0.377952093472
 CG2D1    OBL     1  0.310923652631  0.377952093472
 CG2D1  OC2D1     1  0.310923652631  0.377952093472
 CG2D1  OC2D3     1  0.310923652631  0.377952093472
 CG2D1  OC2D4     1  0.310923652631  0.377952093472
 CG2D1    OCA     1  0.310923652631  0.377952093472
 CG2D1  OG2D1     1  0.310923652631  0.377952093472
 CG2D1  OG2D3     1  0.310923652631  0.377952093472
 CG2D1   OLG1     1  0.310923652631  0.377952093472
CG2D1O  CG301     1  0.355468588538  0.109105371453
CG2D1O  CG311     1  0.355468588538  0.109105371453
CG2D1O  CG314     1  0.355468588538  0.109105371453
CG2D1O  CG321     1  0.355468588538  0.109105371453
CG2D1O  CG324     1  0.355468588538  0.109105371453
CG2D1O  CG331     1  0.355468588538  0.109105371453
CG2D1O  CG334     1  0.355468588538  0.109105371453
CG2D1O CG3C31     1  0.355468588538  0.109105371453
CG2D1O CG3C41     1  0.355468588538  0.109105371453
CG2D1O CG3C50     1  0.355468588538  0.109105371453
CG2D1O CG3C51     1  0.355468588538  0.109105371453
CG2D1O CG3C52     1  0.355468588538  0.109105371453
CG2D1O CG3C53     1  0.355468588538  0.109105371453
CG2D1O CG3C54     1  0.355468588538  0.109105371453
CG2D1O CG3RC1     1  0.355468588538  0.109105371453
CG2D1O  CLG11     1  0.355468588538  0.109105371453
CG2D1O  CLG12     1  0.355468588538  0.109105371453
CG2D1O  CLG13     1  0.355468588538  0.109105371453
CG2D1O  CLG14     1  0.355468588538  0.109105371453
CG2D1O  CLG15     1  0.355468588538  0.109105371453
CG2D1O  CLG16     1  0.355468588538  0.109105371453
CG2D1O    CN6     1  0.355468588538  0.109105371453
CG2D1O    CN7     1  0.355468588538  0.109105371453
CG2D1O   CN7B     1  0.355468588538  0.109105371453
CG2D1O   CN7E     1  0.355468588538  0.109105371453
CG2D1O    CN8     1  0.355468588538  0.109105371453
CG2D1O   CN8B     1  0.355468588538  0.109105371453
CG2D1O    CN9     1  0.355468588538  0.109105371453
CG2D1O    CP1     1  0.355468588538  0.109105371453
CG2D1O    CP2     1  0.355468588538  0.109105371453
CG2D1O    CP3     1  0.355468588538  0.109105371453
CG2D1O   CPD1     1  0.355468588538  0.109105371453
CG2D1O   CR33     1  0.355468588538  0.109105371453
CG2D1O   CRL1     1  0.355468588538  0.109105371453
CG2D1O   CRL2     1  0.355468588538  0.109105371453
CG2D1O     CT     1  0.355468588538  0.109105371453
CG2D1O    CT1     1  0.355468588538  0.109105371453
CG2D1O   CT1X     1  0.355468588538  0.109105371453
CG2D1O    CT2     1  0.355468588538  0.109105371453
CG2D1O   CT2A     1  0.355468588538  0.109105371453
CG2D1O   CT2P     1  0.355468588538  0.109105371453
CG2D1O   CT2X     1  0.355468588538  0.109105371453
CG2D1O    CT3     1  0.355468588538  0.109105371453
CG2D1O   CT3X     1  0.355468588538  0.109105371453
CG2D1O   CTD1     1  0.355468588538  0.109105371453
CG2D1O   CTL1     1  0.355468588538  0.109105371453
CG2D1O   CTL2     1  0.355468588538  0.109105371453
CG2D1O   CTL3     1  0.355468588538  0.109105371453
CG2D1O   CTL5     1  0.355468588538  0.109105371453
CG2D1O   CTO1     1  0.355468588538  0.109105371453
CG2D1O   CTO2     1  0.355468588538  0.109105371453
CG2D1O     HP     1  0.307199695989  0.188976046736
CG2D1O      N     1  0.351014094947  0.010910537145
CG2D1O  NC2D1     1  0.324287133403  0.487934054561
CG2D1O  NG2S0     1  0.351014094947  0.010910537145
CG2D1O  NG2S1     1  0.324287133403  0.487934054561
CG2D1O    NH1     1  0.324287133403  0.487934054561
CG2D1O    NHL     1  0.324287133403  0.487934054561
CG2D1O      O     1  0.310923652631  0.377952093472
CG2D1O     OB     1  0.310923652631  0.377952093472
CG2D1O    OBL     1  0.310923652631  0.377952093472
CG2D1O  OC2D1     1  0.310923652631  0.377952093472
CG2D1O  OC2D3     1  0.310923652631  0.377952093472
CG2D1O  OC2D4     1  0.310923652631  0.377952093472
CG2D1O    OCA     1  0.310923652631  0.377952093472
CG2D1O  OG2D1     1  0.310923652631  0.377952093472
CG2D1O  OG2D3     1  0.310923652631  0.377952093472
CG2D1O   OLG1     1  0.310923652631  0.377952093472
 CG2D2  CG301     1  0.354577689820  0.105847757841
 CG2D2  CG311     1  0.354577689820  0.105847757841
 CG2D2  CG314     1  0.354577689820  0.105847757841
 CG2D2  CG321     1  0.354577689820  0.105847757841
 CG2D2  CG324     1  0.354577689820  0.105847757841
 CG2D2  CG331     1  0.354577689820  0.105847757841
 CG2D2  CG334     1  0.354577689820  0.105847757841
 CG2D2 CG3C31     1  0.354577689820  0.105847757841
 CG2D2 CG3C41     1  0.354577689820  0.105847757841
 CG2D2 CG3C50     1  0.354577689820  0.105847757841
 CG2D2 CG3C51     1  0.354577689820  0.105847757841
 CG2D2 CG3C52     1  0.354577689820  0.105847757841
 CG2D2 CG3C53     1  0.354577689820  0.105847757841
 CG2D2 CG3C54     1  0.354577689820  0.105847757841
 CG2D2 CG3RC1     1  0.354577689820  0.105847757841
 CG2D2  CLG11     1  0.354577689820  0.105847757841
 CG2D2  CLG12     1  0.354577689820  0.105847757841
 CG2D2  CLG13     1  0.354577689820  0.105847757841
 CG2D2  CLG14     1  0.354577689820  0.105847757841
 CG2D2  CLG15     1  0.354577689820  0.105847757841
 CG2D2  CLG16     1  0.354577689820  0.105847757841
 CG2D2    CN6     1  0.354577689820  0.105847757841
 CG2D2    CN7     1  0.354577689820  0.105847757841
 CG2D2   CN7B     1  0.354577689820  0.105847757841
 CG2D2   CN7E     1  0.354577689820  0.105847757841
 CG2D2    CN8     1  0.354577689820  0.105847757841
 CG2D2   CN8B     1  0.354577689820  0.105847757841
 CG2D2    CN9     1  0.354577689820  0.105847757841
 CG2D2    CP1     1  0.354577689820  0.105847757841
 CG2D2    CP2     1  0.354577689820  0.105847757841
 CG2D2    CP3     1  0.354577689820  0.105847757841
 CG2D2   CPD1     1  0.354577689820  0.105847757841
 CG2D2   CR33     1  0.354577689820  0.105847757841
 CG2D2   CRL1     1  0.354577689820  0.105847757841
 CG2D2   CRL2     1  0.354577689820  0.105847757841
 CG2D2     CT     1  0.354577689820  0.105847757841
 CG2D2    CT1     1  0.354577689820  0.105847757841
 CG2D2   CT1X     1  0.354577689820  0.105847757841
 CG2D2    CT2     1  0.354577689820  0.105847757841
 CG2D2   CT2A     1  0.354577689820  0.105847757841
 CG2D2   CT2P     1  0.354577689820  0.105847757841
 CG2D2   CT2X     1  0.354577689820  0.105847757841
 CG2D2    CT3     1  0.354577689820  0.105847757841
 CG2D2   CT3X     1  0.354577689820  0.105847757841
 CG2D2   CTD1     1  0.354577689820  0.105847757841
 CG2D2   CTL1     1  0.354577689820  0.105847757841
 CG2D2   CTL2     1  0.354577689820  0.105847757841
 CG2D2   CTL3     1  0.354577689820  0.105847757841
 CG2D2   CTL5     1  0.354577689820  0.105847757841
 CG2D2   CTO1     1  0.354577689820  0.105847757841
 CG2D2   CTO2     1  0.354577689820  0.105847757841
 CG2D2     HP     1  0.306308797271  0.183333694448
 CG2D2      N     1  0.350123196229  0.010584775784
 CG2D2  NC2D1     1  0.323396234685  0.473365563598
 CG2D2  NG2S0     1  0.350123196229  0.010584775784
 CG2D2  NG2S1     1  0.323396234685  0.473365563598
 CG2D2    NH1     1  0.323396234685  0.473365563598
 CG2D2    NHL     1  0.323396234685  0.473365563598
 CG2D2      O     1  0.310032753913  0.366667388896
 CG2D2     OB     1  0.310032753913  0.366667388896
 CG2D2    OBL     1  0.310032753913  0.366667388896
 CG2D2  OC2D1     1  0.310032753913  0.366667388896
 CG2D2  OC2D3     1  0.310032753913  0.366667388896
 CG2D2  OC2D4     1  0.310032753913  0.366667388896
 CG2D2    OCA     1  0.310032753913  0.366667388896
 CG2D2  OG2D1     1  0.310032753913  0.366667388896
 CG2D2  OG2D3     1  0.310032753913  0.366667388896
 CG2D2   OLG1     1  0.310032753913  0.366667388896
CG2D2O  CG301     1  0.355468588538  0.109105371453
CG2D2O  CG311     1  0.355468588538  0.109105371453
CG2D2O  CG314     1  0.355468588538  0.109105371453
CG2D2O  CG321     1  0.355468588538  0.109105371453
CG2D2O  CG324     1  0.355468588538  0.109105371453
CG2D2O  CG331     1  0.355468588538  0.109105371453
CG2D2O  CG334     1  0.355468588538  0.109105371453
CG2D2O CG3C31     1  0.355468588538  0.109105371453
CG2D2O CG3C41     1  0.355468588538  0.109105371453
CG2D2O CG3C50     1  0.355468588538  0.109105371453
CG2D2O CG3C51     1  0.355468588538  0.109105371453
CG2D2O CG3C52     1  0.355468588538  0.109105371453
CG2D2O CG3C53     1  0.355468588538  0.109105371453
CG2D2O CG3C54     1  0.355468588538  0.109105371453
CG2D2O CG3RC1     1  0.355468588538  0.109105371453
CG2D2O  CLG11     1  0.355468588538  0.109105371453
CG2D2O  CLG12     1  0.355468588538  0.109105371453
CG2D2O  CLG13     1  0.355468588538  0.109105371453
CG2D2O  CLG14     1  0.355468588538  0.109105371453
CG2D2O  CLG15     1  0.355468588538  0.109105371453
CG2D2O  CLG16     1  0.355468588538  0.109105371453
CG2D2O    CN6     1  0.355468588538  0.109105371453
CG2D2O    CN7     1  0.355468588538  0.109105371453
CG2D2O   CN7B     1  0.355468588538  0.109105371453
CG2D2O   CN7E     1  0.355468588538  0.109105371453
CG2D2O    CN8     1  0.355468588538  0.109105371453
CG2D2O   CN8B     1  0.355468588538  0.109105371453
CG2D2O    CN9     1  0.355468588538  0.109105371453
CG2D2O    CP1     1  0.355468588538  0.109105371453
CG2D2O    CP2     1  0.355468588538  0.109105371453
CG2D2O    CP3     1  0.355468588538  0.109105371453
CG2D2O   CPD1     1  0.355468588538  0.109105371453
CG2D2O   CR33     1  0.355468588538  0.109105371453
CG2D2O   CRL1     1  0.355468588538  0.109105371453
CG2D2O   CRL2     1  0.355468588538  0.109105371453
CG2D2O     CT     1  0.355468588538  0.109105371453
CG2D2O    CT1     1  0.355468588538  0.109105371453
CG2D2O   CT1X     1  0.355468588538  0.109105371453
CG2D2O    CT2     1  0.355468588538  0.109105371453
CG2D2O   CT2A     1  0.355468588538  0.109105371453
CG2D2O   CT2P     1  0.355468588538  0.109105371453
CG2D2O   CT2X     1  0.355468588538  0.109105371453
CG2D2O    CT3     1  0.355468588538  0.109105371453
CG2D2O   CT3X     1  0.355468588538  0.109105371453
CG2D2O   CTD1     1  0.355468588538  0.109105371453
CG2D2O   CTL1     1  0.355468588538  0.109105371453
CG2D2O   CTL2     1  0.355468588538  0.109105371453
CG2D2O   CTL3     1  0.355468588538  0.109105371453
CG2D2O   CTL5     1  0.355468588538  0.109105371453
CG2D2O   CTO1     1  0.355468588538  0.109105371453
CG2D2O   CTO2     1  0.355468588538  0.109105371453
CG2D2O     HP     1  0.307199695989  0.188976046736
CG2D2O      N     1  0.351014094947  0.010910537145
CG2D2O  NC2D1     1  0.324287133403  0.487934054561
CG2D2O  NG2S0     1  0.351014094947  0.010910537145
CG2D2O  NG2S1     1  0.324287133403  0.487934054561
CG2D2O    NH1     1  0.324287133403  0.487934054561
CG2D2O    NHL     1  0.324287133403  0.487934054561
CG2D2O      O     1  0.310923652631  0.377952093472
CG2D2O     OB     1  0.310923652631  0.377952093472
CG2D2O    OBL     1  0.310923652631  0.377952093472
CG2D2O  OC2D1     1  0.310923652631  0.377952093472
CG2D2O  OC2D3     1  0.310923652631  0.377952093472
CG2D2O  OC2D4     1  0.310923652631  0.377952093472
CG2D2O    OCA     1  0.310923652631  0.377952093472
CG2D2O  OG2D1     1  0.310923652631  0.377952093472
CG2D2O  OG2D3     1  0.310923652631  0.377952093472
CG2D2O   OLG1     1  0.310923652631  0.377952093472
CG2DC1  CG301     1  0.355468588538  0.109105371453
CG2DC1  CG311     1  0.355468588538  0.109105371453
CG2DC1  CG314     1  0.355468588538  0.109105371453
CG2DC1  CG321     1  0.355468588538  0.109105371453
CG2DC1  CG324     1  0.355468588538  0.109105371453
CG2DC1  CG331     1  0.355468588538  0.109105371453
CG2DC1  CG334     1  0.355468588538  0.109105371453
CG2DC1 CG3C31     1  0.355468588538  0.109105371453
CG2DC1 CG3C41     1  0.355468588538  0.109105371453
CG2DC1 CG3C50     1  0.355468588538  0.109105371453
CG2DC1 CG3C51     1  0.355468588538  0.109105371453
CG2DC1 CG3C52     1  0.355468588538  0.109105371453
CG2DC1 CG3C53     1  0.355468588538  0.109105371453
CG2DC1 CG3C54     1  0.355468588538  0.109105371453
CG2DC1 CG3RC1     1  0.355468588538  0.109105371453
CG2DC1  CLG11     1  0.355468588538  0.109105371453
CG2DC1  CLG12     1  0.355468588538  0.109105371453
CG2DC1  CLG13     1  0.355468588538  0.109105371453
CG2DC1  CLG14     1  0.355468588538  0.109105371453
CG2DC1  CLG15     1  0.355468588538  0.109105371453
CG2DC1  CLG16     1  0.355468588538  0.109105371453
CG2DC1    CN6     1  0.355468588538  0.109105371453
CG2DC1    CN7     1  0.355468588538  0.109105371453
CG2DC1   CN7B     1  0.355468588538  0.109105371453
CG2DC1   CN7E     1  0.355468588538  0.109105371453
CG2DC1    CN8     1  0.355468588538  0.109105371453
CG2DC1   CN8B     1  0.355468588538  0.109105371453
CG2DC1    CN9     1  0.355468588538  0.109105371453
CG2DC1    CP1     1  0.355468588538  0.109105371453
CG2DC1    CP2     1  0.355468588538  0.109105371453
CG2DC1    CP3     1  0.355468588538  0.109105371453
CG2DC1   CPD1     1  0.355468588538  0.109105371453
CG2DC1   CR33     1  0.355468588538  0.109105371453
CG2DC1   CRL1     1  0.355468588538  0.109105371453
CG2DC1   CRL2     1  0.355468588538  0.109105371453
CG2DC1     CT     1  0.355468588538  0.109105371453
CG2DC1    CT1     1  0.355468588538  0.109105371453
CG2DC1   CT1X     1  0.355468588538  0.109105371453
CG2DC1    CT2     1  0.355468588538  0.109105371453
CG2DC1   CT2A     1  0.355468588538  0.109105371453
CG2DC1   CT2P     1  0.355468588538  0.109105371453
CG2DC1   CT2X     1  0.355468588538  0.109105371453
CG2DC1    CT3     1  0.355468588538  0.109105371453
CG2DC1   CT3X     1  0.355468588538  0.109105371453
CG2DC1   CTD1     1  0.355468588538  0.109105371453
CG2DC1   CTL1     1  0.355468588538  0.109105371453
CG2DC1   CTL2     1  0.355468588538  0.109105371453
CG2DC1   CTL3     1  0.355468588538  0.109105371453
CG2DC1   CTL5     1  0.355468588538  0.109105371453
CG2DC1   CTO1     1  0.355468588538  0.109105371453
CG2DC1   CTO2     1  0.355468588538  0.109105371453
CG2DC1     HP     1  0.307199695989  0.188976046736
CG2DC1      N     1  0.351014094947  0.010910537145
CG2DC1  NC2D1     1  0.324287133403  0.487934054561
CG2DC1  NG2S0     1  0.351014094947  0.010910537145
CG2DC1  NG2S1     1  0.324287133403  0.487934054561
CG2DC1    NH1     1  0.324287133403  0.487934054561
CG2DC1    NHL     1  0.324287133403  0.487934054561
CG2DC1      O     1  0.310923652631  0.377952093472
CG2DC1     OB     1  0.310923652631  0.377952093472
CG2DC1    OBL     1  0.310923652631  0.377952093472
CG2DC1  OC2D1     1  0.310923652631  0.377952093472
CG2DC1  OC2D3     1  0.310923652631  0.377952093472
CG2DC1  OC2D4     1  0.310923652631  0.377952093472
CG2DC1    OCA     1  0.310923652631  0.377952093472
CG2DC1  OG2D1     1  0.310923652631  0.377952093472
CG2DC1  OG2D3     1  0.310923652631  0.377952093472
CG2DC1   OLG1     1  0.310923652631  0.377952093472
CG2DC2  CG301     1  0.355468588538  0.109105371453
CG2DC2  CG311     1  0.355468588538  0.109105371453
CG2DC2  CG314     1  0.355468588538  0.109105371453
CG2DC2  CG321     1  0.355468588538  0.109105371453
CG2DC2  CG324     1  0.355468588538  0.109105371453
CG2DC2  CG331     1  0.355468588538  0.109105371453
CG2DC2  CG334     1  0.355468588538  0.109105371453
CG2DC2 CG3C31     1  0.355468588538  0.109105371453
CG2DC2 CG3C41     1  0.355468588538  0.109105371453
CG2DC2 CG3C50     1  0.355468588538  0.109105371453
CG2DC2 CG3C51     1  0.355468588538  0.109105371453
CG2DC2 CG3C52     1  0.355468588538  0.109105371453
CG2DC2 CG3C53     1  0.355468588538  0.109105371453
CG2DC2 CG3C54     1  0.355468588538  0.109105371453
CG2DC2 CG3RC1     1  0.355468588538  0.109105371453
CG2DC2  CLG11     1  0.355468588538  0.109105371453
CG2DC2  CLG12     1  0.355468588538  0.109105371453
CG2DC2  CLG13     1  0.355468588538  0.109105371453
CG2DC2  CLG14     1  0.355468588538  0.109105371453
CG2DC2  CLG15     1  0.355468588538  0.109105371453
CG2DC2  CLG16     1  0.355468588538  0.109105371453
CG2DC2    CN6     1  0.355468588538  0.109105371453
CG2DC2    CN7     1  0.355468588538  0.109105371453
CG2DC2   CN7B     1  0.355468588538  0.109105371453
CG2DC2   CN7E     1  0.355468588538  0.109105371453
CG2DC2    CN8     1  0.355468588538  0.109105371453
CG2DC2   CN8B     1  0.355468588538  0.109105371453
CG2DC2    CN9     1  0.355468588538  0.109105371453
CG2DC2    CP1     1  0.355468588538  0.109105371453
CG2DC2    CP2     1  0.355468588538  0.109105371453
CG2DC2    CP3     1  0.355468588538  0.109105371453
CG2DC2   CPD1     1  0.355468588538  0.109105371453
CG2DC2   CR33     1  0.355468588538  0.109105371453
CG2DC2   CRL1     1  0.355468588538  0.109105371453
CG2DC2   CRL2     1  0.355468588538  0.109105371453
CG2DC2     CT     1  0.355468588538  0.109105371453
CG2DC2    CT1     1  0.355468588538  0.109105371453
CG2DC2   CT1X     1  0.355468588538  0.109105371453
CG2DC2    CT2     1  0.355468588538  0.109105371453
CG2DC2   CT2A     1  0.355468588538  0.109105371453
CG2DC2   CT2P     1  0.355468588538  0.109105371453
CG2DC2   CT2X     1  0.355468588538  0.109105371453
CG2DC2    CT3     1  0.355468588538  0.109105371453
CG2DC2   CT3X     1  0.355468588538  0.109105371453
CG2DC2   CTD1     1  0.355468588538  0.109105371453
CG2DC2   CTL1     1  0.355468588538  0.109105371453
CG2DC2   CTL2     1  0.355468588538  0.109105371453
CG2DC2   CTL3     1  0.355468588538  0.109105371453
CG2DC2   CTL5     1  0.355468588538  0.109105371453
CG2DC2   CTO1     1  0.355468588538  0.109105371453
CG2DC2   CTO2     1  0.355468588538  0.109105371453
CG2DC2     HP     1  0.307199695989  0.188976046736
CG2DC2      N     1  0.351014094947  0.010910537145
CG2DC2  NC2D1     1  0.324287133403  0.487934054561
CG2DC2  NG2S0     1  0.351014094947  0.010910537145
CG2DC2  NG2S1     1  0.324287133403  0.487934054561
CG2DC2    NH1     1  0.324287133403  0.487934054561
CG2DC2    NHL     1  0.324287133403  0.487934054561
CG2DC2      O     1  0.310923652631  0.377952093472
CG2DC2     OB     1  0.310923652631  0.377952093472
CG2DC2    OBL     1  0.310923652631  0.377952093472
CG2DC2  OC2D1     1  0.310923652631  0.377952093472
CG2DC2  OC2D3     1  0.310923652631  0.377952093472
CG2DC2  OC2D4     1  0.310923652631  0.377952093472
CG2DC2    OCA     1  0.310923652631  0.377952093472
CG2DC2  OG2D1     1  0.310923652631  0.377952093472
CG2DC2  OG2D3     1  0.310923652631  0.377952093472
CG2DC2   OLG1     1  0.310923652631  0.377952093472
CG2DC3  CG301     1  0.354577689820  0.105847757841
CG2DC3  CG311     1  0.354577689820  0.105847757841
CG2DC3  CG314     1  0.354577689820  0.105847757841
CG2DC3  CG321     1  0.354577689820  0.105847757841
CG2DC3  CG324     1  0.354577689820  0.105847757841
CG2DC3  CG331     1  0.354577689820  0.105847757841
CG2DC3  CG334     1  0.354577689820  0.105847757841
CG2DC3 CG3C31     1  0.354577689820  0.105847757841
CG2DC3 CG3C41     1  0.354577689820  0.105847757841
CG2DC3 CG3C50     1  0.354577689820  0.105847757841
CG2DC3 CG3C51     1  0.354577689820  0.105847757841
CG2DC3 CG3C52     1  0.354577689820  0.105847757841
CG2DC3 CG3C53     1  0.354577689820  0.105847757841
CG2DC3 CG3C54     1  0.354577689820  0.105847757841
CG2DC3 CG3RC1     1  0.354577689820  0.105847757841
CG2DC3  CLG11     1  0.354577689820  0.105847757841
CG2DC3  CLG12     1  0.354577689820  0.105847757841
CG2DC3  CLG13     1  0.354577689820  0.105847757841
CG2DC3  CLG14     1  0.354577689820  0.105847757841
CG2DC3  CLG15     1  0.354577689820  0.105847757841
CG2DC3  CLG16     1  0.354577689820  0.105847757841
CG2DC3    CN6     1  0.354577689820  0.105847757841
CG2DC3    CN7     1  0.354577689820  0.105847757841
CG2DC3   CN7B     1  0.354577689820  0.105847757841
CG2DC3   CN7E     1  0.354577689820  0.105847757841
CG2DC3    CN8     1  0.354577689820  0.105847757841
CG2DC3   CN8B     1  0.354577689820  0.105847757841
CG2DC3    CN9     1  0.354577689820  0.105847757841
CG2DC3    CP1     1  0.354577689820  0.105847757841
CG2DC3    CP2     1  0.354577689820  0.105847757841
CG2DC3    CP3     1  0.354577689820  0.105847757841
CG2DC3   CPD1     1  0.354577689820  0.105847757841
CG2DC3   CR33     1  0.354577689820  0.105847757841
CG2DC3   CRL1     1  0.354577689820  0.105847757841
CG2DC3   CRL2     1  0.354577689820  0.105847757841
CG2DC3     CT     1  0.354577689820  0.105847757841
CG2DC3    CT1     1  0.354577689820  0.105847757841
CG2DC3   CT1X     1  0.354577689820  0.105847757841
CG2DC3    CT2     1  0.354577689820  0.105847757841
CG2DC3   CT2A     1  0.354577689820  0.105847757841
CG2DC3   CT2P     1  0.354577689820  0.105847757841
CG2DC3   CT2X     1  0.354577689820  0.105847757841
CG2DC3    CT3     1  0.354577689820  0.105847757841
CG2DC3   CT3X     1  0.354577689820  0.105847757841
CG2DC3   CTD1     1  0.354577689820  0.105847757841
CG2DC3   CTL1     1  0.354577689820  0.105847757841
CG2DC3   CTL2     1  0.354577689820  0.105847757841
CG2DC3   CTL3     1  0.354577689820  0.105847757841
CG2DC3   CTL5     1  0.354577689820  0.105847757841
CG2DC3   CTO1     1  0.354577689820  0.105847757841
CG2DC3   CTO2     1  0.354577689820  0.105847757841
CG2DC3     HP     1  0.306308797271  0.183333694448
CG2DC3      N     1  0.350123196229  0.010584775784
CG2DC3  NC2D1     1  0.323396234685  0.473365563598
CG2DC3  NG2S0     1  0.350123196229  0.010584775784
CG2DC3  NG2S1     1  0.323396234685  0.473365563598
CG2DC3    NH1     1  0.323396234685  0.473365563598
CG2DC3    NHL     1  0.323396234685  0.473365563598
CG2DC3      O     1  0.310032753913  0.366667388896
CG2DC3     OB     1  0.310032753913  0.366667388896
CG2DC3    OBL     1  0.310032753913  0.366667388896
CG2DC3  OC2D1     1  0.310032753913  0.366667388896
CG2DC3  OC2D3     1  0.310032753913  0.366667388896
CG2DC3  OC2D4     1  0.310032753913  0.366667388896
CG2DC3    OCA     1  0.310032753913  0.366667388896
CG2DC3  OG2D1     1  0.310032753913  0.366667388896
CG2DC3  OG2D3     1  0.310032753913  0.366667388896
CG2DC3   OLG1     1  0.310032753913  0.366667388896
 CG2N1  CG301     1  0.347450500075  0.138767581228
 CG2N1  CG311     1  0.347450500075  0.138767581228
 CG2N1  CG314     1  0.347450500075  0.138767581228
 CG2N1  CG321     1  0.347450500075  0.138767581228
 CG2N1  CG324     1  0.347450500075  0.138767581228
 CG2N1  CG331     1  0.347450500075  0.138767581228
 CG2N1  CG334     1  0.347450500075  0.138767581228
 CG2N1 CG3C31     1  0.347450500075  0.138767581228
 CG2N1 CG3C41     1  0.347450500075  0.138767581228
 CG2N1 CG3C50     1  0.347450500075  0.138767581228
 CG2N1 CG3C51     1  0.347450500075  0.138767581228
 CG2N1 CG3C52     1  0.347450500075  0.138767581228
 CG2N1 CG3C53     1  0.347450500075  0.138767581228
 CG2N1 CG3C54     1  0.347450500075  0.138767581228
 CG2N1 CG3RC1     1  0.347450500075  0.138767581228
 CG2N1  CLG11     1  0.347450500075  0.138767581228
 CG2N1  CLG12     1  0.347450500075  0.138767581228
 CG2N1  CLG13     1  0.347450500075  0.138767581228
 CG2N1  CLG14     1  0.347450500075  0.138767581228
 CG2N1  CLG15     1  0.347450500075  0.138767581228
 CG2N1  CLG16     1  0.347450500075  0.138767581228
 CG2N1    CN6     1  0.347450500075  0.138767581228
 CG2N1    CN7     1  0.347450500075  0.138767581228
 CG2N1   CN7B     1  0.347450500075  0.138767581228
 CG2N1   CN7E     1  0.347450500075  0.138767581228
 CG2N1    CN8     1  0.347450500075  0.138767581228
 CG2N1   CN8B     1  0.347450500075  0.138767581228
 CG2N1    CN9     1  0.347450500075  0.138767581228
 CG2N1    CP1     1  0.347450500075  0.138767581228
 CG2N1    CP2     1  0.347450500075  0.138767581228
 CG2N1    CP3     1  0.347450500075  0.138767581228
 CG2N1   CPD1     1  0.347450500075  0.138767581228
 CG2N1   CR33     1  0.347450500075  0.138767581228
 CG2N1   CRL1     1  0.347450500075  0.138767581228
 CG2N1   CRL2     1  0.347450500075  0.138767581228
 CG2N1     CT     1  0.347450500075  0.138767581228
 CG2N1    CT1     1  0.347450500075  0.138767581228
 CG2N1   CT1X     1  0.347450500075  0.138767581228
 CG2N1    CT2     1  0.347450500075  0.138767581228
 CG2N1   CT2A     1  0.347450500075  0.138767581228
 CG2N1   CT2P     1  0.347450500075  0.138767581228
 CG2N1   CT2X     1  0.347450500075  0.138767581228
 CG2N1    CT3     1  0.347450500075  0.138767581228
 CG2N1   CT3X     1  0.347450500075  0.138767581228
 CG2N1   CTD1     1  0.347450500075  0.138767581228
 CG2N1   CTL1     1  0.347450500075  0.138767581228
 CG2N1   CTL2     1  0.347450500075  0.138767581228
 CG2N1   CTL3     1  0.347450500075  0.138767581228
 CG2N1   CTL5     1  0.347450500075  0.138767581228
 CG2N1   CTO1     1  0.347450500075  0.138767581228
 CG2N1   CTO2     1  0.347450500075  0.138767581228
 CG2N1     HP     1  0.299181607526  0.240352501131
 CG2N1      N     1  0.342996006484  0.013876758123
 CG2N1  NC2D1     1  0.316269044940  0.620587489400
 CG2N1  NG2S0     1  0.342996006484  0.013876758123
 CG2N1  NG2S1     1  0.316269044940  0.620587489400
 CG2N1    NH1     1  0.316269044940  0.620587489400
 CG2N1    NHL     1  0.316269044940  0.620587489400
 CG2N1      O     1  0.302905564168  0.480705002262
 CG2N1     OB     1  0.302905564168  0.480705002262
 CG2N1    OBL     1  0.302905564168  0.480705002262
 CG2N1  OC2D1     1  0.302905564168  0.480705002262
 CG2N1  OC2D3     1  0.302905564168  0.480705002262
 CG2N1  OC2D4     1  0.302905564168  0.480705002262
 CG2N1    OCA     1  0.302905564168  0.480705002262
 CG2N1  OG2D1     1  0.302905564168  0.480705002262
 CG2N1  OG2D3     1  0.302905564168  0.480705002262
 CG2N1   OLG1     1  0.302905564168  0.480705002262
 CG2N2  CG301     1  0.347450500075  0.138767581228
 CG2N2  CG311     1  0.347450500075  0.138767581228
 CG2N2  CG314     1  0.347450500075  0.138767581228
 CG2N2  CG321     1  0.347450500075  0.138767581228
 CG2N2  CG324     1  0.347450500075  0.138767581228
 CG2N2  CG331     1  0.347450500075  0.138767581228
 CG2N2  CG334     1  0.347450500075  0.138767581228
 CG2N2 CG3C31     1  0.347450500075  0.138767581228
 CG2N2 CG3C41     1  0.347450500075  0.138767581228
 CG2N2 CG3C50     1  0.347450500075  0.138767581228
 CG2N2 CG3C51     1  0.347450500075  0.138767581228
 CG2N2 CG3C52     1  0.347450500075  0.138767581228
 CG2N2 CG3C53     1  0.347450500075  0.138767581228
 CG2N2 CG3C54     1  0.347450500075  0.138767581228
 CG2N2 CG3RC1     1  0.347450500075  0.138767581228
 CG2N2  CLG11     1  0.347450500075  0.138767581228
 CG2N2  CLG12     1  0.347450500075  0.138767581228
 CG2N2  CLG13     1  0.347450500075  0.138767581228
 CG2N2  CLG14     1  0.347450500075  0.138767581228
 CG2N2  CLG15     1  0.347450500075  0.138767581228
 CG2N2  CLG16     1  0.347450500075  0.138767581228
 CG2N2    CN6     1  0.347450500075  0.138767581228
 CG2N2    CN7     1  0.347450500075  0.138767581228
 CG2N2   CN7B     1  0.347450500075  0.138767581228
 CG2N2   CN7E     1  0.347450500075  0.138767581228
 CG2N2    CN8     1  0.347450500075  0.138767581228
 CG2N2   CN8B     1  0.347450500075  0.138767581228
 CG2N2    CN9     1  0.347450500075  0.138767581228
 CG2N2    CP1     1  0.347450500075  0.138767581228
 CG2N2    CP2     1  0.347450500075  0.138767581228
 CG2N2    CP3     1  0.347450500075  0.138767581228
 CG2N2   CPD1     1  0.347450500075  0.138767581228
 CG2N2   CR33     1  0.347450500075  0.138767581228
 CG2N2   CRL1     1  0.347450500075  0.138767581228
 CG2N2   CRL2     1  0.347450500075  0.138767581228
 CG2N2     CT     1  0.347450500075  0.138767581228
 CG2N2    CT1     1  0.347450500075  0.138767581228
 CG2N2   CT1X     1  0.347450500075  0.138767581228
 CG2N2    CT2     1  0.347450500075  0.138767581228
 CG2N2   CT2A     1  0.347450500075  0.138767581228
 CG2N2   CT2P     1  0.347450500075  0.138767581228
 CG2N2   CT2X     1  0.347450500075  0.138767581228
 CG2N2    CT3     1  0.347450500075  0.138767581228
 CG2N2   CT3X     1  0.347450500075  0.138767581228
 CG2N2   CTD1     1  0.347450500075  0.138767581228
 CG2N2   CTL1     1  0.347450500075  0.138767581228
 CG2N2   CTL2     1  0.347450500075  0.138767581228
 CG2N2   CTL3     1  0.347450500075  0.138767581228
 CG2N2   CTL5     1  0.347450500075  0.138767581228
 CG2N2   CTO1     1  0.347450500075  0.138767581228
 CG2N2   CTO2     1  0.347450500075  0.138767581228
 CG2N2     HP     1  0.299181607526  0.240352501131
 CG2N2      N     1  0.342996006484  0.013876758123
 CG2N2  NC2D1     1  0.316269044940  0.620587489400
 CG2N2  NG2S0     1  0.342996006484  0.013876758123
 CG2N2  NG2S1     1  0.316269044940  0.620587489400
 CG2N2    NH1     1  0.316269044940  0.620587489400
 CG2N2    NHL     1  0.316269044940  0.620587489400
 CG2N2      O     1  0.302905564168  0.480705002262
 CG2N2     OB     1  0.302905564168  0.480705002262
 CG2N2    OBL     1  0.302905564168  0.480705002262
 CG2N2  OC2D1     1  0.302905564168  0.480705002262
 CG2N2  OC2D3     1  0.302905564168  0.480705002262
 CG2N2  OC2D4     1  0.302905564168  0.480705002262
 CG2N2    OCA     1  0.302905564168  0.480705002262
 CG2N2  OG2D1     1  0.302905564168  0.480705002262
 CG2N2  OG2D3     1  0.302905564168  0.480705002262
 CG2N2   OLG1     1  0.302905564168  0.480705002262
 CG2O1  CG301     1  0.347450500075  0.138767581228
 CG2O1  CG311     1  0.347450500075  0.138767581228
 CG2O1  CG314     1  0.347450500075  0.138767581228
 CG2O1  CG321     1  0.347450500075  0.138767581228
 CG2O1  CG324     1  0.347450500075  0.138767581228
 CG2O1  CG331     1  0.347450500075  0.138767581228
 CG2O1  CG334     1  0.347450500075  0.138767581228
 CG2O1 CG3C31     1  0.347450500075  0.138767581228
 CG2O1 CG3C41     1  0.347450500075  0.138767581228
 CG2O1 CG3C50     1  0.347450500075  0.138767581228
 CG2O1 CG3C51     1  0.347450500075  0.138767581228
 CG2O1 CG3C52     1  0.347450500075  0.138767581228
 CG2O1 CG3C53     1  0.347450500075  0.138767581228
 CG2O1 CG3C54     1  0.347450500075  0.138767581228
 CG2O1 CG3RC1     1  0.347450500075  0.138767581228
 CG2O1  CLG11     1  0.347450500075  0.138767581228
 CG2O1  CLG12     1  0.347450500075  0.138767581228
 CG2O1  CLG13     1  0.347450500075  0.138767581228
 CG2O1  CLG14     1  0.347450500075  0.138767581228
 CG2O1  CLG15     1  0.347450500075  0.138767581228
 CG2O1  CLG16     1  0.347450500075  0.138767581228
 CG2O1    CN6     1  0.347450500075  0.138767581228
 CG2O1    CN7     1  0.347450500075  0.138767581228
 CG2O1   CN7B     1  0.347450500075  0.138767581228
 CG2O1   CN7E     1  0.347450500075  0.138767581228
 CG2O1    CN8     1  0.347450500075  0.138767581228
 CG2O1   CN8B     1  0.347450500075  0.138767581228
 CG2O1    CN9     1  0.347450500075  0.138767581228
 CG2O1    CP1     1  0.347450500075  0.138767581228
 CG2O1    CP2     1  0.347450500075  0.138767581228
 CG2O1    CP3     1  0.347450500075  0.138767581228
 CG2O1   CPD1     1  0.347450500075  0.138767581228
 CG2O1   CR33     1  0.347450500075  0.138767581228
 CG2O1   CRL1     1  0.347450500075  0.138767581228
 CG2O1   CRL2     1  0.347450500075  0.138767581228
 CG2O1     CT     1  0.347450500075  0.138767581228
 CG2O1    CT1     1  0.347450500075  0.138767581228
 CG2O1   CT1X     1  0.347450500075  0.138767581228
 CG2O1    CT2     1  0.347450500075  0.138767581228
 CG2O1   CT2A     1  0.347450500075  0.138767581228
 CG2O1   CT2P     1  0.347450500075  0.138767581228
 CG2O1   CT2X     1  0.347450500075  0.138767581228
 CG2O1    CT3     1  0.347450500075  0.138767581228
 CG2O1   CT3X     1  0.347450500075  0.138767581228
 CG2O1   CTD1     1  0.347450500075  0.138767581228
 CG2O1   CTL1     1  0.347450500075  0.138767581228
 CG2O1   CTL2     1  0.347450500075  0.138767581228
 CG2O1   CTL3     1  0.347450500075  0.138767581228
 CG2O1   CTL5     1  0.347450500075  0.138767581228
 CG2O1   CTO1     1  0.347450500075  0.138767581228
 CG2O1   CTO2     1  0.347450500075  0.138767581228
 CG2O1     HP     1  0.299181607526  0.240352501131
 CG2O1      N     1  0.342996006484  0.013876758123
 CG2O1  NC2D1     1  0.316269044940  0.620587489400
 CG2O1  NG2S0     1  0.342996006484  0.013876758123
 CG2O1  NG2S1     1  0.316269044940  0.620587489400
 CG2O1    NH1     1  0.316269044940  0.620587489400
 CG2O1    NHL     1  0.316269044940  0.620587489400
 CG2O1      O     1  0.302905564168  0.480705002262
 CG2O1     OB     1  0.302905564168  0.480705002262
 CG2O1    OBL     1  0.302905564168  0.480705002262
 CG2O1  OC2D1     1  0.302905564168  0.480705002262
 CG2O1  OC2D3     1  0.302905564168  0.480705002262
 CG2O1  OC2D4     1  0.302905564168  0.480705002262
 CG2O1    OCA     1  0.302905564168  0.480705002262
 CG2O1  OG2D1     1  0.302905564168  0.480705002262
 CG2O1  OG2D3     1  0.302905564168  0.480705002262
 CG2O1   OLG1     1  0.302905564168  0.480705002262
 CG2O2  CG301     1  0.320723538531  0.130979917850
 CG2O2  CG311     1  0.320723538531  0.130979917850
 CG2O2  CG314     1  0.320723538531  0.130979917850
 CG2O2  CG321     1  0.320723538531  0.130979917850
 CG2O2  CG324     1  0.320723538531  0.130979917850
 CG2O2  CG331     1  0.320723538531  0.130979917850
 CG2O2  CG334     1  0.320723538531  0.130979917850
 CG2O2 CG3C31     1  0.320723538531  0.130979917850
 CG2O2 CG3C41     1  0.320723538531  0.130979917850
 CG2O2 CG3C50     1  0.320723538531  0.130979917850
 CG2O2 CG3C51     1  0.320723538531  0.130979917850
 CG2O2 CG3C52     1  0.320723538531  0.130979917850
 CG2O2 CG3C53     1  0.320723538531  0.130979917850
 CG2O2 CG3C54     1  0.320723538531  0.130979917850
 CG2O2 CG3RC1     1  0.320723538531  0.130979917850
 CG2O2  CLG11     1  0.320723538531  0.130979917850
 CG2O2  CLG12     1  0.320723538531  0.130979917850
 CG2O2  CLG13     1  0.320723538531  0.130979917850
 CG2O2  CLG14     1  0.320723538531  0.130979917850
 CG2O2  CLG15     1  0.320723538531  0.130979917850
 CG2O2  CLG16     1  0.320723538531  0.130979917850
 CG2O2    CN6     1  0.320723538531  0.130979917850
 CG2O2    CN7     1  0.320723538531  0.130979917850
 CG2O2   CN7B     1  0.320723538531  0.130979917850
 CG2O2   CN7E     1  0.320723538531  0.130979917850
 CG2O2    CN8     1  0.320723538531  0.130979917850
 CG2O2   CN8B     1  0.320723538531  0.130979917850
 CG2O2    CN9     1  0.320723538531  0.130979917850
 CG2O2    CP1     1  0.320723538531  0.130979917850
 CG2O2    CP2     1  0.320723538531  0.130979917850
 CG2O2    CP3     1  0.320723538531  0.130979917850
 CG2O2   CPD1     1  0.320723538531  0.130979917850
 CG2O2   CR33     1  0.320723538531  0.130979917850
 CG2O2   CRL1     1  0.320723538531  0.130979917850
 CG2O2   CRL2     1  0.320723538531  0.130979917850
 CG2O2     CT     1  0.320723538531  0.130979917850
 CG2O2    CT1     1  0.320723538531  0.130979917850
 CG2O2   CT1X     1  0.320723538531  0.130979917850
 CG2O2    CT2     1  0.320723538531  0.130979917850
 CG2O2   CT2A     1  0.320723538531  0.130979917850
 CG2O2   CT2P     1  0.320723538531  0.130979917850
 CG2O2   CT2X     1  0.320723538531  0.130979917850
 CG2O2    CT3     1  0.320723538531  0.130979917850
 CG2O2   CT3X     1  0.320723538531  0.130979917850
 CG2O2   CTD1     1  0.320723538531  0.130979917850
 CG2O2   CTL1     1  0.320723538531  0.130979917850
 CG2O2   CTL2     1  0.320723538531  0.130979917850
 CG2O2   CTL3     1  0.320723538531  0.130979917850
 CG2O2   CTL5     1  0.320723538531  0.130979917850
 CG2O2   CTO1     1  0.320723538531  0.130979917850
 CG2O2   CTO2     1  0.320723538531  0.130979917850
 CG2O2     HP     1  0.272454645982  0.226863872487
 CG2O2      N     1  0.316269044940  0.013097991785
 CG2O2  NC2D1     1  0.289542083396  0.585760000000
 CG2O2  NG2S0     1  0.316269044940  0.013097991785
 CG2O2  NG2S1     1  0.289542083396  0.585760000000
 CG2O2    NH1     1  0.289542083396  0.585760000000
 CG2O2    NHL     1  0.289542083396  0.585760000000
 CG2O2      O     1  0.276178602624  0.453727744975
 CG2O2     OB     1  0.276178602624  0.453727744975
 CG2O2    OBL     1  0.276178602624  0.453727744975
 CG2O2  OC2D1     1  0.276178602624  0.453727744975
 CG2O2  OC2D3     1  0.276178602624  0.453727744975
 CG2O2  OC2D4     1  0.276178602624  0.453727744975
 CG2O2    OCA     1  0.276178602624  0.453727744975
 CG2O2  OG2D1     1  0.276178602624  0.453727744975
 CG2O2  OG2D3     1  0.276178602624  0.453727744975
 CG2O2   OLG1     1  0.276178602624  0.453727744975
 CG2O3  CG301     1  0.347450500075  0.110698234855
 CG2O3  CG311     1  0.347450500075  0.110698234855
 CG2O3  CG314     1  0.347450500075  0.110698234855
 CG2O3  CG321     1  0.347450500075  0.110698234855
 CG2O3  CG324     1  0.347450500075  0.110698234855
 CG2O3  CG331     1  0.347450500075  0.110698234855
 CG2O3  CG334     1  0.347450500075  0.110698234855
 CG2O3 CG3C31     1  0.347450500075  0.110698234855
 CG2O3 CG3C41     1  0.347450500075  0.110698234855
 CG2O3 CG3C50     1  0.347450500075  0.110698234855
 CG2O3 CG3C51     1  0.347450500075  0.110698234855
 CG2O3 CG3C52     1  0.347450500075  0.110698234855
 CG2O3 CG3C53     1  0.347450500075  0.110698234855
 CG2O3 CG3C54     1  0.347450500075  0.110698234855
 CG2O3 CG3RC1     1  0.347450500075  0.110698234855
 CG2O3  CLG11     1  0.347450500075  0.110698234855
 CG2O3  CLG12     1  0.347450500075  0.110698234855
 CG2O3  CLG13     1  0.347450500075  0.110698234855
 CG2O3  CLG14     1  0.347450500075  0.110698234855
 CG2O3  CLG15     1  0.347450500075  0.110698234855
 CG2O3  CLG16     1  0.347450500075  0.110698234855
 CG2O3    CN6     1  0.347450500075  0.110698234855
 CG2O3    CN7     1  0.347450500075  0.110698234855
 CG2O3   CN7B     1  0.347450500075  0.110698234855
 CG2O3   CN7E     1  0.347450500075  0.110698234855
 CG2O3    CN8     1  0.347450500075  0.110698234855
 CG2O3   CN8B     1  0.347450500075  0.110698234855
 CG2O3    CN9     1  0.347450500075  0.110698234855
 CG2O3    CP1     1  0.347450500075  0.110698234855
 CG2O3    CP2     1  0.347450500075  0.110698234855
 CG2O3    CP3     1  0.347450500075  0.110698234855
 CG2O3   CPD1     1  0.347450500075  0.110698234855
 CG2O3   CR33     1  0.347450500075  0.110698234855
 CG2O3   CRL1     1  0.347450500075  0.110698234855
 CG2O3   CRL2     1  0.347450500075  0.110698234855
 CG2O3     CT     1  0.347450500075  0.110698234855
 CG2O3    CT1     1  0.347450500075  0.110698234855
 CG2O3   CT1X     1  0.347450500075  0.110698234855
 CG2O3    CT2     1  0.347450500075  0.110698234855
 CG2O3   CT2A     1  0.347450500075  0.110698234855
 CG2O3   CT2P     1  0.347450500075  0.110698234855
 CG2O3   CT2X     1  0.347450500075  0.110698234855
 CG2O3    CT3     1  0.347450500075  0.110698234855
 CG2O3   CT3X     1  0.347450500075  0.110698234855
 CG2O3   CTD1     1  0.347450500075  0.110698234855
 CG2O3   CTL1     1  0.347450500075  0.110698234855
 CG2O3   CTL2     1  0.347450500075  0.110698234855
 CG2O3   CTL3     1  0.347450500075  0.110698234855
 CG2O3   CTL5     1  0.347450500075  0.110698234855
 CG2O3   CTO1     1  0.347450500075  0.110698234855
 CG2O3   CTO2     1  0.347450500075  0.110698234855
 CG2O3     HP     1  0.299181607526  0.191734967077
 CG2O3      N     1  0.342996006484  0.011069823485
 CG2O3  NC2D1     1  0.316269044940  0.495057556250
 CG2O3  NG2S0     1  0.342996006484  0.011069823485
 CG2O3  NG2S1     1  0.316269044940  0.495057556250
 CG2O3    NH1     1  0.316269044940  0.495057556250
 CG2O3    NHL     1  0.316269044940  0.495057556250
 CG2O3      O     1  0.302905564168  0.383469934154
 CG2O3     OB     1  0.302905564168  0.383469934154
 CG2O3    OBL     1  0.302905564168  0.383469934154
 CG2O3  OC2D1     1  0.302905564168  0.383469934154
 CG2O3  OC2D3     1  0.302905564168  0.383469934154
 CG2O3  OC2D4     1  0.302905564168  0.383469934154
 CG2O3    OCA     1  0.302905564168  0.383469934154
 CG2O3  OG2D1     1  0.302905564168  0.383469934154
 CG2O3  OG2D3     1  0.302905564168  0.383469934154
 CG2O3   OLG1     1  0.302905564168  0.383469934154
 CG2O4  CG301     1  0.329632525712  0.102486650838
 CG2O4  CG311     1  0.329632525712  0.102486650838
 CG2O4  CG314     1  0.329632525712  0.102486650838
 CG2O4  CG321     1  0.329632525712  0.102486650838
 CG2O4  CG324     1  0.329632525712  0.102486650838
 CG2O4  CG331     1  0.329632525712  0.102486650838
 CG2O4  CG334     1  0.329632525712  0.102486650838
 CG2O4 CG3C31     1  0.329632525712  0.102486650838
 CG2O4 CG3C41     1  0.329632525712  0.102486650838
 CG2O4 CG3C50     1  0.329632525712  0.102486650838
 CG2O4 CG3C51     1  0.329632525712  0.102486650838
 CG2O4 CG3C52     1  0.329632525712  0.102486650838
 CG2O4 CG3C53     1  0.329632525712  0.102486650838
 CG2O4 CG3C54     1  0.329632525712  0.102486650838
 CG2O4 CG3RC1     1  0.329632525712  0.102486650838
 CG2O4  CLG11     1  0.329632525712  0.102486650838
 CG2O4  CLG12     1  0.329632525712  0.102486650838
 CG2O4  CLG13     1  0.329632525712  0.102486650838
 CG2O4  CLG14     1  0.329632525712  0.102486650838
 CG2O4  CLG15     1  0.329632525712  0.102486650838
 CG2O4  CLG16     1  0.329632525712  0.102486650838
 CG2O4    CN6     1  0.329632525712  0.102486650838
 CG2O4    CN7     1  0.329632525712  0.102486650838
 CG2O4   CN7B     1  0.329632525712  0.102486650838
 CG2O4   CN7E     1  0.329632525712  0.102486650838
 CG2O4    CN8     1  0.329632525712  0.102486650838
 CG2O4   CN8B     1  0.329632525712  0.102486650838
 CG2O4    CN9     1  0.329632525712  0.102486650838
 CG2O4    CP1     1  0.329632525712  0.102486650838
 CG2O4    CP2     1  0.329632525712  0.102486650838
 CG2O4    CP3     1  0.329632525712  0.102486650838
 CG2O4   CPD1     1  0.329632525712  0.102486650838
 CG2O4   CR33     1  0.329632525712  0.102486650838
 CG2O4   CRL1     1  0.329632525712  0.102486650838
 CG2O4   CRL2     1  0.329632525712  0.102486650838
 CG2O4     CT     1  0.329632525712  0.102486650838
 CG2O4    CT1     1  0.329632525712  0.102486650838
 CG2O4   CT1X     1  0.329632525712  0.102486650838
 CG2O4    CT2     1  0.329632525712  0.102486650838
 CG2O4   CT2A     1  0.329632525712  0.102486650838
 CG2O4   CT2P     1  0.329632525712  0.102486650838
 CG2O4   CT2X     1  0.329632525712  0.102486650838
 CG2O4    CT3     1  0.329632525712  0.102486650838
 CG2O4   CT3X     1  0.329632525712  0.102486650838
 CG2O4   CTD1     1  0.329632525712  0.102486650838
 CG2O4   CTL1     1  0.329632525712  0.102486650838
 CG2O4   CTL2     1  0.329632525712  0.102486650838
 CG2O4   CTL3     1  0.329632525712  0.102486650838
 CG2O4   CTL5     1  0.329632525712  0.102486650838
 CG2O4   CTO1     1  0.329632525712  0.102486650838
 CG2O4   CTO2     1  0.329632525712  0.102486650838
 CG2O4     HP     1  0.281363633163  0.177512086349
 CG2O4      N     1  0.325178032121  0.010248665084
 CG2O4  NC2D1     1  0.298451070577  0.458334236120
 CG2O4  NG2S0     1  0.325178032121  0.010248665084
 CG2O4  NG2S1     1  0.298451070577  0.458334236120
 CG2O4    NH1     1  0.298451070577  0.458334236120
 CG2O4    NHL     1  0.298451070577  0.458334236120
 CG2O4      O     1  0.285087589805  0.355024172698
 CG2O4     OB     1  0.285087589805  0.355024172698
 CG2O4    OBL     1  0.285087589805  0.355024172698
 CG2O4  OC2D1     1  0.285087589805  0.355024172698
 CG2O4  OC2D3     1  0.285087589805  0.355024172698
 CG2O4  OC2D4     1  0.285087589805  0.355024172698
 CG2O4    OCA     1  0.285087589805  0.355024172698
 CG2O4  OG2D1     1  0.285087589805  0.355024172698
 CG2O4  OG2D3     1  0.285087589805  0.355024172698
 CG2O4   OLG1     1  0.285087589805  0.355024172698
 CG2O5  CG301     1  0.347450500075  0.125520000000
 CG2O5  CG311     1  0.347450500075  0.125520000000
 CG2O5  CG314     1  0.347450500075  0.125520000000
 CG2O5  CG321     1  0.347450500075  0.125520000000
 CG2O5  CG324     1  0.347450500075  0.125520000000
 CG2O5  CG331     1  0.347450500075  0.125520000000
 CG2O5  CG334     1  0.347450500075  0.125520000000
 CG2O5 CG3C31     1  0.347450500075  0.125520000000
 CG2O5 CG3C41     1  0.347450500075  0.125520000000
 CG2O5 CG3C50     1  0.347450500075  0.125520000000
 CG2O5 CG3C51     1  0.347450500075  0.125520000000
 CG2O5 CG3C52     1  0.347450500075  0.125520000000
 CG2O5 CG3C53     1  0.347450500075  0.125520000000
 CG2O5 CG3C54     1  0.347450500075  0.125520000000
 CG2O5 CG3RC1     1  0.347450500075  0.125520000000
 CG2O5  CLG11     1  0.347450500075  0.125520000000
 CG2O5  CLG12     1  0.347450500075  0.125520000000
 CG2O5  CLG13     1  0.347450500075  0.125520000000
 CG2O5  CLG14     1  0.347450500075  0.125520000000
 CG2O5  CLG15     1  0.347450500075  0.125520000000
 CG2O5  CLG16     1  0.347450500075  0.125520000000
 CG2O5    CN6     1  0.347450500075  0.125520000000
 CG2O5    CN7     1  0.347450500075  0.125520000000
 CG2O5   CN7B     1  0.347450500075  0.125520000000
 CG2O5   CN7E     1  0.347450500075  0.125520000000
 CG2O5    CN8     1  0.347450500075  0.125520000000
 CG2O5   CN8B     1  0.347450500075  0.125520000000
 CG2O5    CN9     1  0.347450500075  0.125520000000
 CG2O5    CP1     1  0.347450500075  0.125520000000
 CG2O5    CP2     1  0.347450500075  0.125520000000
 CG2O5    CP3     1  0.347450500075  0.125520000000
 CG2O5   CPD1     1  0.347450500075  0.125520000000
 CG2O5   CR33     1  0.347450500075  0.125520000000
 CG2O5   CRL1     1  0.347450500075  0.125520000000
 CG2O5   CRL2     1  0.347450500075  0.125520000000
 CG2O5     CT     1  0.347450500075  0.125520000000
 CG2O5    CT1     1  0.347450500075  0.125520000000
 CG2O5   CT1X     1  0.347450500075  0.125520000000
 CG2O5    CT2     1  0.347450500075  0.125520000000
 CG2O5   CT2A     1  0.347450500075  0.125520000000
 CG2O5   CT2P     1  0.347450500075  0.125520000000
 CG2O5   CT2X     1  0.347450500075  0.125520000000
 CG2O5    CT3     1  0.347450500075  0.125520000000
 CG2O5   CT3X     1  0.347450500075  0.125520000000
 CG2O5   CTD1     1  0.347450500075  0.125520000000
 CG2O5   CTL1     1  0.347450500075  0.125520000000
 CG2O5   CTL2     1  0.347450500075  0.125520000000
 CG2O5   CTL3     1  0.347450500075  0.125520000000
 CG2O5   CTL5     1  0.347450500075  0.125520000000
 CG2O5   CTO1     1  0.347450500075  0.125520000000
 CG2O5   CTO2     1  0.347450500075  0.125520000000
 CG2O5     HP     1  0.299181607526  0.217407017366
 CG2O5      N     1  0.342996006484  0.012552000000
 CG2O5  NC2D1     1  0.316269044940  0.561342505072
 CG2O5  NG2S0     1  0.342996006484  0.012552000000
 CG2O5  NG2S1     1  0.316269044940  0.561342505072
 CG2O5    NH1     1  0.316269044940  0.561342505072
 CG2O5    NHL     1  0.316269044940  0.561342505072
 CG2O5      O     1  0.302905564168  0.434814034732
 CG2O5     OB     1  0.302905564168  0.434814034732
 CG2O5    OBL     1  0.302905564168  0.434814034732
 CG2O5  OC2D1     1  0.302905564168  0.434814034732
 CG2O5  OC2D3     1  0.302905564168  0.434814034732
 CG2O5  OC2D4     1  0.302905564168  0.434814034732
 CG2O5    OCA     1  0.302905564168  0.434814034732
 CG2O5  OG2D1     1  0.302905564168  0.434814034732
 CG2O5  OG2D3     1  0.302905564168  0.434814034732
 CG2O5   OLG1     1  0.302905564168  0.434814034732
 CG2O6  CG301     1  0.347450500075  0.110698234855
 CG2O6  CG311     1  0.347450500075  0.110698234855
 CG2O6  CG314     1  0.347450500075  0.110698234855
 CG2O6  CG321     1  0.347450500075  0.110698234855
 CG2O6  CG324     1  0.347450500075  0.110698234855
 CG2O6  CG331     1  0.347450500075  0.110698234855
 CG2O6  CG334     1  0.347450500075  0.110698234855
 CG2O6 CG3C31     1  0.347450500075  0.110698234855
 CG2O6 CG3C41     1  0.347450500075  0.110698234855
 CG2O6 CG3C50     1  0.347450500075  0.110698234855
 CG2O6 CG3C51     1  0.347450500075  0.110698234855
 CG2O6 CG3C52     1  0.347450500075  0.110698234855
 CG2O6 CG3C53     1  0.347450500075  0.110698234855
 CG2O6 CG3C54     1  0.347450500075  0.110698234855
 CG2O6 CG3RC1     1  0.347450500075  0.110698234855
 CG2O6  CLG11     1  0.347450500075  0.110698234855
 CG2O6  CLG12     1  0.347450500075  0.110698234855
 CG2O6  CLG13     1  0.347450500075  0.110698234855
 CG2O6  CLG14     1  0.347450500075  0.110698234855
 CG2O6  CLG15     1  0.347450500075  0.110698234855
 CG2O6  CLG16     1  0.347450500075  0.110698234855
 CG2O6    CN6     1  0.347450500075  0.110698234855
 CG2O6    CN7     1  0.347450500075  0.110698234855
 CG2O6   CN7B     1  0.347450500075  0.110698234855
 CG2O6   CN7E     1  0.347450500075  0.110698234855
 CG2O6    CN8     1  0.347450500075  0.110698234855
 CG2O6   CN8B     1  0.347450500075  0.110698234855
 CG2O6    CN9     1  0.347450500075  0.110698234855
 CG2O6    CP1     1  0.347450500075  0.110698234855
 CG2O6    CP2     1  0.347450500075  0.110698234855
 CG2O6    CP3     1  0.347450500075  0.110698234855
 CG2O6   CPD1     1  0.347450500075  0.110698234855
 CG2O6   CR33     1  0.347450500075  0.110698234855
 CG2O6   CRL1     1  0.347450500075  0.110698234855
 CG2O6   CRL2     1  0.347450500075  0.110698234855
 CG2O6     CT     1  0.347450500075  0.110698234855
 CG2O6    CT1     1  0.347450500075  0.110698234855
 CG2O6   CT1X     1  0.347450500075  0.110698234855
 CG2O6    CT2     1  0.347450500075  0.110698234855
 CG2O6   CT2A     1  0.347450500075  0.110698234855
 CG2O6   CT2P     1  0.347450500075  0.110698234855
 CG2O6   CT2X     1  0.347450500075  0.110698234855
 CG2O6    CT3     1  0.347450500075  0.110698234855
 CG2O6   CT3X     1  0.347450500075  0.110698234855
 CG2O6   CTD1     1  0.347450500075  0.110698234855
 CG2O6   CTL1     1  0.347450500075  0.110698234855
 CG2O6   CTL2     1  0.347450500075  0.110698234855
 CG2O6   CTL3     1  0.347450500075  0.110698234855
 CG2O6   CTL5     1  0.347450500075  0.110698234855
 CG2O6   CTO1     1  0.347450500075  0.110698234855
 CG2O6   CTO2     1  0.347450500075  0.110698234855
 CG2O6     HP     1  0.299181607526  0.191734967077
 CG2O6      N     1  0.342996006484  0.011069823485
 CG2O6  NC2D1     1  0.316269044940  0.495057556250
 CG2O6  NG2S0     1  0.342996006484  0.011069823485
 CG2O6  NG2S1     1  0.316269044940  0.495057556250
 CG2O6    NH1     1  0.316269044940  0.495057556250
 CG2O6    NHL     1  0.316269044940  0.495057556250
 CG2O6      O     1  0.302905564168  0.383469934154
 CG2O6     OB     1  0.302905564168  0.383469934154
 CG2O6    OBL     1  0.302905564168  0.383469934154
 CG2O6  OC2D1     1  0.302905564168  0.383469934154
 CG2O6  OC2D3     1  0.302905564168  0.383469934154
 CG2O6  OC2D4     1  0.302905564168  0.383469934154
 CG2O6    OCA     1  0.302905564168  0.383469934154
 CG2O6  OG2D1     1  0.302905564168  0.383469934154
 CG2O6  OG2D3     1  0.302905564168  0.383469934154
 CG2O6   OLG1     1  0.302905564168  0.383469934154
 CG2O7  CG301     1  0.308518226092  0.100764063435
 CG2O7  CG311     1  0.308518226092  0.100764063435
 CG2O7  CG314     1  0.308518226092  0.100764063435
 CG2O7  CG321     1  0.308518226092  0.100764063435
 CG2O7  CG324     1  0.308518226092  0.100764063435
 CG2O7  CG331     1  0.308518226092  0.100764063435
 CG2O7  CG334     1  0.308518226092  0.100764063435
 CG2O7 CG3C31     1  0.308518226092  0.100764063435
 CG2O7 CG3C41     1  0.308518226092  0.100764063435
 CG2O7 CG3C50     1  0.308518226092  0.100764063435
 CG2O7 CG3C51     1  0.308518226092  0.100764063435
 CG2O7 CG3C52     1  0.308518226092  0.100764063435
 CG2O7 CG3C53     1  0.308518226092  0.100764063435
 CG2O7 CG3C54     1  0.308518226092  0.100764063435
 CG2O7 CG3RC1     1  0.308518226092  0.100764063435
 CG2O7  CLG11     1  0.308518226092  0.100764063435
 CG2O7  CLG12     1  0.308518226092  0.100764063435
 CG2O7  CLG13     1  0.308518226092  0.100764063435
 CG2O7  CLG14     1  0.308518226092  0.100764063435
 CG2O7  CLG15     1  0.308518226092  0.100764063435
 CG2O7  CLG16     1  0.308518226092  0.100764063435
 CG2O7    CN6     1  0.308518226092  0.100764063435
 CG2O7    CN7     1  0.308518226092  0.100764063435
 CG2O7   CN7B     1  0.308518226092  0.100764063435
 CG2O7   CN7E     1  0.308518226092  0.100764063435
 CG2O7    CN8     1  0.308518226092  0.100764063435
 CG2O7   CN8B     1  0.308518226092  0.100764063435
 CG2O7    CN9     1  0.308518226092  0.100764063435
 CG2O7    CP1     1  0.308518226092  0.100764063435
 CG2O7    CP2     1  0.308518226092  0.100764063435
 CG2O7    CP3     1  0.308518226092  0.100764063435
 CG2O7   CPD1     1  0.308518226092  0.100764063435
 CG2O7   CR33     1  0.308518226092  0.100764063435
 CG2O7   CRL1     1  0.308518226092  0.100764063435
 CG2O7   CRL2     1  0.308518226092  0.100764063435
 CG2O7     CT     1  0.308518226092  0.100764063435
 CG2O7    CT1     1  0.308518226092  0.100764063435
 CG2O7   CT1X     1  0.308518226092  0.100764063435
 CG2O7    CT2     1  0.308518226092  0.100764063435
 CG2O7   CT2A     1  0.308518226092  0.100764063435
 CG2O7   CT2P     1  0.308518226092  0.100764063435
 CG2O7   CT2X     1  0.308518226092  0.100764063435
 CG2O7    CT3     1  0.308518226092  0.100764063435
 CG2O7   CT3X     1  0.308518226092  0.100764063435
 CG2O7   CTD1     1  0.308518226092  0.100764063435
 CG2O7   CTL1     1  0.308518226092  0.100764063435
 CG2O7   CTL2     1  0.308518226092  0.100764063435
 CG2O7   CTL3     1  0.308518226092  0.100764063435
 CG2O7   CTL5     1  0.308518226092  0.100764063435
 CG2O7   CTO1     1  0.308518226092  0.100764063435
 CG2O7   CTO2     1  0.308518226092  0.100764063435
 CG2O7     HP     1  0.260249333543  0.174528477447
 CG2O7      N     1  0.304063732501  0.010076406344
 CG2O7  NC2D1     1  0.277336770957  0.450630591061
 CG2O7  NG2S0     1  0.304063732501  0.010076406344
 CG2O7  NG2S1     1  0.277336770957  0.450630591061
 CG2O7    NH1     1  0.277336770957  0.450630591061
 CG2O7    NHL     1  0.277336770957  0.450630591061
 CG2O7      O     1  0.263973290185  0.349056954894
 CG2O7     OB     1  0.263973290185  0.349056954894
 CG2O7    OBL     1  0.263973290185  0.349056954894
 CG2O7  OC2D1     1  0.263973290185  0.349056954894
 CG2O7  OC2D3     1  0.263973290185  0.349056954894
 CG2O7  OC2D4     1  0.263973290185  0.349056954894
 CG2O7    OCA     1  0.263973290185  0.349056954894
 CG2O7  OG2D1     1  0.263973290185  0.349056954894
 CG2O7  OG2D3     1  0.263973290185  0.349056954894
 CG2O7   OLG1     1  0.263973290185  0.349056954894
CG2R51  CG301     1  0.356359487256  0.093557084179
CG2R51  CG311     1  0.356359487256  0.093557084179
CG2R51  CG314     1  0.356359487256  0.093557084179
CG2R51  CG321     1  0.356359487256  0.093557084179
CG2R51  CG324     1  0.356359487256  0.093557084179
CG2R51  CG331     1  0.356359487256  0.093557084179
CG2R51  CG334     1  0.356359487256  0.093557084179
CG2R51 CG3C31     1  0.356359487256  0.093557084179
CG2R51 CG3C41     1  0.356359487256  0.093557084179
CG2R51 CG3C50     1  0.356359487256  0.093557084179
CG2R51 CG3C51     1  0.356359487256  0.093557084179
CG2R51 CG3C52     1  0.356359487256  0.093557084179
CG2R51 CG3C53     1  0.356359487256  0.093557084179
CG2R51 CG3C54     1  0.356359487256  0.093557084179
CG2R51 CG3RC1     1  0.356359487256  0.093557084179
CG2R51  CLG11     1  0.356359487256  0.093557084179
CG2R51  CLG12     1  0.356359487256  0.093557084179
CG2R51  CLG13     1  0.356359487256  0.093557084179
CG2R51  CLG14     1  0.356359487256  0.093557084179
CG2R51  CLG15     1  0.356359487256  0.093557084179
CG2R51  CLG16     1  0.356359487256  0.093557084179
CG2R51    CN6     1  0.356359487256  0.093557084179
CG2R51    CN7     1  0.356359487256  0.093557084179
CG2R51   CN7B     1  0.356359487256  0.093557084179
CG2R51   CN7E     1  0.356359487256  0.093557084179
CG2R51    CN8     1  0.356359487256  0.093557084179
CG2R51   CN8B     1  0.356359487256  0.093557084179
CG2R51    CN9     1  0.356359487256  0.093557084179
CG2R51    CP1     1  0.356359487256  0.093557084179
CG2R51    CP2     1  0.356359487256  0.093557084179
CG2R51    CP3     1  0.356359487256  0.093557084179
CG2R51   CPD1     1  0.356359487256  0.093557084179
CG2R51   CR33     1  0.356359487256  0.093557084179
CG2R51   CRL1     1  0.356359487256  0.093557084179
CG2R51   CRL2     1  0.356359487256  0.093557084179
CG2R51     CT     1  0.356359487256  0.093557084179
CG2R51    CT1     1  0.356359487256  0.093557084179
CG2R51   CT1X     1  0.356359487256  0.093557084179
CG2R51    CT2     1  0.356359487256  0.093557084179
CG2R51   CT2A     1  0.356359487256  0.093557084179
CG2R51   CT2P     1  0.356359487256  0.093557084179
CG2R51   CT2X     1  0.356359487256  0.093557084179
CG2R51    CT3     1  0.356359487256  0.093557084179
CG2R51   CT3X     1  0.356359487256  0.093557084179
CG2R51   CTD1     1  0.356359487256  0.093557084179
CG2R51   CTL1     1  0.356359487256  0.093557084179
CG2R51   CTL2     1  0.356359487256  0.093557084179
CG2R51   CTL3     1  0.356359487256  0.093557084179
CG2R51   CTL5     1  0.356359487256  0.093557084179
CG2R51   CTO1     1  0.356359487256  0.093557084179
CG2R51   CTO2     1  0.356359487256  0.093557084179
CG2R51     HP     1  0.308090594707  0.162045623205
CG2R51      N     1  0.351904993665  0.009355708418
CG2R51  NC2D1     1  0.325178032121  0.418400000000
CG2R51  NG2S0     1  0.351904993665  0.009355708418
CG2R51  NG2S1     1  0.325178032121  0.418400000000
CG2R51    NH1     1  0.325178032121  0.418400000000
CG2R51    NHL     1  0.325178032121  0.418400000000
CG2R51      O     1  0.311814551349  0.324091246411
CG2R51     OB     1  0.311814551349  0.324091246411
CG2R51    OBL     1  0.311814551349  0.324091246411
CG2R51  OC2D1     1  0.311814551349  0.324091246411
CG2R51  OC2D3     1  0.311814551349  0.324091246411
CG2R51  OC2D4     1  0.311814551349  0.324091246411
CG2R51    OCA     1  0.311814551349  0.324091246411
CG2R51  OG2D1     1  0.311814551349  0.324091246411
CG2R51  OG2D3     1  0.311814551349  0.324091246411
CG2R51   OLG1     1  0.311814551349  0.324091246411
CG2R52  CG301     1  0.365268474438  0.059170695450
CG2R52  CG311     1  0.365268474438  0.059170695450
CG2R52  CG314     1  0.365268474438  0.059170695450
CG2R52  CG321     1  0.365268474438  0.059170695450
CG2R52  CG324     1  0.365268474438  0.059170695450
CG2R52  CG331     1  0.365268474438  0.059170695450
CG2R52  CG334     1  0.365268474438  0.059170695450
CG2R52 CG3C31     1  0.365268474438  0.059170695450
CG2R52 CG3C41     1  0.365268474438  0.059170695450
CG2R52 CG3C50     1  0.365268474438  0.059170695450
CG2R52 CG3C51     1  0.365268474438  0.059170695450
CG2R52 CG3C52     1  0.365268474438  0.059170695450
CG2R52 CG3C53     1  0.365268474438  0.059170695450
CG2R52 CG3C54     1  0.365268474438  0.059170695450
CG2R52 CG3RC1     1  0.365268474438  0.059170695450
CG2R52  CLG11     1  0.365268474438  0.059170695450
CG2R52  CLG12     1  0.365268474438  0.059170695450
CG2R52  CLG13     1  0.365268474438  0.059170695450
CG2R52  CLG14     1  0.365268474438  0.059170695450
CG2R52  CLG15     1  0.365268474438  0.059170695450
CG2R52  CLG16     1  0.365268474438  0.059170695450
CG2R52    CN6     1  0.365268474438  0.059170695450
CG2R52    CN7     1  0.365268474438  0.059170695450
CG2R52   CN7B     1  0.365268474438  0.059170695450
CG2R52   CN7E     1  0.365268474438  0.059170695450
CG2R52    CN8     1  0.365268474438  0.059170695450
CG2R52   CN8B     1  0.365268474438  0.059170695450
CG2R52    CN9     1  0.365268474438  0.059170695450
CG2R52    CP1     1  0.365268474438  0.059170695450
CG2R52    CP2     1  0.365268474438  0.059170695450
CG2R52    CP3     1  0.365268474438  0.059170695450
CG2R52   CPD1     1  0.365268474438  0.059170695450
CG2R52   CR33     1  0.365268474438  0.059170695450
CG2R52   CRL1     1  0.365268474438  0.059170695450
CG2R52   CRL2     1  0.365268474438  0.059170695450
CG2R52     CT     1  0.365268474438  0.059170695450
CG2R52    CT1     1  0.365268474438  0.059170695450
CG2R52   CT1X     1  0.365268474438  0.059170695450
CG2R52    CT2     1  0.365268474438  0.059170695450
CG2R52   CT2A     1  0.365268474438  0.059170695450
CG2R52   CT2P     1  0.365268474438  0.059170695450
CG2R52   CT2X     1  0.365268474438  0.059170695450
CG2R52    CT3     1  0.365268474438  0.059170695450
CG2R52   CT3X     1  0.365268474438  0.059170695450
CG2R52   CTD1     1  0.365268474438  0.059170695450
CG2R52   CTL1     1  0.365268474438  0.059170695450
CG2R52   CTL2     1  0.365268474438  0.059170695450
CG2R52   CTL3     1  0.365268474438  0.059170695450
CG2R52   CTL5     1  0.365268474438  0.059170695450
CG2R52   CTO1     1  0.365268474438  0.059170695450
CG2R52   CTO2     1  0.365268474438  0.059170695450
CG2R52     HP     1  0.316999581889  0.102486650838
CG2R52      N     1  0.360813980847  0.005917069545
CG2R52  NC2D1     1  0.334087019303  0.264619394603
CG2R52  NG2S0     1  0.360813980847  0.005917069545
CG2R52  NG2S1     1  0.334087019303  0.264619394603
CG2R52    NH1     1  0.334087019303  0.264619394603
CG2R52    NHL     1  0.334087019303  0.264619394603
CG2R52      O     1  0.320723538531  0.204973301676
CG2R52     OB     1  0.320723538531  0.204973301676
CG2R52    OBL     1  0.320723538531  0.204973301676
CG2R52  OC2D1     1  0.320723538531  0.204973301676
CG2R52  OC2D3     1  0.320723538531  0.204973301676
CG2R52  OC2D4     1  0.320723538531  0.204973301676
CG2R52    OCA     1  0.320723538531  0.204973301676
CG2R52  OG2D1     1  0.320723538531  0.204973301676
CG2R52  OG2D3     1  0.320723538531  0.204973301676
CG2R52   OLG1     1  0.320723538531  0.204973301676
CG2R53  CG301     1  0.365268474438  0.059170695450
CG2R53  CG311     1  0.365268474438  0.059170695450
CG2R53  CG314     1  0.365268474438  0.059170695450
CG2R53  CG321     1  0.365268474438  0.059170695450
CG2R53  CG324     1  0.365268474438  0.059170695450
CG2R53  CG331     1  0.365268474438  0.059170695450
CG2R53  CG334     1  0.365268474438  0.059170695450
CG2R53 CG3C31     1  0.365268474438  0.059170695450
CG2R53 CG3C41     1  0.365268474438  0.059170695450
CG2R53 CG3C50     1  0.365268474438  0.059170695450
CG2R53 CG3C51     1  0.365268474438  0.059170695450
CG2R53 CG3C52     1  0.365268474438  0.059170695450
CG2R53 CG3C53     1  0.365268474438  0.059170695450
CG2R53 CG3C54     1  0.365268474438  0.059170695450
CG2R53 CG3RC1     1  0.365268474438  0.059170695450
CG2R53  CLG11     1  0.365268474438  0.059170695450
CG2R53  CLG12     1  0.365268474438  0.059170695450
CG2R53  CLG13     1  0.365268474438  0.059170695450
CG2R53  CLG14     1  0.365268474438  0.059170695450
CG2R53  CLG15     1  0.365268474438  0.059170695450
CG2R53  CLG16     1  0.365268474438  0.059170695450
CG2R53    CN6     1  0.365268474438  0.059170695450
CG2R53    CN7     1  0.365268474438  0.059170695450
CG2R53   CN7B     1  0.365268474438  0.059170695450
CG2R53   CN7E     1  0.365268474438  0.059170695450
CG2R53    CN8     1  0.365268474438  0.059170695450
CG2R53   CN8B     1  0.365268474438  0.059170695450
CG2R53    CN9     1  0.365268474438  0.059170695450
CG2R53    CP1     1  0.365268474438  0.059170695450
CG2R53    CP2     1  0.365268474438  0.059170695450
CG2R53    CP3     1  0.365268474438  0.059170695450
CG2R53   CPD1     1  0.365268474438  0.059170695450
CG2R53   CR33     1  0.365268474438  0.059170695450
CG2R53   CRL1     1  0.365268474438  0.059170695450
CG2R53   CRL2     1  0.365268474438  0.059170695450
CG2R53     CT     1  0.365268474438  0.059170695450
CG2R53    CT1     1  0.365268474438  0.059170695450
CG2R53   CT1X     1  0.365268474438  0.059170695450
CG2R53    CT2     1  0.365268474438  0.059170695450
CG2R53   CT2A     1  0.365268474438  0.059170695450
CG2R53   CT2P     1  0.365268474438  0.059170695450
CG2R53   CT2X     1  0.365268474438  0.059170695450
CG2R53    CT3     1  0.365268474438  0.059170695450
CG2R53   CT3X     1  0.365268474438  0.059170695450
CG2R53   CTD1     1  0.365268474438  0.059170695450
CG2R53   CTL1     1  0.365268474438  0.059170695450
CG2R53   CTL2     1  0.365268474438  0.059170695450
CG2R53   CTL3     1  0.365268474438  0.059170695450
CG2R53   CTL5     1  0.365268474438  0.059170695450
CG2R53   CTO1     1  0.365268474438  0.059170695450
CG2R53   CTO2     1  0.365268474438  0.059170695450
CG2R53     HP     1  0.316999581889  0.102486650838
CG2R53      N     1  0.360813980847  0.005917069545
CG2R53  NC2D1     1  0.334087019303  0.264619394603
CG2R53  NG2S0     1  0.360813980847  0.005917069545
CG2R53  NG2S1     1  0.334087019303  0.264619394603
CG2R53    NH1     1  0.334087019303  0.264619394603
CG2R53    NHL     1  0.334087019303  0.264619394603
CG2R53      O     1  0.320723538531  0.204973301676
CG2R53     OB     1  0.320723538531  0.204973301676
CG2R53    OBL     1  0.320723538531  0.204973301676
CG2R53  OC2D1     1  0.320723538531  0.204973301676
CG2R53  OC2D3     1  0.320723538531  0.204973301676
CG2R53  OC2D4     1  0.320723538531  0.204973301676
CG2R53    OCA     1  0.320723538531  0.204973301676
CG2R53  OG2D1     1  0.320723538531  0.204973301676
CG2R53  OG2D3     1  0.320723538531  0.204973301676
CG2R53   OLG1     1  0.320723538531  0.204973301676
CG2R57  CG301     1  0.356359487256  0.093557084179
CG2R57  CG311     1  0.356359487256  0.093557084179
CG2R57  CG314     1  0.356359487256  0.093557084179
CG2R57  CG321     1  0.356359487256  0.093557084179
CG2R57  CG324     1  0.356359487256  0.093557084179
CG2R57  CG331     1  0.356359487256  0.093557084179
CG2R57  CG334     1  0.356359487256  0.093557084179
CG2R57 CG3C31     1  0.356359487256  0.093557084179
CG2R57 CG3C41     1  0.356359487256  0.093557084179
CG2R57 CG3C50     1  0.356359487256  0.093557084179
CG2R57 CG3C51     1  0.356359487256  0.093557084179
CG2R57 CG3C52     1  0.356359487256  0.093557084179
CG2R57 CG3C53     1  0.356359487256  0.093557084179
CG2R57 CG3C54     1  0.356359487256  0.093557084179
CG2R57 CG3RC1     1  0.356359487256  0.093557084179
CG2R57  CLG11     1  0.356359487256  0.093557084179
CG2R57  CLG12     1  0.356359487256  0.093557084179
CG2R57  CLG13     1  0.356359487256  0.093557084179
CG2R57  CLG14     1  0.356359487256  0.093557084179
CG2R57  CLG15     1  0.356359487256  0.093557084179
CG2R57  CLG16     1  0.356359487256  0.093557084179
CG2R57    CN6     1  0.356359487256  0.093557084179
CG2R57    CN7     1  0.356359487256  0.093557084179
CG2R57   CN7B     1  0.356359487256  0.093557084179
CG2R57   CN7E     1  0.356359487256  0.093557084179
CG2R57    CN8     1  0.356359487256  0.093557084179
CG2R57   CN8B     1  0.356359487256  0.093557084179
CG2R57    CN9     1  0.356359487256  0.093557084179
CG2R57    CP1     1  0.356359487256  0.093557084179
CG2R57    CP2     1  0.356359487256  0.093557084179
CG2R57    CP3     1  0.356359487256  0.093557084179
CG2R57   CPD1     1  0.356359487256  0.093557084179
CG2R57   CR33     1  0.356359487256  0.093557084179
CG2R57   CRL1     1  0.356359487256  0.093557084179
CG2R57   CRL2     1  0.356359487256  0.093557084179
CG2R57     CT     1  0.356359487256  0.093557084179
CG2R57    CT1     1  0.356359487256  0.093557084179
CG2R57   CT1X     1  0.356359487256  0.093557084179
CG2R57    CT2     1  0.356359487256  0.093557084179
CG2R57   CT2A     1  0.356359487256  0.093557084179
CG2R57   CT2P     1  0.356359487256  0.093557084179
CG2R57   CT2X     1  0.356359487256  0.093557084179
CG2R57    CT3     1  0.356359487256  0.093557084179
CG2R57   CT3X     1  0.356359487256  0.093557084179
CG2R57   CTD1     1  0.356359487256  0.093557084179
CG2R57   CTL1     1  0.356359487256  0.093557084179
CG2R57   CTL2     1  0.356359487256  0.093557084179
CG2R57   CTL3     1  0.356359487256  0.093557084179
CG2R57   CTL5     1  0.356359487256  0.093557084179
CG2R57   CTO1     1  0.356359487256  0.093557084179
CG2R57   CTO2     1  0.356359487256  0.093557084179
CG2R57     HP     1  0.308090594707  0.162045623205
CG2R57      N     1  0.351904993665  0.009355708418
CG2R57  NC2D1     1  0.325178032121  0.418400000000
CG2R57  NG2S0     1  0.351904993665  0.009355708418
CG2R57  NG2S1     1  0.325178032121  0.418400000000
CG2R57    NH1     1  0.325178032121  0.418400000000
CG2R57    NHL     1  0.325178032121  0.418400000000
CG2R57      O     1  0.311814551349  0.324091246411
CG2R57     OB     1  0.311814551349  0.324091246411
CG2R57    OBL     1  0.311814551349  0.324091246411
CG2R57  OC2D1     1  0.311814551349  0.324091246411
CG2R57  OC2D3     1  0.311814551349  0.324091246411
CG2R57  OC2D4     1  0.311814551349  0.324091246411
CG2R57    OCA     1  0.311814551349  0.324091246411
CG2R57  OG2D1     1  0.311814551349  0.324091246411
CG2R57  OG2D3     1  0.311814551349  0.324091246411
CG2R57   OLG1     1  0.311814551349  0.324091246411
CG2R61  CG301     1  0.346773417049  0.110698234855
CG2R61  CG311     1  0.346773417049  0.110698234855
CG2R61  CG314     1  0.346773417049  0.110698234855
CG2R61  CG321     1  0.346773417049  0.110698234855
CG2R61  CG324     1  0.346773417049  0.110698234855
CG2R61  CG331     1  0.346773417049  0.110698234855
CG2R61  CG334     1  0.346773417049  0.110698234855
CG2R61 CG3C31     1  0.346773417049  0.110698234855
CG2R61 CG3C41     1  0.346773417049  0.110698234855
CG2R61 CG3C50     1  0.346773417049  0.110698234855
CG2R61 CG3C51     1  0.346773417049  0.110698234855
CG2R61 CG3C52     1  0.346773417049  0.110698234855
CG2R61 CG3C53     1  0.346773417049  0.110698234855
CG2R61 CG3C54     1  0.346773417049  0.110698234855
CG2R61 CG3RC1     1  0.346773417049  0.110698234855
CG2R61  CLG11     1  0.346773417049  0.110698234855
CG2R61  CLG12     1  0.346773417049  0.110698234855
CG2R61  CLG13     1  0.346773417049  0.110698234855
CG2R61  CLG14     1  0.346773417049  0.110698234855
CG2R61  CLG15     1  0.346773417049  0.110698234855
CG2R61  CLG16     1  0.346773417049  0.110698234855
CG2R61    CN6     1  0.346773417049  0.110698234855
CG2R61    CN7     1  0.346773417049  0.110698234855
CG2R61   CN7B     1  0.346773417049  0.110698234855
CG2R61   CN7E     1  0.346773417049  0.110698234855
CG2R61    CN8     1  0.346773417049  0.110698234855
CG2R61   CN8B     1  0.346773417049  0.110698234855
CG2R61    CN9     1  0.346773417049  0.110698234855
CG2R61    CP1     1  0.346773417049  0.110698234855
CG2R61    CP2     1  0.346773417049  0.110698234855
CG2R61    CP3     1  0.346773417049  0.110698234855
CG2R61   CPD1     1  0.346773417049  0.110698234855
CG2R61   CR33     1  0.346773417049  0.110698234855
CG2R61   CRL1     1  0.346773417049  0.110698234855
CG2R61   CRL2     1  0.346773417049  0.110698234855
CG2R61     CT     1  0.346773417049  0.110698234855
CG2R61    CT1     1  0.346773417049  0.110698234855
CG2R61   CT1X     1  0.346773417049  0.110698234855
CG2R61    CT2     1  0.346773417049  0.110698234855
CG2R61   CT2A     1  0.346773417049  0.110698234855
CG2R61   CT2P     1  0.346773417049  0.110698234855
CG2R61   CT2X     1  0.346773417049  0.110698234855
CG2R61    CT3     1  0.346773417049  0.110698234855
CG2R61   CT3X     1  0.346773417049  0.110698234855
CG2R61   CTD1     1  0.346773417049  0.110698234855
CG2R61   CTL1     1  0.346773417049  0.110698234855
CG2R61   CTL2     1  0.346773417049  0.110698234855
CG2R61   CTL3     1  0.346773417049  0.110698234855
CG2R61   CTL5     1  0.346773417049  0.110698234855
CG2R61   CTO1     1  0.346773417049  0.110698234855
CG2R61   CTO2     1  0.346773417049  0.110698234855
CG2R61     HP     1  0.298504524500  0.191734967077
CG2R61      N     1  0.342318923458  0.011069823485
CG2R61  NC2D1     1  0.315591961914  0.495057556250
CG2R61  NG2S0     1  0.342318923458  0.011069823485
CG2R61  NG2S1     1  0.315591961914  0.495057556250
CG2R61    NH1     1  0.315591961914  0.495057556250
CG2R61    NHL     1  0.315591961914  0.495057556250
CG2R61      O     1  0.302228481142  0.383469934154
CG2R61     OB     1  0.302228481142  0.383469934154
CG2R61    OBL     1  0.302228481142  0.383469934154
CG2R61  OC2D1     1  0.302228481142  0.383469934154
CG2R61  OC2D3     1  0.302228481142  0.383469934154
CG2R61  OC2D4     1  0.302228481142  0.383469934154
CG2R61    OCA     1  0.302228481142  0.383469934154
CG2R61  OG2D1     1  0.302228481142  0.383469934154
CG2R61  OG2D3     1  0.302228481142  0.383469934154
CG2R61   OLG1     1  0.302228481142  0.383469934154
CG2R62  CG301     1  0.338541512893  0.125520000000
CG2R62  CG311     1  0.338541512893  0.125520000000
CG2R62  CG314     1  0.338541512893  0.125520000000
CG2R62  CG321     1  0.338541512893  0.125520000000
CG2R62  CG324     1  0.338541512893  0.125520000000
CG2R62  CG331     1  0.338541512893  0.125520000000
CG2R62  CG334     1  0.338541512893  0.125520000000
CG2R62 CG3C31     1  0.338541512893  0.125520000000
CG2R62 CG3C41     1  0.338541512893  0.125520000000
CG2R62 CG3C50     1  0.338541512893  0.125520000000
CG2R62 CG3C51     1  0.338541512893  0.125520000000
CG2R62 CG3C52     1  0.338541512893  0.125520000000
CG2R62 CG3C53     1  0.338541512893  0.125520000000
CG2R62 CG3C54     1  0.338541512893  0.125520000000
CG2R62 CG3RC1     1  0.338541512893  0.125520000000
CG2R62  CLG11     1  0.338541512893  0.125520000000
CG2R62  CLG12     1  0.338541512893  0.125520000000
CG2R62  CLG13     1  0.338541512893  0.125520000000
CG2R62  CLG14     1  0.338541512893  0.125520000000
CG2R62  CLG15     1  0.338541512893  0.125520000000
CG2R62  CLG16     1  0.338541512893  0.125520000000
CG2R62    CN6     1  0.338541512893  0.125520000000
CG2R62    CN7     1  0.338541512893  0.125520000000
CG2R62   CN7B     1  0.338541512893  0.125520000000
CG2R62   CN7E     1  0.338541512893  0.125520000000
CG2R62    CN8     1  0.338541512893  0.125520000000
CG2R62   CN8B     1  0.338541512893  0.125520000000
CG2R62    CN9     1  0.338541512893  0.125520000000
CG2R62    CP1     1  0.338541512893  0.125520000000
CG2R62    CP2     1  0.338541512893  0.125520000000
CG2R62    CP3     1  0.338541512893  0.125520000000
CG2R62   CPD1     1  0.338541512893  0.125520000000
CG2R62   CR33     1  0.338541512893  0.125520000000
CG2R62   CRL1     1  0.338541512893  0.125520000000
CG2R62   CRL2     1  0.338541512893  0.125520000000
CG2R62     CT     1  0.338541512893  0.125520000000
CG2R62    CT1     1  0.338541512893  0.125520000000
CG2R62   CT1X     1  0.338541512893  0.125520000000
CG2R62    CT2     1  0.338541512893  0.125520000000
CG2R62   CT2A     1  0.338541512893  0.125520000000
CG2R62   CT2P     1  0.338541512893  0.125520000000
CG2R62   CT2X     1  0.338541512893  0.125520000000
CG2R62    CT3     1  0.338541512893  0.125520000000
CG2R62   CT3X     1  0.338541512893  0.125520000000
CG2R62   CTD1     1  0.338541512893  0.125520000000
CG2R62   CTL1     1  0.338541512893  0.125520000000
CG2R62   CTL2     1  0.338541512893  0.125520000000
CG2R62   CTL3     1  0.338541512893  0.125520000000
CG2R62   CTL5     1  0.338541512893  0.125520000000
CG2R62   CTO1     1  0.338541512893  0.125520000000
CG2R62   CTO2     1  0.338541512893  0.125520000000
CG2R62     HP     1  0.290272620344  0.217407017366
CG2R62      N     1  0.334087019303  0.012552000000
CG2R62  NC2D1     1  0.307360057758  0.561342505072
CG2R62  NG2S0     1  0.334087019303  0.012552000000
CG2R62  NG2S1     1  0.307360057758  0.561342505072
CG2R62    NH1     1  0.307360057758  0.561342505072
CG2R62    NHL     1  0.307360057758  0.561342505072
CG2R62      O     1  0.293996576986  0.434814034732
CG2R62     OB     1  0.293996576986  0.434814034732
CG2R62    OBL     1  0.293996576986  0.434814034732
CG2R62  OC2D1     1  0.293996576986  0.434814034732
CG2R62  OC2D3     1  0.293996576986  0.434814034732
CG2R62  OC2D4     1  0.293996576986  0.434814034732
CG2R62    OCA     1  0.293996576986  0.434814034732
CG2R62  OG2D1     1  0.293996576986  0.434814034732
CG2R62  OG2D3     1  0.293996576986  0.434814034732
CG2R62   OLG1     1  0.293996576986  0.434814034732
CG2R63  CG301     1  0.338541512893  0.132309697301
CG2R63  CG311     1  0.338541512893  0.132309697301
CG2R63  CG314     1  0.338541512893  0.132309697301
CG2R63  CG321     1  0.338541512893  0.132309697301
CG2R63  CG324     1  0.338541512893  0.132309697301
CG2R63  CG331     1  0.338541512893  0.132309697301
CG2R63  CG334     1  0.338541512893  0.132309697301
CG2R63 CG3C31     1  0.338541512893  0.132309697301
CG2R63 CG3C41     1  0.338541512893  0.132309697301
CG2R63 CG3C50     1  0.338541512893  0.132309697301
CG2R63 CG3C51     1  0.338541512893  0.132309697301
CG2R63 CG3C52     1  0.338541512893  0.132309697301
CG2R63 CG3C53     1  0.338541512893  0.132309697301
CG2R63 CG3C54     1  0.338541512893  0.132309697301
CG2R63 CG3RC1     1  0.338541512893  0.132309697301
CG2R63  CLG11     1  0.338541512893  0.132309697301
CG2R63  CLG12     1  0.338541512893  0.132309697301
CG2R63  CLG13     1  0.338541512893  0.132309697301
CG2R63  CLG14     1  0.338541512893  0.132309697301
CG2R63  CLG15     1  0.338541512893  0.132309697301
CG2R63  CLG16     1  0.338541512893  0.132309697301
CG2R63    CN6     1  0.338541512893  0.132309697301
CG2R63    CN7     1  0.338541512893  0.132309697301
CG2R63   CN7B     1  0.338541512893  0.132309697301
CG2R63   CN7E     1  0.338541512893  0.132309697301
CG2R63    CN8     1  0.338541512893  0.132309697301
CG2R63   CN8B     1  0.338541512893  0.132309697301
CG2R63    CN9     1  0.338541512893  0.132309697301
CG2R63    CP1     1  0.338541512893  0.132309697301
CG2R63    CP2     1  0.338541512893  0.132309697301
CG2R63    CP3     1  0.338541512893  0.132309697301
CG2R63   CPD1     1  0.338541512893  0.132309697301
CG2R63   CR33     1  0.338541512893  0.132309697301
CG2R63   CRL1     1  0.338541512893  0.132309697301
CG2R63   CRL2     1  0.338541512893  0.132309697301
CG2R63     CT     1  0.338541512893  0.132309697301
CG2R63    CT1     1  0.338541512893  0.132309697301
CG2R63   CT1X     1  0.338541512893  0.132309697301
CG2R63    CT2     1  0.338541512893  0.132309697301
CG2R63   CT2A     1  0.338541512893  0.132309697301
CG2R63   CT2P     1  0.338541512893  0.132309697301
CG2R63   CT2X     1  0.338541512893  0.132309697301
CG2R63    CT3     1  0.338541512893  0.132309697301
CG2R63   CT3X     1  0.338541512893  0.132309697301
CG2R63   CTD1     1  0.338541512893  0.132309697301
CG2R63   CTL1     1  0.338541512893  0.132309697301
CG2R63   CTL2     1  0.338541512893  0.132309697301
CG2R63   CTL3     1  0.338541512893  0.132309697301
CG2R63   CTL5     1  0.338541512893  0.132309697301
CG2R63   CTO1     1  0.338541512893  0.132309697301
CG2R63   CTO2     1  0.338541512893  0.132309697301
CG2R63     HP     1  0.290272620344  0.229167118060
CG2R63      N     1  0.334087019303  0.013230969730
CG2R63  NC2D1     1  0.307360057758  0.591706954497
CG2R63  NG2S0     1  0.334087019303  0.013230969730
CG2R63  NG2S1     1  0.307360057758  0.591706954497
CG2R63    NH1     1  0.307360057758  0.591706954497
CG2R63    NHL     1  0.307360057758  0.591706954497
CG2R63      O     1  0.293996576986  0.458334236120
CG2R63     OB     1  0.293996576986  0.458334236120
CG2R63    OBL     1  0.293996576986  0.458334236120
CG2R63  OC2D1     1  0.293996576986  0.458334236120
CG2R63  OC2D3     1  0.293996576986  0.458334236120
CG2R63  OC2D4     1  0.293996576986  0.458334236120
CG2R63    OCA     1  0.293996576986  0.458334236120
CG2R63  OG2D1     1  0.293996576986  0.458334236120
CG2R63  OG2D3     1  0.293996576986  0.458334236120
CG2R63   OLG1     1  0.293996576986  0.458334236120
CG2R64  CG301     1  0.356359487256  0.083680000000
CG2R64  CG311     1  0.356359487256  0.083680000000
CG2R64  CG314     1  0.356359487256  0.083680000000
CG2R64  CG321     1  0.356359487256  0.083680000000
CG2R64  CG324     1  0.356359487256  0.083680000000
CG2R64  CG331     1  0.356359487256  0.083680000000
CG2R64  CG334     1  0.356359487256  0.083680000000
CG2R64 CG3C31     1  0.356359487256  0.083680000000
CG2R64 CG3C41     1  0.356359487256  0.083680000000
CG2R64 CG3C50     1  0.356359487256  0.083680000000
CG2R64 CG3C51     1  0.356359487256  0.083680000000
CG2R64 CG3C52     1  0.356359487256  0.083680000000
CG2R64 CG3C53     1  0.356359487256  0.083680000000
CG2R64 CG3C54     1  0.356359487256  0.083680000000
CG2R64 CG3RC1     1  0.356359487256  0.083680000000
CG2R64  CLG11     1  0.356359487256  0.083680000000
CG2R64  CLG12     1  0.356359487256  0.083680000000
CG2R64  CLG13     1  0.356359487256  0.083680000000
CG2R64  CLG14     1  0.356359487256  0.083680000000
CG2R64  CLG15     1  0.356359487256  0.083680000000
CG2R64  CLG16     1  0.356359487256  0.083680000000
CG2R64    CN6     1  0.356359487256  0.083680000000
CG2R64    CN7     1  0.356359487256  0.083680000000
CG2R64   CN7B     1  0.356359487256  0.083680000000
CG2R64   CN7E     1  0.356359487256  0.083680000000
CG2R64    CN8     1  0.356359487256  0.083680000000
CG2R64   CN8B     1  0.356359487256  0.083680000000
CG2R64    CN9     1  0.356359487256  0.083680000000
CG2R64    CP1     1  0.356359487256  0.083680000000
CG2R64    CP2     1  0.356359487256  0.083680000000
CG2R64    CP3     1  0.356359487256  0.083680000000
CG2R64   CPD1     1  0.356359487256  0.083680000000
CG2R64   CR33     1  0.356359487256  0.083680000000
CG2R64   CRL1     1  0.356359487256  0.083680000000
CG2R64   CRL2     1  0.356359487256  0.083680000000
CG2R64     CT     1  0.356359487256  0.083680000000
CG2R64    CT1     1  0.356359487256  0.083680000000
CG2R64   CT1X     1  0.356359487256  0.083680000000
CG2R64    CT2     1  0.356359487256  0.083680000000
CG2R64   CT2A     1  0.356359487256  0.083680000000
CG2R64   CT2P     1  0.356359487256  0.083680000000
CG2R64   CT2X     1  0.356359487256  0.083680000000
CG2R64    CT3     1  0.356359487256  0.083680000000
CG2R64   CT3X     1  0.356359487256  0.083680000000
CG2R64   CTD1     1  0.356359487256  0.083680000000
CG2R64   CTL1     1  0.356359487256  0.083680000000
CG2R64   CTL2     1  0.356359487256  0.083680000000
CG2R64   CTL3     1  0.356359487256  0.083680000000
CG2R64   CTL5     1  0.356359487256  0.083680000000
CG2R64   CTO1     1  0.356359487256  0.083680000000
CG2R64   CTO2     1  0.356359487256  0.083680000000
CG2R64     HP     1  0.308090594707  0.144938011577
CG2R64      N     1  0.351904993665  0.008368000000
CG2R64  NC2D1     1  0.325178032121  0.374228336714
CG2R64  NG2S0     1  0.351904993665  0.008368000000
CG2R64  NG2S1     1  0.325178032121  0.374228336714
CG2R64    NH1     1  0.325178032121  0.374228336714
CG2R64    NHL     1  0.325178032121  0.374228336714
CG2R64      O     1  0.311814551349  0.289876023155
CG2R64     OB     1  0.311814551349  0.289876023155
CG2R64    OBL     1  0.311814551349  0.289876023155
CG2R64  OC2D1     1  0.311814551349  0.289876023155
CG2R64  OC2D3     1  0.311814551349  0.289876023155
CG2R64  OC2D4     1  0.311814551349  0.289876023155
CG2R64    OCA     1  0.311814551349  0.289876023155
CG2R64  OG2D1     1  0.311814551349  0.289876023155
CG2R64  OG2D3     1  0.311814551349  0.289876023155
CG2R64   OLG1     1  0.311814551349  0.289876023155
CG2R66  CG301     1  0.338541512893  0.110698234855
CG2R66  CG311     1  0.338541512893  0.110698234855
CG2R66  CG314     1  0.338541512893  0.110698234855
CG2R66  CG321     1  0.338541512893  0.110698234855
CG2R66  CG324     1  0.338541512893  0.110698234855
CG2R66  CG331     1  0.338541512893  0.110698234855
CG2R66  CG334     1  0.338541512893  0.110698234855
CG2R66 CG3C31     1  0.338541512893  0.110698234855
CG2R66 CG3C41     1  0.338541512893  0.110698234855
CG2R66 CG3C50     1  0.338541512893  0.110698234855
CG2R66 CG3C51     1  0.338541512893  0.110698234855
CG2R66 CG3C52     1  0.338541512893  0.110698234855
CG2R66 CG3C53     1  0.338541512893  0.110698234855
CG2R66 CG3C54     1  0.338541512893  0.110698234855
CG2R66 CG3RC1     1  0.338541512893  0.110698234855
CG2R66  CLG11     1  0.338541512893  0.110698234855
CG2R66  CLG12     1  0.338541512893  0.110698234855
CG2R66  CLG13     1  0.338541512893  0.110698234855
CG2R66  CLG14     1  0.338541512893  0.110698234855
CG2R66  CLG15     1  0.338541512893  0.110698234855
CG2R66  CLG16     1  0.338541512893  0.110698234855
CG2R66    CN6     1  0.338541512893  0.110698234855
CG2R66    CN7     1  0.338541512893  0.110698234855
CG2R66   CN7B     1  0.338541512893  0.110698234855
CG2R66   CN7E     1  0.338541512893  0.110698234855
CG2R66    CN8     1  0.338541512893  0.110698234855
CG2R66   CN8B     1  0.338541512893  0.110698234855
CG2R66    CN9     1  0.338541512893  0.110698234855
CG2R66    CP1     1  0.338541512893  0.110698234855
CG2R66    CP2     1  0.338541512893  0.110698234855
CG2R66    CP3     1  0.338541512893  0.110698234855
CG2R66   CPD1     1  0.338541512893  0.110698234855
CG2R66   CR33     1  0.338541512893  0.110698234855
CG2R66   CRL1     1  0.338541512893  0.110698234855
CG2R66   CRL2     1  0.338541512893  0.110698234855
CG2R66     CT     1  0.338541512893  0.110698234855
CG2R66    CT1     1  0.338541512893  0.110698234855
CG2R66   CT1X     1  0.338541512893  0.110698234855
CG2R66    CT2     1  0.338541512893  0.110698234855
CG2R66   CT2A     1  0.338541512893  0.110698234855
CG2R66   CT2P     1  0.338541512893  0.110698234855
CG2R66   CT2X     1  0.338541512893  0.110698234855
CG2R66    CT3     1  0.338541512893  0.110698234855
CG2R66   CT3X     1  0.338541512893  0.110698234855
CG2R66   CTD1     1  0.338541512893  0.110698234855
CG2R66   CTL1     1  0.338541512893  0.110698234855
CG2R66   CTL2     1  0.338541512893  0.110698234855
CG2R66   CTL3     1  0.338541512893  0.110698234855
CG2R66   CTL5     1  0.338541512893  0.110698234855
CG2R66   CTO1     1  0.338541512893  0.110698234855
CG2R66   CTO2     1  0.338541512893  0.110698234855
CG2R66     HP     1  0.290272620344  0.191734967077
CG2R66      N     1  0.334087019303  0.011069823485
CG2R66  NC2D1     1  0.307360057758  0.495057556250
CG2R66  NG2S0     1  0.334087019303  0.011069823485
CG2R66  NG2S1     1  0.307360057758  0.495057556250
CG2R66    NH1     1  0.307360057758  0.495057556250
CG2R66    NHL     1  0.307360057758  0.495057556250
CG2R66      O     1  0.293996576986  0.383469934154
CG2R66     OB     1  0.293996576986  0.383469934154
CG2R66    OBL     1  0.293996576986  0.383469934154
CG2R66  OC2D1     1  0.293996576986  0.383469934154
CG2R66  OC2D3     1  0.293996576986  0.383469934154
CG2R66  OC2D4     1  0.293996576986  0.383469934154
CG2R66    OCA     1  0.293996576986  0.383469934154
CG2R66  OG2D1     1  0.293996576986  0.383469934154
CG2R66  OG2D3     1  0.293996576986  0.383469934154
CG2R66   OLG1     1  0.293996576986  0.383469934154
CG2R67  CG301     1  0.346773417049  0.110698234855
CG2R67  CG311     1  0.346773417049  0.110698234855
CG2R67  CG314     1  0.346773417049  0.110698234855
CG2R67  CG321     1  0.346773417049  0.110698234855
CG2R67  CG324     1  0.346773417049  0.110698234855
CG2R67  CG331     1  0.346773417049  0.110698234855
CG2R67  CG334     1  0.346773417049  0.110698234855
CG2R67 CG3C31     1  0.346773417049  0.110698234855
CG2R67 CG3C41     1  0.346773417049  0.110698234855
CG2R67 CG3C50     1  0.346773417049  0.110698234855
CG2R67 CG3C51     1  0.346773417049  0.110698234855
CG2R67 CG3C52     1  0.346773417049  0.110698234855
CG2R67 CG3C53     1  0.346773417049  0.110698234855
CG2R67 CG3C54     1  0.346773417049  0.110698234855
CG2R67 CG3RC1     1  0.346773417049  0.110698234855
CG2R67  CLG11     1  0.346773417049  0.110698234855
CG2R67  CLG12     1  0.346773417049  0.110698234855
CG2R67  CLG13     1  0.346773417049  0.110698234855
CG2R67  CLG14     1  0.346773417049  0.110698234855
CG2R67  CLG15     1  0.346773417049  0.110698234855
CG2R67  CLG16     1  0.346773417049  0.110698234855
CG2R67    CN6     1  0.346773417049  0.110698234855
CG2R67    CN7     1  0.346773417049  0.110698234855
CG2R67   CN7B     1  0.346773417049  0.110698234855
CG2R67   CN7E     1  0.346773417049  0.110698234855
CG2R67    CN8     1  0.346773417049  0.110698234855
CG2R67   CN8B     1  0.346773417049  0.110698234855
CG2R67    CN9     1  0.346773417049  0.110698234855
CG2R67    CP1     1  0.346773417049  0.110698234855
CG2R67    CP2     1  0.346773417049  0.110698234855
CG2R67    CP3     1  0.346773417049  0.110698234855
CG2R67   CPD1     1  0.346773417049  0.110698234855
CG2R67   CR33     1  0.346773417049  0.110698234855
CG2R67   CRL1     1  0.346773417049  0.110698234855
CG2R67   CRL2     1  0.346773417049  0.110698234855
CG2R67     CT     1  0.346773417049  0.110698234855
CG2R67    CT1     1  0.346773417049  0.110698234855
CG2R67   CT1X     1  0.346773417049  0.110698234855
CG2R67    CT2     1  0.346773417049  0.110698234855
CG2R67   CT2A     1  0.346773417049  0.110698234855
CG2R67   CT2P     1  0.346773417049  0.110698234855
CG2R67   CT2X     1  0.346773417049  0.110698234855
CG2R67    CT3     1  0.346773417049  0.110698234855
CG2R67   CT3X     1  0.346773417049  0.110698234855
CG2R67   CTD1     1  0.346773417049  0.110698234855
CG2R67   CTL1     1  0.346773417049  0.110698234855
CG2R67   CTL2     1  0.346773417049  0.110698234855
CG2R67   CTL3     1  0.346773417049  0.110698234855
CG2R67   CTL5     1  0.346773417049  0.110698234855
CG2R67   CTO1     1  0.346773417049  0.110698234855
CG2R67   CTO2     1  0.346773417049  0.110698234855
CG2R67     HP     1  0.298504524500  0.191734967077
CG2R67      N     1  0.342318923458  0.011069823485
CG2R67  NC2D1     1  0.315591961914  0.495057556250
CG2R67  NG2S0     1  0.342318923458  0.011069823485
CG2R67  NG2S1     1  0.315591961914  0.495057556250
CG2R67    NH1     1  0.315591961914  0.495057556250
CG2R67    NHL     1  0.315591961914  0.495057556250
CG2R67      O     1  0.302228481142  0.383469934154
CG2R67     OB     1  0.302228481142  0.383469934154
CG2R67    OBL     1  0.302228481142  0.383469934154
CG2R67  OC2D1     1  0.302228481142  0.383469934154
CG2R67  OC2D3     1  0.302228481142  0.383469934154
CG2R67  OC2D4     1  0.302228481142  0.383469934154
CG2R67    OCA     1  0.302228481142  0.383469934154
CG2R67  OG2D1     1  0.302228481142  0.383469934154
CG2R67  OG2D3     1  0.302228481142  0.383469934154
CG2R67   OLG1     1  0.302228481142  0.383469934154
CG2R71  CG301     1  0.346987232741  0.108300154755
CG2R71  CG311     1  0.346987232741  0.108300154755
CG2R71  CG314     1  0.346987232741  0.108300154755
CG2R71  CG321     1  0.346987232741  0.108300154755
CG2R71  CG324     1  0.346987232741  0.108300154755
CG2R71  CG331     1  0.346987232741  0.108300154755
CG2R71  CG334     1  0.346987232741  0.108300154755
CG2R71 CG3C31     1  0.346987232741  0.108300154755
CG2R71 CG3C41     1  0.346987232741  0.108300154755
CG2R71 CG3C50     1  0.346987232741  0.108300154755
CG2R71 CG3C51     1  0.346987232741  0.108300154755
CG2R71 CG3C52     1  0.346987232741  0.108300154755
CG2R71 CG3C53     1  0.346987232741  0.108300154755
CG2R71 CG3C54     1  0.346987232741  0.108300154755
CG2R71 CG3RC1     1  0.346987232741  0.108300154755
CG2R71  CLG11     1  0.346987232741  0.108300154755
CG2R71  CLG12     1  0.346987232741  0.108300154755
CG2R71  CLG13     1  0.346987232741  0.108300154755
CG2R71  CLG14     1  0.346987232741  0.108300154755
CG2R71  CLG15     1  0.346987232741  0.108300154755
CG2R71  CLG16     1  0.346987232741  0.108300154755
CG2R71    CN6     1  0.346987232741  0.108300154755
CG2R71    CN7     1  0.346987232741  0.108300154755
CG2R71   CN7B     1  0.346987232741  0.108300154755
CG2R71   CN7E     1  0.346987232741  0.108300154755
CG2R71    CN8     1  0.346987232741  0.108300154755
CG2R71   CN8B     1  0.346987232741  0.108300154755
CG2R71    CN9     1  0.346987232741  0.108300154755
CG2R71    CP1     1  0.346987232741  0.108300154755
CG2R71    CP2     1  0.346987232741  0.108300154755
CG2R71    CP3     1  0.346987232741  0.108300154755
CG2R71   CPD1     1  0.346987232741  0.108300154755
CG2R71   CR33     1  0.346987232741  0.108300154755
CG2R71   CRL1     1  0.346987232741  0.108300154755
CG2R71   CRL2     1  0.346987232741  0.108300154755
CG2R71     CT     1  0.346987232741  0.108300154755
CG2R71    CT1     1  0.346987232741  0.108300154755
CG2R71   CT1X     1  0.346987232741  0.108300154755
CG2R71    CT2     1  0.346987232741  0.108300154755
CG2R71   CT2A     1  0.346987232741  0.108300154755
CG2R71   CT2P     1  0.346987232741  0.108300154755
CG2R71   CT2X     1  0.346987232741  0.108300154755
CG2R71    CT3     1  0.346987232741  0.108300154755
CG2R71   CT3X     1  0.346987232741  0.108300154755
CG2R71   CTD1     1  0.346987232741  0.108300154755
CG2R71   CTL1     1  0.346987232741  0.108300154755
CG2R71   CTL2     1  0.346987232741  0.108300154755
CG2R71   CTL3     1  0.346987232741  0.108300154755
CG2R71   CTL5     1  0.346987232741  0.108300154755
CG2R71   CTO1     1  0.346987232741  0.108300154755
CG2R71   CTO2     1  0.346987232741  0.108300154755
CG2R71     HP     1  0.298718340192  0.187581370504
CG2R71      N     1  0.342532739151  0.010830015476
CG2R71  NC2D1     1  0.315805777606  0.484333016013
CG2R71  NG2S0     1  0.342532739151  0.010830015476
CG2R71  NG2S1     1  0.315805777606  0.484333016013
CG2R71    NH1     1  0.315805777606  0.484333016013
CG2R71    NHL     1  0.315805777606  0.484333016013
CG2R71      O     1  0.302442296834  0.375162741007
CG2R71     OB     1  0.302442296834  0.375162741007
CG2R71    OBL     1  0.302442296834  0.375162741007
CG2R71  OC2D1     1  0.302442296834  0.375162741007
CG2R71  OC2D3     1  0.302442296834  0.375162741007
CG2R71  OC2D4     1  0.302442296834  0.375162741007
CG2R71    OCA     1  0.302442296834  0.375162741007
CG2R71  OG2D1     1  0.302442296834  0.375162741007
CG2R71  OG2D3     1  0.302442296834  0.375162741007
CG2R71   OLG1     1  0.302442296834  0.375162741007
CG2RC0  CG301     1  0.334977918021  0.131646486622
CG2RC0  CG311     1  0.334977918021  0.131646486622
CG2RC0  CG314     1  0.334977918021  0.131646486622
CG2RC0  CG321     1  0.334977918021  0.131646486622
CG2RC0  CG324     1  0.334977918021  0.131646486622
CG2RC0  CG331     1  0.334977918021  0.131646486622
CG2RC0  CG334     1  0.334977918021  0.131646486622
CG2RC0 CG3C31     1  0.334977918021  0.131646486622
CG2RC0 CG3C41     1  0.334977918021  0.131646486622
CG2RC0 CG3C50     1  0.334977918021  0.131646486622
CG2RC0 CG3C51     1  0.334977918021  0.131646486622
CG2RC0 CG3C52     1  0.334977918021  0.131646486622
CG2RC0 CG3C53     1  0.334977918021  0.131646486622
CG2RC0 CG3C54     1  0.334977918021  0.131646486622
CG2RC0 CG3RC1     1  0.334977918021  0.131646486622
CG2RC0  CLG11     1  0.334977918021  0.131646486622
CG2RC0  CLG12     1  0.334977918021  0.131646486622
CG2RC0  CLG13     1  0.334977918021  0.131646486622
CG2RC0  CLG14     1  0.334977918021  0.131646486622
CG2RC0  CLG15     1  0.334977918021  0.131646486622
CG2RC0  CLG16     1  0.334977918021  0.131646486622
CG2RC0    CN6     1  0.334977918021  0.131646486622
CG2RC0    CN7     1  0.334977918021  0.131646486622
CG2RC0   CN7B     1  0.334977918021  0.131646486622
CG2RC0   CN7E     1  0.334977918021  0.131646486622
CG2RC0    CN8     1  0.334977918021  0.131646486622
CG2RC0   CN8B     1  0.334977918021  0.131646486622
CG2RC0    CN9     1  0.334977918021  0.131646486622
CG2RC0    CP1     1  0.334977918021  0.131646486622
CG2RC0    CP2     1  0.334977918021  0.131646486622
CG2RC0    CP3     1  0.334977918021  0.131646486622
CG2RC0   CPD1     1  0.334977918021  0.131646486622
CG2RC0   CR33     1  0.334977918021  0.131646486622
CG2RC0   CRL1     1  0.334977918021  0.131646486622
CG2RC0   CRL2     1  0.334977918021  0.131646486622
CG2RC0     CT     1  0.334977918021  0.131646486622
CG2RC0    CT1     1  0.334977918021  0.131646486622
CG2RC0   CT1X     1  0.334977918021  0.131646486622
CG2RC0    CT2     1  0.334977918021  0.131646486622
CG2RC0   CT2A     1  0.334977918021  0.131646486622
CG2RC0   CT2P     1  0.334977918021  0.131646486622
CG2RC0   CT2X     1  0.334977918021  0.131646486622
CG2RC0    CT3     1  0.334977918021  0.131646486622
CG2RC0   CT3X     1  0.334977918021  0.131646486622
CG2RC0   CTD1     1  0.334977918021  0.131646486622
CG2RC0   CTL1     1  0.334977918021  0.131646486622
CG2RC0   CTL2     1  0.334977918021  0.131646486622
CG2RC0   CTL3     1  0.334977918021  0.131646486622
CG2RC0   CTL5     1  0.334977918021  0.131646486622
CG2RC0   CTO1     1  0.334977918021  0.131646486622
CG2RC0   CTO2     1  0.334977918021  0.131646486622
CG2RC0     HP     1  0.286709025472  0.228018403468
CG2RC0      N     1  0.330523424430  0.013164648662
CG2RC0  NC2D1     1  0.303796462886  0.588740986173
CG2RC0  NG2S0     1  0.330523424430  0.013164648662
CG2RC0  NG2S1     1  0.303796462886  0.588740986173
CG2RC0    NH1     1  0.303796462886  0.588740986173
CG2RC0    NHL     1  0.303796462886  0.588740986173
CG2RC0      O     1  0.290432982114  0.456036806936
CG2RC0     OB     1  0.290432982114  0.456036806936
CG2RC0    OBL     1  0.290432982114  0.456036806936
CG2RC0  OC2D1     1  0.290432982114  0.456036806936
CG2RC0  OC2D3     1  0.290432982114  0.456036806936
CG2RC0  OC2D4     1  0.290432982114  0.456036806936
CG2RC0    OCA     1  0.290432982114  0.456036806936
CG2RC0  OG2D1     1  0.290432982114  0.456036806936
CG2RC0  OG2D3     1  0.290432982114  0.456036806936
CG2RC0   OLG1     1  0.290432982114  0.456036806936
CG2RC7  CG301     1  0.334977918021  0.131646486622
CG2RC7  CG311     1  0.334977918021  0.131646486622
CG2RC7  CG314     1  0.334977918021  0.131646486622
CG2RC7  CG321     1  0.334977918021  0.131646486622
CG2RC7  CG324     1  0.334977918021  0.131646486622
CG2RC7  CG331     1  0.334977918021  0.131646486622
CG2RC7  CG334     1  0.334977918021  0.131646486622
CG2RC7 CG3C31     1  0.334977918021  0.131646486622
CG2RC7 CG3C41     1  0.334977918021  0.131646486622
CG2RC7 CG3C50     1  0.334977918021  0.131646486622
CG2RC7 CG3C51     1  0.334977918021  0.131646486622
CG2RC7 CG3C52     1  0.334977918021  0.131646486622
CG2RC7 CG3C53     1  0.334977918021  0.131646486622
CG2RC7 CG3C54     1  0.334977918021  0.131646486622
CG2RC7 CG3RC1     1  0.334977918021  0.131646486622
CG2RC7  CLG11     1  0.334977918021  0.131646486622
CG2RC7  CLG12     1  0.334977918021  0.131646486622
CG2RC7  CLG13     1  0.334977918021  0.131646486622
CG2RC7  CLG14     1  0.334977918021  0.131646486622
CG2RC7  CLG15     1  0.334977918021  0.131646486622
CG2RC7  CLG16     1  0.334977918021  0.131646486622
CG2RC7    CN6     1  0.334977918021  0.131646486622
CG2RC7    CN7     1  0.334977918021  0.131646486622
CG2RC7   CN7B     1  0.334977918021  0.131646486622
CG2RC7   CN7E     1  0.334977918021  0.131646486622
CG2RC7    CN8     1  0.334977918021  0.131646486622
CG2RC7   CN8B     1  0.334977918021  0.131646486622
CG2RC7    CN9     1  0.334977918021  0.131646486622
CG2RC7    CP1     1  0.334977918021  0.131646486622
CG2RC7    CP2     1  0.334977918021  0.131646486622
CG2RC7    CP3     1  0.334977918021  0.131646486622
CG2RC7   CPD1     1  0.334977918021  0.131646486622
CG2RC7   CR33     1  0.334977918021  0.131646486622
CG2RC7   CRL1     1  0.334977918021  0.131646486622
CG2RC7   CRL2     1  0.334977918021  0.131646486622
CG2RC7     CT     1  0.334977918021  0.131646486622
CG2RC7    CT1     1  0.334977918021  0.131646486622
CG2RC7   CT1X     1  0.334977918021  0.131646486622
CG2RC7    CT2     1  0.334977918021  0.131646486622
CG2RC7   CT2A     1  0.334977918021  0.131646486622
CG2RC7   CT2P     1  0.334977918021  0.131646486622
CG2RC7   CT2X     1  0.334977918021  0.131646486622
CG2RC7    CT3     1  0.334977918021  0.131646486622
CG2RC7   CT3X     1  0.334977918021  0.131646486622
CG2RC7   CTD1     1  0.334977918021  0.131646486622
CG2RC7   CTL1     1  0.334977918021  0.131646486622
CG2RC7   CTL2     1  0.334977918021  0.131646486622
CG2RC7   CTL3     1  0.334977918021  0.131646486622
CG2RC7   CTL5     1  0.334977918021  0.131646486622
CG2RC7   CTO1     1  0.334977918021  0.131646486622
CG2RC7   CTO2     1  0.334977918021  0.131646486622
CG2RC7     HP     1  0.286709025472  0.228018403468
CG2RC7      N     1  0.330523424430  0.013164648662
CG2RC7  NC2D1     1  0.303796462886  0.588740986173
CG2RC7  NG2S0     1  0.330523424430  0.013164648662
CG2RC7  NG2S1     1  0.303796462886  0.588740986173
CG2RC7    NH1     1  0.303796462886  0.588740986173
CG2RC7    NHL     1  0.303796462886  0.588740986173
CG2RC7      O     1  0.290432982114  0.456036806936
CG2RC7     OB     1  0.290432982114  0.456036806936
CG2RC7    OBL     1  0.290432982114  0.456036806936
CG2RC7  OC2D1     1  0.290432982114  0.456036806936
CG2RC7  OC2D3     1  0.290432982114  0.456036806936
CG2RC7  OC2D4     1  0.290432982114  0.456036806936
CG2RC7    OCA     1  0.290432982114  0.456036806936
CG2RC7  OG2D1     1  0.290432982114  0.456036806936
CG2RC7  OG2D3     1  0.290432982114  0.456036806936
CG2RC7   OLG1     1  0.290432982114  0.456036806936
 CG301  CG301     1  0.338541512893  0.041840000000
 CG301  CG302     1  0.374177461619  0.059170695450
 CG301  CG311     1  0.338541512893  0.041840000000
 CG301  CG312     1  0.351904993665  0.085746484010
 CG301  CG314     1  0.338541512893  0.041840000000
 CG301  CG321     1  0.338541512893  0.041840000000
 CG301  CG322     1  0.338541512893  0.102486650838
 CG301  CG323     1  0.365268474438  0.138767581228
 CG301  CG324     1  0.338541512893  0.041840000000
 CG301  CG331     1  0.338541512893  0.041840000000
 CG301  CG334     1  0.338541512893  0.041840000000
 CG301 CG3AM0     1  0.344777803920  0.110698234855
 CG301 CG3AM1     1  0.345668702638  0.116852760686
 CG301 CG3AM2     1  0.346559601357  0.118341390899
 CG301 CG3C31     1  0.338541512893  0.041840000000
 CG301 CG3C41     1  0.338541512893  0.041840000000
 CG301 CG3C50     1  0.338541512893  0.041840000000
 CG301 CG3C51     1  0.338541512893  0.041840000000
 CG301 CG3C52     1  0.338541512893  0.041840000000
 CG301 CG3C53     1  0.338541512893  0.041840000000
 CG301 CG3C54     1  0.338541512893  0.041840000000
 CG301 CG3RC1     1  0.338541512893  0.041840000000
 CG301     CL     1  0.347450500075  0.110698234855
 CG301    CLA     1  0.371504765465  0.162045623205
 CG301   CLAL     1  0.339272049842  0.072469005789
 CG301  CLG01     1  0.355468588538  0.109105371453
 CG301  CLG02     1  0.355468588538  0.109105371453
 CG301  CLG03     1  0.320723538531  0.130979917850
 CG301  CLG04     1  0.347450500075  0.110698234855
 CG301  CLG05     1  0.329632525712  0.102486650838
 CG301  CLG06     1  0.346773417049  0.110698234855
 CG301 CLG06A     1  0.346773417049  0.110698234855
 CG301 CLG06B     1  0.346773417049  0.110698234855
 CG301  CLG07     1  0.338541512893  0.125520000000
 CG301  CLG08     1  0.338541512893  0.132309697301
 CG301  CLG09     1  0.346773417049  0.110698234855
 CG301  CLG10     1  0.334977918021  0.131646486622
 CG301  CLG11     1  0.338541512893  0.041840000000
 CG301  CLG12     1  0.338541512893  0.041840000000
 CG301  CLG13     1  0.338541512893  0.041840000000
 CG301  CLG14     1  0.338541512893  0.041840000000
 CG301  CLG15     1  0.338541512893  0.041840000000
 CG301  CLG16     1  0.338541512893  0.041840000000
 CG301  CLGA1     1  0.339432411611  0.245040988571
 CG301  CLGA3     1  0.339432411611  0.232955260941
 CG301  CLGR1     1  0.334977918021  0.200657590935
 CG301     CM     1  0.356359487256  0.138767581228
 CG301     CN     1  0.325178032121  0.187114168357
 CG301    CN1     1  0.338541512893  0.132309697301
 CG301   CN1A     1  0.347450500075  0.110698234855
 CG301   CN1T     1  0.338541512893  0.132309697301
 CG301    CN2     1  0.338541512893  0.132309697301
 CG301    CN3     1  0.338541512893  0.125520000000
 CG301   CN3A     1  0.329632525712  0.177512086349
 CG301   CN3B     1  0.329632525712  0.177512086349
 CG301   CN3C     1  0.329632525712  0.177512086349
 CG301   CN3D     1  0.338541512893  0.125520000000
 CG301   CN3T     1  0.338541512893  0.125520000000
 CG301    CN4     1  0.338541512893  0.114583559030
 CG301    CN5     1  0.338541512893  0.114583559030
 CG301   CN5G     1  0.338541512893  0.114583559030
 CG301    CN6     1  0.338541512893  0.041840000000
 CG301    CN7     1  0.338541512893  0.041840000000
 CG301   CN7B     1  0.338541512893  0.041840000000
 CG301   CN7E     1  0.338541512893  0.041840000000
 CG301    CN8     1  0.338541512893  0.041840000000
 CG301   CN8B     1  0.338541512893  0.041840000000
 CG301    CN9     1  0.338541512893  0.041840000000
 CG301    CNA     1  0.346773417049  0.110698234855
 CG301   CNA2     1  0.338541512893  0.110698234855
 CG301   CNE1     1  0.355468588538  0.109105371453
 CG301   CNE2     1  0.354577689820  0.105847757841
 CG301    CNG     1  0.347450500075  0.138767581228
 CG301   CO2P     1  0.251910521541  0.164138698618
 CG301   CO3P     1  0.192264852362  0.144393471099
 CG301    COA     1  0.347450500075  0.138767581228
 CG301    CP1     1  0.338541512893  0.041840000000
 CG301    CP2     1  0.338541512893  0.041840000000
 CG301    CP3     1  0.338541512893  0.041840000000
 CG301    CPA     1  0.329632525712  0.125520000000
 CG301    CPB     1  0.329632525712  0.125520000000
 CG301   CPD1     1  0.338541512893  0.041840000000
 CG301   CPH1     1  0.329632525712  0.093557084179
 CG301   CPH2     1  0.329632525712  0.093557084179
 CG301    CPM     1  0.329632525712  0.125520000000
 CG301    CPT     1  0.334977918021  0.131646486622
 CG301   CR2P     1  0.263634748672  0.170828164985
 CG301   CR33     1  0.338541512893  0.041840000000
 CG301   CR3P     1  0.244382427373  0.145299904804
 CG301   CRL1     1  0.338541512893  0.041840000000
 CG301   CRL2     1  0.338541512893  0.041840000000
 CG301   CRN1     1  0.347450500075  0.138767581228
 CG301     CS     1  0.365268474438  0.138767581228
 CG301    CST     1  0.308518226092  0.100764063435
 CG301     CT     1  0.338541512893  0.041840000000
 CG301    CT1     1  0.338541512893  0.041840000000
 CG301   CT1X     1  0.338541512893  0.041840000000
 CG301    CT2     1  0.338541512893  0.041840000000
 CG301   CT2A     1  0.338541512893  0.041840000000
 CG301   CT2P     1  0.338541512893  0.041840000000
 CG301   CT2X     1  0.338541512893  0.041840000000
 CG301    CT3     1  0.338541512893  0.041840000000
 CG301   CT3X     1  0.338541512893  0.041840000000
 CG301   CTD1     1  0.338541512893  0.041840000000
 CG301   CTL1     1  0.338541512893  0.041840000000
 CG301   CTL2     1  0.338541512893  0.041840000000
 CG301   CTL3     1  0.338541512893  0.041840000000
 CG301   CTL5     1  0.338541512893  0.041840000000
 CG301   CTO1     1  0.338541512893  0.041840000000
 CG301   CTO2     1  0.338541512893  0.041840000000
 CG301     CU     1  0.285800308779  0.908997471504
 CG301   CU1P     1  0.246066225950  0.180057894334
 CG301   CU2P     1  0.233869822499  0.162315474555
 CG301     CY     1  0.346559601357  0.113045454929
 CG301    DUM     1  0.169270756447  0.000000000000
 CG301   DY3P     1  0.297952167295  0.171135318061
 CG301   ER3P     1  0.291083338178  0.169232326746
 CG301   EU2P     1  0.333231756533  0.203602227414
 CG301   EU3P     1  0.304954631219  0.174528477447
 CG301     F1     1  0.314487247504  0.153729976257
 CG301     F2     1  0.314487247504  0.135577095411
 CG301     F3     1  0.311814551349  0.130309939452
 CG301     FA     1  0.320723538531  0.144938011577
 CG301     FE     1  0.227179173126  0.000000000000
 CG301   FE2P     1  0.265496726993  0.167098295383
 CG301   FE3P     1  0.219722350855  0.148045032716
 CG301   FGA1     1  0.314487247504  0.153729976257
 CG301   FGA2     1  0.314487247504  0.135577095411
 CG301   FGA3     1  0.311814551349  0.130309939452
 CG301   FGP1     1  0.311814551349  0.130309939452
 CG301   FGR1     1  0.320723538531  0.144938011577
 CG301    FNA     1  0.320723538531  0.144938011577
 CG301   GA3P     1  0.189485248361  0.145299904804
 CG301   GD3P     1  0.303351013527  0.173673803114
 CG301      H     1  0.189271432669  0.089736802707
 CG301     HA     1  0.286869387241  0.062058748940
 CG301    HA1     1  0.288651184677  0.088756043175
 CG301    HA2     1  0.288651184677  0.077149148019
 CG301    HA3     1  0.288651184677  0.064818249282
 CG301    HAL     1  0.286869387241  0.062058748940
 CG301   HAL1     1  0.286869387241  0.062058748940
 CG301   HAL2     1  0.288651184677  0.070011711020
 CG301   HAL3     1  0.288651184677  0.064818249282
 CG301     HB     1  0.286869387241  0.062058748940
 CG301    HB1     1  0.286869387241  0.062058748940
 CG301    HB2     1  0.288651184677  0.070011711020
 CG301    HBL     1  0.286869387241  0.062058748940
 CG301     HC     1  0.189271432669  0.089736802707
 CG301   HCA1     1  0.288651184677  0.088756043175
 CG301  HCA1A     1  0.288651184677  0.088756043175
 CG301 HCA1C2     1  0.288651184677  0.088756043175
 CG301   HCA2     1  0.288651184677  0.078275472531
 CG301 HCA25A     1  0.285087589805  0.078275472531
 CG301  HCA2A     1  0.288651184677  0.078275472531
 CG301 HCA2C2     1  0.285087589805  0.078275472531
 CG301   HCA3     1  0.288651184677  0.064818249282
 CG301  HCA3A     1  0.288651184677  0.064818249282
 CG301  HCA3M     1  0.288651184677  0.064818249282
 CG301    HCL     1  0.189271432669  0.089736802707
 CG301   HCP1     1  0.189271432669  0.089736802707
 CG301  HCP1M     1  0.189271432669  0.089736802707
 CG301   HCR1     1  0.240542653898  0.089736802707
 CG301     HE     1  0.301123766731  0.061020452073
 CG301    HE1     1  0.280633096214  0.073666921749
 CG301    HE2     1  0.281523994932  0.067464972838
 CG301   HEL1     1  0.280633096214  0.073666921749
 CG301   HEL2     1  0.281523994932  0.067464972838
 CG301    HF1     1  0.286869387241  0.070011711020
 CG301    HF2     1  0.285087589805  0.072469005789
 CG301   HG2P     1  0.274557166956  0.189623385225
 CG301   HGA1     1  0.288651184677  0.088756043175
 CG301   HGA2     1  0.288651184677  0.078275472531
 CG301   HGA3     1  0.288651184677  0.064818249282
 CG301   HGA4     1  0.280633096214  0.073666921749
 CG301   HGA5     1  0.281523994932  0.067464972838
 CG301   HGA6     1  0.286869387241  0.070011711020
 CG301   HGA7     1  0.285087589805  0.072469005789
 CG301 HGAAM0     1  0.283305792369  0.070011711020
 CG301 HGAAM1     1  0.283305792369  0.070011711020
 CG301 HGAAM2     1  0.281523994932  0.083680000000
 CG301   HGP1     1  0.189271432669  0.089736802707
 CG301   HGP2     1  0.189271432669  0.089736802707
 CG301   HGP3     1  0.209361198763  0.132309697301
 CG301   HGP4     1  0.189271432669  0.089736802707
 CG301   HGP5     1  0.231633666716  0.089736802707
 CG301 HGPAM1     1  0.247224394284  0.039692909190
 CG301 HGPAM2     1  0.247224394284  0.041840000000
 CG301 HGPAM3     1  0.246778944925  0.045833423612
 CG301  HGR51     1  0.290272620344  0.072469005789
 CG301  HGR52     1  0.249451641079  0.089736802707
 CG301  HGR53     1  0.231633666716  0.089736802707
 CG301  HGR61     1  0.290272620344  0.072469005789
 CG301  HGR62     1  0.267269615442  0.089736802707
 CG301  HGR63     1  0.249451641079  0.089736802707
 CG301  HGR71     1  0.290272620344  0.072469005789
 CG301     HL     1  0.231633666716  0.089736802707
 CG301  HLGA1     1  0.288651184677  0.088756043175
 CG301  HLGA2     1  0.288651184677  0.078275472531
 CG301  HLGA3     1  0.288651184677  0.064818249282
 CG301  HLGA4     1  0.280633096214  0.073666921749
 CG301  HLGP1     1  0.189271432669  0.089736802707
 CG301 HLGR52     1  0.249451641079  0.089736802707
 CG301 HLGR61     1  0.290272620344  0.072469005789
 CG301 HLGR62     1  0.267269615442  0.089736802707
 CG301    HN1     1  0.189271432669  0.089736802707
 CG301    HN2     1  0.189271432669  0.089736802707
 CG301    HN3     1  0.267269615442  0.089736802707
 CG301   HN3B     1  0.249451641079  0.089736802707
 CG301    HN4     1  0.189271432669  0.089736802707
 CG301    HN5     1  0.189271432669  0.089736802707
 CG301    HN6     1  0.286869387241  0.062058748940
 CG301    HN7     1  0.286869387241  0.062058748940
 CG301    HN8     1  0.288651184677  0.070011711020
 CG301    HN9     1  0.288651184677  0.064818249282
 CG301   HNE1     1  0.280633096214  0.073666921749
 CG301   HNE2     1  0.281523994932  0.067464972838
 CG301    HNP     1  0.290272620344  0.072469005789
 CG301   HO3P     1  0.293168041178  0.170263611896
 CG301    HOL     1  0.189271432669  0.089736802707
 CG301     HP     1  0.290272620344  0.072469005789
 CG301   HPER     1  0.189271432669  0.089736802707
 CG301    HR1     1  0.249451641079  0.089736802707
 CG301    HR2     1  0.231633666716  0.089736802707
 CG301    HR3     1  0.300054688270  0.036952087465
 CG301   HRA3     1  0.288651184677  0.064818249282
 CG301   HRM1     1  0.247224394284  0.039692909190
 CG301   HRM2     1  0.247224394284  0.041840000000
 CG301   HRP2     1  0.189271432669  0.089736802707
 CG301     HS     1  0.209361198763  0.132309697301
 CG301   HSIA     1  0.286869387241  0.062058748940
 CG301   HSIO     1  0.189271432669  0.089736802707
 CG301     HT     1  0.189271432669  0.089736802707
 CG301     HX     1  0.189271432669  0.089736802707
 CG301   IGR1     1  0.368832069310  0.301712530731
 CG301   IN3P     1  0.246449312399  0.160580590010
 CG301   LA3P     1  0.327200372211  0.182184255566
 CG301    LIT     1  0.284864865125  0.020196198771
 CG301    LPH     1  0.169270756447  0.000000000000
 CG301   LU3P     1  0.289648991242  0.166731218816
 CG301     MG     1  0.274842254546  0.051243325419
 CG301   MN2P     1  0.276508235149  0.171747976291
 CG301   MN3P     1  0.203516903172  0.148045032716
 CG301      N     1  0.334087019303  0.004184000000
 CG301     NC     1  0.334087019303  0.324091246411
 CG301    NC2     1  0.334087019303  0.187114168357
 CG301  NC2D1     1  0.307360057758  0.187114168357
 CG301  NC311     1  0.347450500075  0.088756043175
 CG301   ND3P     1  0.313587439798  0.177117175768
 CG301     NE     1  0.305578260322  0.122698965603
 CG301  NG1T1     1  0.328741626994  0.177512086349
 CG301  NG2D1     1  0.334087019303  0.187114168357
 CG301  NG2O1     1  0.334087019303  0.187114168357
 CG301  NG2P1     1  0.334087019303  0.187114168357
 CG301 NG2R43     1  0.334087019303  0.187114168357
 CG301 NG2R50     1  0.334087019303  0.187114168357
 CG301 NG2R51     1  0.334087019303  0.187114168357
 CG301 NG2R52     1  0.334087019303  0.187114168357
 CG301 NG2R53     1  0.334087019303  0.187114168357
 CG301 NG2R57     1  0.334087019303  0.187114168357
 CG301 NG2R60     1  0.337650614175  0.102486650838
 CG301 NG2R61     1  0.334087019303  0.187114168357
 CG301 NG2R62     1  0.352795892384  0.093557084179
 CG301 NG2R67     1  0.334087019303  0.187114168357
 CG301 NG2RC0     1  0.334087019303  0.187114168357
 CG301  NG2S0     1  0.334087019303  0.004184000000
 CG301  NG2S1     1  0.307360057758  0.187114168357
 CG301  NG2S2     1  0.334087019303  0.187114168357
 CG301  NG2S3     1  0.334087019303  0.187114168357
 CG301  NG301     1  0.347450500075  0.078275472531
 CG301  NG311     1  0.347450500075  0.088756043175
 CG301  NG321     1  0.346559601357  0.102486650838
 CG301  NG331     1  0.345668702638  0.110698234855
 CG301 NG3C51     1  0.334087019303  0.187114168357
 CG301  NG3N1     1  0.351904993665  0.102486650838
 CG301  NG3P0     1  0.334087019303  0.187114168357
 CG301  NG3P1     1  0.334087019303  0.187114168357
 CG301  NG3P2     1  0.334087019303  0.187114168357
 CG301  NG3P3     1  0.334087019303  0.187114168357
 CG301    NH1     1  0.307360057758  0.187114168357
 CG301    NH2     1  0.334087019303  0.187114168357
 CG301    NH3     1  0.334087019303  0.187114168357
 CG301   NH3L     1  0.334087019303  0.187114168357
 CG301    NHL     1  0.307360057758  0.187114168357
 CG301     NI     1  0.282949432881  0.994525446633
 CG301   NI2P     1  0.238787583423  0.158440517242
 CG301    NN1     1  0.334087019303  0.187114168357
 CG301   NN1C     1  0.334087019303  0.187114168357
 CG301    NN2     1  0.334087019303  0.187114168357
 CG301   NN2B     1  0.334087019303  0.187114168357
 CG301   NN2C     1  0.334087019303  0.187114168357
 CG301   NN2G     1  0.334087019303  0.187114168357
 CG301   NN2U     1  0.334087019303  0.187114168357
 CG301    NN3     1  0.334087019303  0.187114168357
 CG301   NN3A     1  0.334087019303  0.187114168357
 CG301   NN3G     1  0.334087019303  0.187114168357
 CG301   NN3I     1  0.334087019303  0.187114168357
 CG301    NN4     1  0.334087019303  0.187114168357
 CG301    NN6     1  0.334087019303  0.187114168357
 CG301    NNG     1  0.334087019303  0.187114168357
 CG301     NP     1  0.334087019303  0.187114168357
 CG301    NPH     1  0.334087019303  0.187114168357
 CG301    NR1     1  0.334087019303  0.187114168357
 CG301    NR2     1  0.334087019303  0.187114168357
 CG301    NR3     1  0.334087019303  0.187114168357
 CG301   NRC4     1  0.334087019303  0.187114168357
 CG301   NRN1     1  0.347450500075  0.280671252536
 CG301   NRN2     1  0.346559601357  0.102486650838
 CG301    NS1     1  0.334087019303  0.187114168357
 CG301    NS2     1  0.334087019303  0.187114168357
 CG301    NTL     1  0.334087019303  0.187114168357
 CG301     NY     1  0.334087019303  0.187114168357
 CG301      O     1  0.293996576986  0.144938011577
 CG301    O2L     1  0.320723538531  0.144938011577
 CG301    OAL     1  0.326959829558  0.163176000000
 CG301     OB     1  0.293996576986  0.144938011577
 CG301    OBL     1  0.293996576986  0.144938011577
 CG301     OC     1  0.320723538531  0.144938011577
 CG301  OC2D1     1  0.293996576986  0.144938011577
 CG301  OC2D2     1  0.320723538531  0.144938011577
 CG301  OC2D3     1  0.293996576986  0.144938011577
 CG301  OC2D4     1  0.293996576986  0.144938011577
 CG301  OC2DP     1  0.320723538531  0.144938011577
 CG301  OC301     1  0.316269044940  0.132309697301
 CG301  OC302     1  0.316269044940  0.132309697301
 CG301  OC303     1  0.316269044940  0.132309697301
 CG301 OC305A     1  0.316269044940  0.132309697301
 CG301  OC30A     1  0.316269044940  0.132309697301
 CG301  OC30P     1  0.326959829558  0.163176000000
 CG301  OC311     1  0.326514380198  0.183381431383
 CG301 OC311M     1  0.326514380198  0.183381431383
 CG301  OC312     1  0.326959829558  0.163176000000
 CG301 OC3C51     1  0.316269044940  0.132309697301
 CG301 OC3C5M     1  0.316269044940  0.132309697301
 CG301 OC3C61     1  0.316269044940  0.132309697301
 CG301    OCA     1  0.293996576986  0.144938011577
 CG301    OCL     1  0.320723538531  0.144938011577
 CG301  OG2D1     1  0.293996576986  0.144938011577
 CG301  OG2D2     1  0.320723538531  0.144938011577
 CG301  OG2D3     1  0.293996576986  0.144938011577
 CG301  OG2D4     1  0.320723538531  0.144938011577
 CG301  OG2D5     1  0.320010819556  0.169954883425
 CG301  OG2N1     1  0.320723538531  0.144938011577
 CG301  OG2P1     1  0.320723538531  0.144938011577
 CG301 OG2R50     1  0.320723538531  0.144938011577
 CG301  OG2S1     1  0.318906105146  0.157831660601
 CG301  OG301     1  0.316269044940  0.132309697301
 CG301  OG302     1  0.316269044940  0.132309697301
 CG301  OG303     1  0.316269044940  0.132309697301
 CG301  OG304     1  0.316269044940  0.132309697301
 CG301  OG311     1  0.326514380198  0.183381431383
 CG301  OG312     1  0.325178032121  0.144938011577
 CG301 OG3C31     1  0.316269044940  0.132309697301
 CG301 OG3C51     1  0.316269044940  0.132309697301
 CG301 OG3C61     1  0.316269044940  0.132309697301
 CG301 OG3R60     1  0.316269044940  0.132309697301
 CG301    OH1     1  0.326959829558  0.163176000000
 CG301    OHL     1  0.326959829558  0.163176000000
 CG301   OLG1     1  0.293996576986  0.144938011577
 CG301   OLG2     1  0.320723538531  0.144938011577
 CG301   OLG3     1  0.320723538531  0.144938011577
 CG301   OLG4     1  0.316269044940  0.132309697301
 CG301   OLG5     1  0.316269044940  0.132309697301
 CG301   OLG6     1  0.326514380198  0.183381431383
 CG301   OLG7     1  0.316269044940  0.132309697301
 CG301   OLG8     1  0.316269044940  0.132309697301
 CG301     OM     1  0.320723538531  0.144938011577
 CG301    ON1     1  0.320723538531  0.144938011577
 CG301   ON1C     1  0.320723538531  0.144938011577
 CG301    ON2     1  0.326959829558  0.163176000000
 CG301   ON2B     1  0.326959829558  0.163176000000
 CG301   ON2M     1  0.316269044940  0.132309697301
 CG301    ON3     1  0.320723538531  0.144938011577
 CG301    ON4     1  0.326959829558  0.163176000000
 CG301    ON5     1  0.326959829558  0.163176000000
 CG301    ON6     1  0.326959829558  0.163176000000
 CG301   ON6B     1  0.326959829558  0.163176000000
 CG301   OPER     1  0.318427692534  0.188901923946
 CG301     OS     1  0.326959829558  0.163176000000
 CG301   OSIA     1  0.326959829558  0.163176000000
 CG301   OSIE     1  0.326959829558  0.163176000000
 CG301   OSIH     1  0.326959829558  0.163176000000
 CG301    OSL     1  0.316269044940  0.132309697301
 CG301   OSLP     1  0.316269044940  0.132309697301
 CG301    OST     1  0.320010819556  0.169954883425
 CG301     OT     1  0.326799467788  0.163176000000
 CG301     OX     1  0.320723538531  0.144938011577
 CG301      P     1  0.360813980847  0.320014464673
 CG301     P2     1  0.360813980847  0.320014464673
 CG301     P3     1  0.360813980847  0.320014464673
 CG301     P4     1  0.360813980847  0.320014464673
 CG301     PB     1  0.328073452955  0.716185437439
 CG301   PB2P     1  0.325890751096  0.204716924713
 CG301     PC     1  0.360813980847  0.320014464673
 CG301     PD     1  0.294842930769  1.037598257516
 CG301   PD2P     1  0.251865976605  0.174628752363
 CG301    PG0     1  0.360813980847  0.320014464673
 CG301    PG1     1  0.360813980847  0.320014464673
 CG301    PG2     1  0.360813980847  0.320014464673
 CG301     PL     1  0.360813980847  0.320014464673
 CG301   PM3P     1  0.316910492017  0.176275053255
 CG301    POT     1  0.326403017859  0.123410269913
 CG301   PR3P     1  0.317079762773  0.178642591472
 CG301     PT     1  0.296001099102  1.168527606863
 CG301   PT2P     1  0.240284293270  0.168973521997
 CG301   PU3P     1  0.318024115415  0.179522368790
 CG301   RA2P     1  0.355459679551  0.229891668540
 CG301   RH3P     1  0.210367914314  0.149983415617
 CG301    RUB     1  0.338541512893  0.162045623205
 CG301      S     1  0.347450500075  0.280671252536
 CG301     SC     1  0.356359487256  0.286840588481
 CG301   SC3P     1  0.266993436839  0.157109060719
 CG301  SEGD1     1  0.363041227642  0.330244580395
 CG301  SG2D1     1  0.351904993665  0.314496560236
 CG301  SG2P1     1  0.355798221064  0.332305491450
 CG301  SG2P2     1  0.352314807076  0.329421919951
 CG301 SG2R50     1  0.347450500075  0.280671252536
 CG301  SG301     1  0.345223253279  0.257919081884
 CG301  SG302     1  0.365268474438  0.286840588481
 CG301  SG311     1  0.347450500075  0.280671252536
 CG301  SG3O1     1  0.356359487256  0.286840588481
 CG301  SG3O2     1  0.347450500075  0.247528778125
 CG301  SG3O3     1  0.347450500075  0.247528778125
 CG301     SI     1  0.365268474438  0.324091246411
 CG301   SIH3     1  0.365268474438  0.324091246411
 CG301     SL     1  0.356359487256  0.286840588481
 CG301     SM     1  0.345223253279  0.257919081884
 CG301   SM2P     1  0.334666103469  0.207012887251
 CG301   SM3P     1  0.308847858618  0.175378986746
 CG301   SN2P     1  0.316981763914  0.181365662197
 CG301    SOD     1  0.294954293108  0.090610410351
 CG301     SP     1  0.365268474438  0.280671252536
 CG301   SR2P     1  0.334612649546  0.200133451797
 CG301     SS     1  0.365268474438  0.286840588481
 CG301   TB3P     1  0.300678317372  0.172155203837
 CG301   TI1P     1  0.341276571958  0.266826378666
 CG301   TI3P     1  0.243117351193  0.149983415617
 CG301   TL3P     1  0.246716582015  0.168869889039
 CG301   TM3P     1  0.289417357575  0.168402751521
 CG301    U3P     1  0.320830446377  0.182184255566
 CG301    V2P     1  0.267599247968  0.167830039933
 CG301    V3P     1  0.223989755715  0.147096016316
 CG301    Y3P     1  0.295190381269  0.170263611896
 CG301   YB2P     1  0.312616360195  0.189623385225
 CG301   YB3P     1  0.284659958420  0.167569069413
 CG301     ZN     1  0.266378716724  0.209200000000
 CG302  CG311     1  0.374177461619  0.059170695450
 CG302  CG314     1  0.374177461619  0.059170695450
 CG302  CG321     1  0.374177461619  0.059170695450
 CG302  CG324     1  0.374177461619  0.059170695450
 CG302  CG331     1  0.374177461619  0.059170695450
 CG302  CG334     1  0.374177461619  0.059170695450
 CG302 CG3C31     1  0.374177461619  0.059170695450
 CG302 CG3C41     1  0.374177461619  0.059170695450
 CG302 CG3C50     1  0.374177461619  0.059170695450
 CG302 CG3C51     1  0.374177461619  0.059170695450
 CG302 CG3C52     1  0.374177461619  0.059170695450
 CG302 CG3C53     1  0.374177461619  0.059170695450
 CG302 CG3C54     1  0.374177461619  0.059170695450
 CG302 CG3RC1     1  0.374177461619  0.059170695450
 CG302  CLG11     1  0.374177461619  0.059170695450
 CG302  CLG12     1  0.374177461619  0.059170695450
 CG302  CLG13     1  0.374177461619  0.059170695450
 CG302  CLG14     1  0.374177461619  0.059170695450
 CG302  CLG15     1  0.374177461619  0.059170695450
 CG302  CLG16     1  0.374177461619  0.059170695450
 CG302    CN6     1  0.374177461619  0.059170695450
 CG302    CN7     1  0.374177461619  0.059170695450
 CG302   CN7B     1  0.374177461619  0.059170695450
 CG302   CN7E     1  0.374177461619  0.059170695450
 CG302    CN8     1  0.374177461619  0.059170695450
 CG302   CN8B     1  0.374177461619  0.059170695450
 CG302    CN9     1  0.374177461619  0.059170695450
 CG302    CP1     1  0.374177461619  0.059170695450
 CG302    CP2     1  0.374177461619  0.059170695450
 CG302    CP3     1  0.374177461619  0.059170695450
 CG302   CPD1     1  0.374177461619  0.059170695450
 CG302   CR33     1  0.374177461619  0.059170695450
 CG302   CRL1     1  0.374177461619  0.059170695450
 CG302   CRL2     1  0.374177461619  0.059170695450
 CG302     CT     1  0.374177461619  0.059170695450
 CG302    CT1     1  0.374177461619  0.059170695450
 CG302   CT1X     1  0.374177461619  0.059170695450
 CG302    CT2     1  0.374177461619  0.059170695450
 CG302   CT2A     1  0.374177461619  0.059170695450
 CG302   CT2P     1  0.374177461619  0.059170695450
 CG302   CT2X     1  0.374177461619  0.059170695450
 CG302    CT3     1  0.374177461619  0.059170695450
 CG302   CT3X     1  0.374177461619  0.059170695450
 CG302   CTD1     1  0.374177461619  0.059170695450
 CG302   CTL1     1  0.374177461619  0.059170695450
 CG302   CTL2     1  0.374177461619  0.059170695450
 CG302   CTL3     1  0.374177461619  0.059170695450
 CG302   CTL5     1  0.374177461619  0.059170695450
 CG302   CTO1     1  0.374177461619  0.059170695450
 CG302   CTO2     1  0.374177461619  0.059170695450
 CG302     HP     1  0.325908569070  0.102486650838
 CG302      N     1  0.369722968028  0.005917069545
 CG302  NC2D1     1  0.342996006484  0.264619394603
 CG302  NG2S0     1  0.369722968028  0.005917069545
 CG302  NG2S1     1  0.342996006484  0.264619394603
 CG302    NH1     1  0.342996006484  0.264619394603
 CG302    NHL     1  0.342996006484  0.264619394603
 CG302      O     1  0.329632525712  0.204973301676
 CG302     OB     1  0.329632525712  0.204973301676
 CG302    OBL     1  0.329632525712  0.204973301676
 CG302  OC2D1     1  0.329632525712  0.204973301676
 CG302  OC2D3     1  0.329632525712  0.204973301676
 CG302  OC2D4     1  0.329632525712  0.204973301676
 CG302    OCA     1  0.329632525712  0.204973301676
 CG302  OG2D1     1  0.329632525712  0.204973301676
 CG302  OG2D3     1  0.329632525712  0.204973301676
 CG302   OLG1     1  0.329632525712  0.204973301676
 CG311  CG311     1  0.338541512893  0.041840000000
 CG311  CG312     1  0.351904993665  0.085746484010
 CG311  CG314     1  0.338541512893  0.041840000000
 CG311  CG321     1  0.338541512893  0.041840000000
 CG311  CG322     1  0.338541512893  0.102486650838
 CG311  CG323     1  0.365268474438  0.138767581228
 CG311  CG324     1  0.338541512893  0.041840000000
 CG311  CG331     1  0.338541512893  0.041840000000
 CG311  CG334     1  0.338541512893  0.041840000000
 CG311 CG3AM0     1  0.344777803920  0.110698234855
 CG311 CG3AM1     1  0.345668702638  0.116852760686
 CG311 CG3AM2     1  0.346559601357  0.118341390899
 CG311 CG3C31     1  0.338541512893  0.041840000000
 CG311 CG3C41     1  0.338541512893  0.041840000000
 CG311 CG3C50     1  0.338541512893  0.041840000000
 CG311 CG3C51     1  0.338541512893  0.041840000000
 CG311 CG3C52     1  0.338541512893  0.041840000000
 CG311 CG3C53     1  0.338541512893  0.041840000000
 CG311 CG3C54     1  0.338541512893  0.041840000000
 CG311 CG3RC1     1  0.338541512893  0.041840000000
 CG311     CL     1  0.347450500075  0.110698234855
 CG311    CLA     1  0.371504765465  0.162045623205
 CG311   CLAL     1  0.339272049842  0.072469005789
 CG311  CLG01     1  0.355468588538  0.109105371453
 CG311  CLG02     1  0.355468588538  0.109105371453
 CG311  CLG03     1  0.320723538531  0.130979917850
 CG311  CLG04     1  0.347450500075  0.110698234855
 CG311  CLG05     1  0.329632525712  0.102486650838
 CG311  CLG06     1  0.346773417049  0.110698234855
 CG311 CLG06A     1  0.346773417049  0.110698234855
 CG311 CLG06B     1  0.346773417049  0.110698234855
 CG311  CLG07     1  0.338541512893  0.125520000000
 CG311  CLG08     1  0.338541512893  0.132309697301
 CG311  CLG09     1  0.346773417049  0.110698234855
 CG311  CLG10     1  0.334977918021  0.131646486622
 CG311  CLG11     1  0.338541512893  0.041840000000
 CG311  CLG12     1  0.338541512893  0.041840000000
 CG311  CLG13     1  0.338541512893  0.041840000000
 CG311  CLG14     1  0.338541512893  0.041840000000
 CG311  CLG15     1  0.338541512893  0.041840000000
 CG311  CLG16     1  0.338541512893  0.041840000000
 CG311  CLGA1     1  0.339432411611  0.245040988571
 CG311  CLGA3     1  0.339432411611  0.232955260941
 CG311  CLGR1     1  0.334977918021  0.200657590935
 CG311     CM     1  0.356359487256  0.138767581228
 CG311     CN     1  0.325178032121  0.187114168357
 CG311    CN1     1  0.338541512893  0.132309697301
 CG311   CN1A     1  0.347450500075  0.110698234855
 CG311   CN1T     1  0.338541512893  0.132309697301
 CG311    CN2     1  0.338541512893  0.132309697301
 CG311    CN3     1  0.338541512893  0.125520000000
 CG311   CN3A     1  0.329632525712  0.177512086349
 CG311   CN3B     1  0.329632525712  0.177512086349
 CG311   CN3C     1  0.329632525712  0.177512086349
 CG311   CN3D     1  0.338541512893  0.125520000000
 CG311   CN3T     1  0.338541512893  0.125520000000
 CG311    CN4     1  0.338541512893  0.114583559030
 CG311    CN5     1  0.338541512893  0.114583559030
 CG311   CN5G     1  0.338541512893  0.114583559030
 CG311    CN6     1  0.338541512893  0.041840000000
 CG311    CN7     1  0.338541512893  0.041840000000
 CG311   CN7B     1  0.338541512893  0.041840000000
 CG311   CN7E     1  0.338541512893  0.041840000000
 CG311    CN8     1  0.338541512893  0.041840000000
 CG311   CN8B     1  0.338541512893  0.041840000000
 CG311    CN9     1  0.338541512893  0.041840000000
 CG311    CNA     1  0.346773417049  0.110698234855
 CG311   CNA2     1  0.338541512893  0.110698234855
 CG311   CNE1     1  0.355468588538  0.109105371453
 CG311   CNE2     1  0.354577689820  0.105847757841
 CG311    CNG     1  0.347450500075  0.138767581228
 CG311   CO2P     1  0.251910521541  0.164138698618
 CG311   CO3P     1  0.192264852362  0.144393471099
 CG311    COA     1  0.347450500075  0.138767581228
 CG311    CP1     1  0.338541512893  0.041840000000
 CG311    CP2     1  0.338541512893  0.041840000000
 CG311    CP3     1  0.338541512893  0.041840000000
 CG311    CPA     1  0.329632525712  0.125520000000
 CG311    CPB     1  0.329632525712  0.125520000000
 CG311   CPD1     1  0.338541512893  0.041840000000
 CG311   CPH1     1  0.329632525712  0.093557084179
 CG311   CPH2     1  0.329632525712  0.093557084179
 CG311    CPM     1  0.329632525712  0.125520000000
 CG311    CPT     1  0.334977918021  0.131646486622
 CG311   CR2P     1  0.263634748672  0.170828164985
 CG311   CR33     1  0.338541512893  0.041840000000
 CG311   CR3P     1  0.244382427373  0.145299904804
 CG311   CRL1     1  0.338541512893  0.041840000000
 CG311   CRL2     1  0.338541512893  0.041840000000
 CG311   CRN1     1  0.347450500075  0.138767581228
 CG311     CS     1  0.365268474438  0.138767581228
 CG311    CST     1  0.308518226092  0.100764063435
 CG311     CT     1  0.338541512893  0.041840000000
 CG311    CT1     1  0.338541512893  0.041840000000
 CG311   CT1X     1  0.338541512893  0.041840000000
 CG311    CT2     1  0.338541512893  0.041840000000
 CG311   CT2A     1  0.338541512893  0.041840000000
 CG311   CT2P     1  0.338541512893  0.041840000000
 CG311   CT2X     1  0.338541512893  0.041840000000
 CG311    CT3     1  0.338541512893  0.041840000000
 CG311   CT3X     1  0.338541512893  0.041840000000
 CG311   CTD1     1  0.338541512893  0.041840000000
 CG311   CTL1     1  0.338541512893  0.041840000000
 CG311   CTL2     1  0.338541512893  0.041840000000
 CG311   CTL3     1  0.338541512893  0.041840000000
 CG311   CTL5     1  0.338541512893  0.041840000000
 CG311   CTO1     1  0.338541512893  0.041840000000
 CG311   CTO2     1  0.338541512893  0.041840000000
 CG311     CU     1  0.285800308779  0.908997471504
 CG311   CU1P     1  0.246066225950  0.180057894334
 CG311   CU2P     1  0.233869822499  0.162315474555
 CG311     CY     1  0.346559601357  0.113045454929
 CG311    DUM     1  0.169270756447  0.000000000000
 CG311   DY3P     1  0.297952167295  0.171135318061
 CG311   ER3P     1  0.291083338178  0.169232326746
 CG311   EU2P     1  0.333231756533  0.203602227414
 CG311   EU3P     1  0.304954631219  0.174528477447
 CG311     F1     1  0.314487247504  0.153729976257
 CG311     F2     1  0.314487247504  0.135577095411
 CG311     F3     1  0.311814551349  0.130309939452
 CG311     FA     1  0.320723538531  0.144938011577
 CG311     FE     1  0.227179173126  0.000000000000
 CG311   FE2P     1  0.265496726993  0.167098295383
 CG311   FE3P     1  0.219722350855  0.148045032716
 CG311   FGA1     1  0.314487247504  0.153729976257
 CG311   FGA2     1  0.314487247504  0.135577095411
 CG311   FGA3     1  0.311814551349  0.130309939452
 CG311   FGP1     1  0.311814551349  0.130309939452
 CG311   FGR1     1  0.320723538531  0.144938011577
 CG311    FNA     1  0.320723538531  0.144938011577
 CG311   GA3P     1  0.189485248361  0.145299904804
 CG311   GD3P     1  0.303351013527  0.173673803114
 CG311      H     1  0.189271432669  0.089736802707
 CG311     HA     1  0.286869387241  0.062058748940
 CG311    HA1     1  0.288651184677  0.088756043175
 CG311    HA2     1  0.288651184677  0.077149148019
 CG311    HA3     1  0.288651184677  0.064818249282
 CG311    HAL     1  0.286869387241  0.062058748940
 CG311   HAL1     1  0.286869387241  0.062058748940
 CG311   HAL2     1  0.288651184677  0.070011711020
 CG311   HAL3     1  0.288651184677  0.064818249282
 CG311     HB     1  0.286869387241  0.062058748940
 CG311    HB1     1  0.286869387241  0.062058748940
 CG311    HB2     1  0.288651184677  0.070011711020
 CG311    HBL     1  0.286869387241  0.062058748940
 CG311     HC     1  0.189271432669  0.089736802707
 CG311   HCA1     1  0.288651184677  0.088756043175
 CG311  HCA1A     1  0.288651184677  0.088756043175
 CG311 HCA1C2     1  0.288651184677  0.088756043175
 CG311   HCA2     1  0.288651184677  0.078275472531
 CG311 HCA25A     1  0.285087589805  0.078275472531
 CG311  HCA2A     1  0.288651184677  0.078275472531
 CG311 HCA2C2     1  0.285087589805  0.078275472531
 CG311   HCA3     1  0.288651184677  0.064818249282
 CG311  HCA3A     1  0.288651184677  0.064818249282
 CG311  HCA3M     1  0.288651184677  0.064818249282
 CG311    HCL     1  0.189271432669  0.089736802707
 CG311   HCP1     1  0.189271432669  0.089736802707
 CG311  HCP1M     1  0.189271432669  0.089736802707
 CG311   HCR1     1  0.240542653898  0.089736802707
 CG311     HE     1  0.301123766731  0.061020452073
 CG311    HE1     1  0.280633096214  0.073666921749
 CG311    HE2     1  0.281523994932  0.067464972838
 CG311   HEL1     1  0.280633096214  0.073666921749
 CG311   HEL2     1  0.281523994932  0.067464972838
 CG311    HF1     1  0.286869387241  0.070011711020
 CG311    HF2     1  0.285087589805  0.072469005789
 CG311   HG2P     1  0.274557166956  0.189623385225
 CG311   HGA1     1  0.288651184677  0.088756043175
 CG311   HGA2     1  0.288651184677  0.078275472531
 CG311   HGA3     1  0.288651184677  0.064818249282
 CG311   HGA4     1  0.280633096214  0.073666921749
 CG311   HGA5     1  0.281523994932  0.067464972838
 CG311   HGA6     1  0.286869387241  0.070011711020
 CG311   HGA7     1  0.285087589805  0.072469005789
 CG311 HGAAM0     1  0.283305792369  0.070011711020
 CG311 HGAAM1     1  0.283305792369  0.070011711020
 CG311 HGAAM2     1  0.281523994932  0.083680000000
 CG311   HGP1     1  0.189271432669  0.089736802707
 CG311   HGP2     1  0.189271432669  0.089736802707
 CG311   HGP3     1  0.209361198763  0.132309697301
 CG311   HGP4     1  0.189271432669  0.089736802707
 CG311   HGP5     1  0.231633666716  0.089736802707
 CG311 HGPAM1     1  0.247224394284  0.039692909190
 CG311 HGPAM2     1  0.247224394284  0.041840000000
 CG311 HGPAM3     1  0.246778944925  0.045833423612
 CG311  HGR51     1  0.290272620344  0.072469005789
 CG311  HGR52     1  0.249451641079  0.089736802707
 CG311  HGR53     1  0.231633666716  0.089736802707
 CG311  HGR61     1  0.290272620344  0.072469005789
 CG311  HGR62     1  0.267269615442  0.089736802707
 CG311  HGR63     1  0.249451641079  0.089736802707
 CG311  HGR71     1  0.290272620344  0.072469005789
 CG311     HL     1  0.231633666716  0.089736802707
 CG311  HLGA1     1  0.288651184677  0.088756043175
 CG311  HLGA2     1  0.288651184677  0.078275472531
 CG311  HLGA3     1  0.288651184677  0.064818249282
 CG311  HLGA4     1  0.280633096214  0.073666921749
 CG311  HLGP1     1  0.189271432669  0.089736802707
 CG311 HLGR52     1  0.249451641079  0.089736802707
 CG311 HLGR61     1  0.290272620344  0.072469005789
 CG311 HLGR62     1  0.267269615442  0.089736802707
 CG311    HN1     1  0.189271432669  0.089736802707
 CG311    HN2     1  0.189271432669  0.089736802707
 CG311    HN3     1  0.267269615442  0.089736802707
 CG311   HN3B     1  0.249451641079  0.089736802707
 CG311    HN4     1  0.189271432669  0.089736802707
 CG311    HN5     1  0.189271432669  0.089736802707
 CG311    HN6     1  0.286869387241  0.062058748940
 CG311    HN7     1  0.286869387241  0.062058748940
 CG311    HN8     1  0.288651184677  0.070011711020
 CG311    HN9     1  0.288651184677  0.064818249282
 CG311   HNE1     1  0.280633096214  0.073666921749
 CG311   HNE2     1  0.281523994932  0.067464972838
 CG311    HNP     1  0.290272620344  0.072469005789
 CG311   HO3P     1  0.293168041178  0.170263611896
 CG311    HOL     1  0.189271432669  0.089736802707
 CG311     HP     1  0.290272620344  0.072469005789
 CG311   HPER     1  0.189271432669  0.089736802707
 CG311    HR1     1  0.249451641079  0.089736802707
 CG311    HR2     1  0.231633666716  0.089736802707
 CG311    HR3     1  0.300054688270  0.036952087465
 CG311   HRA3     1  0.288651184677  0.064818249282
 CG311   HRM1     1  0.247224394284  0.039692909190
 CG311   HRM2     1  0.247224394284  0.041840000000
 CG311   HRP2     1  0.189271432669  0.089736802707
 CG311     HS     1  0.209361198763  0.132309697301
 CG311   HSIA     1  0.286869387241  0.062058748940
 CG311   HSIO     1  0.189271432669  0.089736802707
 CG311     HT     1  0.189271432669  0.089736802707
 CG311     HX     1  0.189271432669  0.089736802707
 CG311   IGR1     1  0.368832069310  0.301712530731
 CG311   IN3P     1  0.246449312399  0.160580590010
 CG311   LA3P     1  0.327200372211  0.182184255566
 CG311    LIT     1  0.284864865125  0.020196198771
 CG311    LPH     1  0.169270756447  0.000000000000
 CG311   LU3P     1  0.289648991242  0.166731218816
 CG311     MG     1  0.274842254546  0.051243325419
 CG311   MN2P     1  0.276508235149  0.171747976291
 CG311   MN3P     1  0.203516903172  0.148045032716
 CG311      N     1  0.334087019303  0.004184000000
 CG311     NC     1  0.334087019303  0.324091246411
 CG311    NC2     1  0.334087019303  0.187114168357
 CG311  NC2D1     1  0.307360057758  0.187114168357
 CG311  NC311     1  0.347450500075  0.088756043175
 CG311   ND3P     1  0.313587439798  0.177117175768
 CG311     NE     1  0.305578260322  0.122698965603
 CG311  NG1T1     1  0.328741626994  0.177512086349
 CG311  NG2D1     1  0.334087019303  0.187114168357
 CG311  NG2O1     1  0.334087019303  0.187114168357
 CG311  NG2P1     1  0.334087019303  0.187114168357
 CG311 NG2R43     1  0.334087019303  0.187114168357
 CG311 NG2R50     1  0.334087019303  0.187114168357
 CG311 NG2R51     1  0.334087019303  0.187114168357
 CG311 NG2R52     1  0.334087019303  0.187114168357
 CG311 NG2R53     1  0.334087019303  0.187114168357
 CG311 NG2R57     1  0.334087019303  0.187114168357
 CG311 NG2R60     1  0.337650614175  0.102486650838
 CG311 NG2R61     1  0.334087019303  0.187114168357
 CG311 NG2R62     1  0.352795892384  0.093557084179
 CG311 NG2R67     1  0.334087019303  0.187114168357
 CG311 NG2RC0     1  0.334087019303  0.187114168357
 CG311  NG2S0     1  0.334087019303  0.004184000000
 CG311  NG2S1     1  0.307360057758  0.187114168357
 CG311  NG2S2     1  0.334087019303  0.187114168357
 CG311  NG2S3     1  0.334087019303  0.187114168357
 CG311  NG301     1  0.347450500075  0.078275472531
 CG311  NG311     1  0.347450500075  0.088756043175
 CG311  NG321     1  0.346559601357  0.102486650838
 CG311  NG331     1  0.345668702638  0.110698234855
 CG311 NG3C51     1  0.334087019303  0.187114168357
 CG311  NG3N1     1  0.351904993665  0.102486650838
 CG311  NG3P0     1  0.334087019303  0.187114168357
 CG311  NG3P1     1  0.334087019303  0.187114168357
 CG311  NG3P2     1  0.334087019303  0.187114168357
 CG311  NG3P3     1  0.334087019303  0.187114168357
 CG311    NH1     1  0.307360057758  0.187114168357
 CG311    NH2     1  0.334087019303  0.187114168357
 CG311    NH3     1  0.334087019303  0.187114168357
 CG311   NH3L     1  0.334087019303  0.187114168357
 CG311    NHL     1  0.307360057758  0.187114168357
 CG311     NI     1  0.282949432881  0.994525446633
 CG311   NI2P     1  0.238787583423  0.158440517242
 CG311    NN1     1  0.334087019303  0.187114168357
 CG311   NN1C     1  0.334087019303  0.187114168357
 CG311    NN2     1  0.334087019303  0.187114168357
 CG311   NN2B     1  0.334087019303  0.187114168357
 CG311   NN2C     1  0.334087019303  0.187114168357
 CG311   NN2G     1  0.334087019303  0.187114168357
 CG311   NN2U     1  0.334087019303  0.187114168357
 CG311    NN3     1  0.334087019303  0.187114168357
 CG311   NN3A     1  0.334087019303  0.187114168357
 CG311   NN3G     1  0.334087019303  0.187114168357
 CG311   NN3I     1  0.334087019303  0.187114168357
 CG311    NN4     1  0.334087019303  0.187114168357
 CG311    NN6     1  0.334087019303  0.187114168357
 CG311    NNG     1  0.334087019303  0.187114168357
 CG311     NP     1  0.334087019303  0.187114168357
 CG311    NPH     1  0.334087019303  0.187114168357
 CG311    NR1     1  0.334087019303  0.187114168357
 CG311    NR2     1  0.334087019303  0.187114168357
 CG311    NR3     1  0.334087019303  0.187114168357
 CG311   NRC4     1  0.334087019303  0.187114168357
 CG311   NRN1     1  0.347450500075  0.280671252536
 CG311   NRN2     1  0.346559601357  0.102486650838
 CG311    NS1     1  0.334087019303  0.187114168357
 CG311    NS2     1  0.334087019303  0.187114168357
 CG311    NTL     1  0.334087019303  0.187114168357
 CG311     NY     1  0.334087019303  0.187114168357
 CG311      O     1  0.293996576986  0.144938011577
 CG311    O2L     1  0.320723538531  0.144938011577
 CG311    OAL     1  0.326959829558  0.163176000000
 CG311     OB     1  0.293996576986  0.144938011577
 CG311    OBL     1  0.293996576986  0.144938011577
 CG311     OC     1  0.320723538531  0.144938011577
 CG311  OC2D1     1  0.293996576986  0.144938011577
 CG311  OC2D2     1  0.320723538531  0.144938011577
 CG311  OC2D3     1  0.293996576986  0.144938011577
 CG311  OC2D4     1  0.293996576986  0.144938011577
 CG311  OC2DP     1  0.320723538531  0.144938011577
 CG311  OC301     1  0.316269044940  0.132309697301
 CG311  OC302     1  0.316269044940  0.132309697301
 CG311  OC303     1  0.316269044940  0.132309697301
 CG311 OC305A     1  0.316269044940  0.132309697301
 CG311  OC30A     1  0.316269044940  0.132309697301
 CG311  OC30P     1  0.326959829558  0.163176000000
 CG311  OC311     1  0.326514380198  0.183381431383
 CG311 OC311M     1  0.326514380198  0.183381431383
 CG311  OC312     1  0.326959829558  0.163176000000
 CG311 OC3C51     1  0.316269044940  0.132309697301
 CG311 OC3C5M     1  0.316269044940  0.132309697301
 CG311 OC3C61     1  0.316269044940  0.132309697301
 CG311    OCA     1  0.293996576986  0.144938011577
 CG311    OCL     1  0.320723538531  0.144938011577
 CG311  OG2D1     1  0.293996576986  0.144938011577
 CG311  OG2D2     1  0.320723538531  0.144938011577
 CG311  OG2D3     1  0.293996576986  0.144938011577
 CG311  OG2D4     1  0.320723538531  0.144938011577
 CG311  OG2D5     1  0.320010819556  0.169954883425
 CG311  OG2N1     1  0.320723538531  0.144938011577
 CG311  OG2P1     1  0.320723538531  0.144938011577
 CG311 OG2R50     1  0.320723538531  0.144938011577
 CG311  OG2S1     1  0.318906105146  0.157831660601
 CG311  OG301     1  0.316269044940  0.132309697301
 CG311  OG302     1  0.316269044940  0.132309697301
 CG311  OG303     1  0.316269044940  0.132309697301
 CG311  OG304     1  0.316269044940  0.132309697301
 CG311  OG311     1  0.326514380198  0.183381431383
 CG311  OG312     1  0.325178032121  0.144938011577
 CG311 OG3C31     1  0.316269044940  0.132309697301
 CG311 OG3C51     1  0.316269044940  0.132309697301
 CG311 OG3C61     1  0.316269044940  0.132309697301
 CG311 OG3R60     1  0.316269044940  0.132309697301
 CG311    OH1     1  0.326959829558  0.163176000000
 CG311    OHL     1  0.326959829558  0.163176000000
 CG311   OLG1     1  0.293996576986  0.144938011577
 CG311   OLG2     1  0.320723538531  0.144938011577
 CG311   OLG3     1  0.320723538531  0.144938011577
 CG311   OLG4     1  0.316269044940  0.132309697301
 CG311   OLG5     1  0.316269044940  0.132309697301
 CG311   OLG6     1  0.326514380198  0.183381431383
 CG311   OLG7     1  0.316269044940  0.132309697301
 CG311   OLG8     1  0.316269044940  0.132309697301
 CG311     OM     1  0.320723538531  0.144938011577
 CG311    ON1     1  0.320723538531  0.144938011577
 CG311   ON1C     1  0.320723538531  0.144938011577
 CG311    ON2     1  0.326959829558  0.163176000000
 CG311   ON2B     1  0.326959829558  0.163176000000
 CG311   ON2M     1  0.316269044940  0.132309697301
 CG311    ON3     1  0.320723538531  0.144938011577
 CG311    ON4     1  0.326959829558  0.163176000000
 CG311    ON5     1  0.326959829558  0.163176000000
 CG311    ON6     1  0.326959829558  0.163176000000
 CG311   ON6B     1  0.326959829558  0.163176000000
 CG311   OPER     1  0.318427692534  0.188901923946
 CG311     OS     1  0.326959829558  0.163176000000
 CG311   OSIA     1  0.326959829558  0.163176000000
 CG311   OSIE     1  0.326959829558  0.163176000000
 CG311   OSIH     1  0.326959829558  0.163176000000
 CG311    OSL     1  0.316269044940  0.132309697301
 CG311   OSLP     1  0.316269044940  0.132309697301
 CG311    OST     1  0.320010819556  0.169954883425
 CG311     OT     1  0.326799467788  0.163176000000
 CG311     OX     1  0.320723538531  0.144938011577
 CG311      P     1  0.360813980847  0.320014464673
 CG311     P2     1  0.360813980847  0.320014464673
 CG311     P3     1  0.360813980847  0.320014464673
 CG311     P4     1  0.360813980847  0.320014464673
 CG311     PB     1  0.328073452955  0.716185437439
 CG311   PB2P     1  0.325890751096  0.204716924713
 CG311     PC     1  0.360813980847  0.320014464673
 CG311     PD     1  0.294842930769  1.037598257516
 CG311   PD2P     1  0.251865976605  0.174628752363
 CG311    PG0     1  0.360813980847  0.320014464673
 CG311    PG1     1  0.360813980847  0.320014464673
 CG311    PG2     1  0.360813980847  0.320014464673
 CG311     PL     1  0.360813980847  0.320014464673
 CG311   PM3P     1  0.316910492017  0.176275053255
 CG311    POT     1  0.326403017859  0.123410269913
 CG311   PR3P     1  0.317079762773  0.178642591472
 CG311     PT     1  0.296001099102  1.168527606863
 CG311   PT2P     1  0.240284293270  0.168973521997
 CG311   PU3P     1  0.318024115415  0.179522368790
 CG311   RA2P     1  0.355459679551  0.229891668540
 CG311   RH3P     1  0.210367914314  0.149983415617
 CG311    RUB     1  0.338541512893  0.162045623205
 CG311      S     1  0.347450500075  0.280671252536
 CG311     SC     1  0.356359487256  0.286840588481
 CG311   SC3P     1  0.266993436839  0.157109060719
 CG311  SEGD1     1  0.363041227642  0.330244580395
 CG311  SG2D1     1  0.351904993665  0.314496560236
 CG311  SG2P1     1  0.355798221064  0.332305491450
 CG311  SG2P2     1  0.352314807076  0.329421919951
 CG311 SG2R50     1  0.347450500075  0.280671252536
 CG311  SG301     1  0.345223253279  0.257919081884
 CG311  SG302     1  0.365268474438  0.286840588481
 CG311  SG311     1  0.347450500075  0.280671252536
 CG311  SG3O1     1  0.356359487256  0.286840588481
 CG311  SG3O2     1  0.347450500075  0.247528778125
 CG311  SG3O3     1  0.347450500075  0.247528778125
 CG311     SI     1  0.365268474438  0.324091246411
 CG311   SIH3     1  0.365268474438  0.324091246411
 CG311     SL     1  0.356359487256  0.286840588481
 CG311     SM     1  0.345223253279  0.257919081884
 CG311   SM2P     1  0.334666103469  0.207012887251
 CG311   SM3P     1  0.308847858618  0.175378986746
 CG311   SN2P     1  0.316981763914  0.181365662197
 CG311    SOD     1  0.294954293108  0.090610410351
 CG311     SP     1  0.365268474438  0.280671252536
 CG311   SR2P     1  0.334612649546  0.200133451797
 CG311     SS     1  0.365268474438  0.286840588481
 CG311   TB3P     1  0.300678317372  0.172155203837
 CG311   TI1P     1  0.341276571958  0.266826378666
 CG311   TI3P     1  0.243117351193  0.149983415617
 CG311   TL3P     1  0.246716582015  0.168869889039
 CG311   TM3P     1  0.289417357575  0.168402751521
 CG311    U3P     1  0.320830446377  0.182184255566
 CG311    V2P     1  0.267599247968  0.167830039933
 CG311    V3P     1  0.223989755715  0.147096016316
 CG311    Y3P     1  0.295190381269  0.170263611896
 CG311   YB2P     1  0.312616360195  0.189623385225
 CG311   YB3P     1  0.284659958420  0.167569069413
 CG311     ZN     1  0.266378716724  0.209200000000
 CG312  CG314     1  0.351904993665  0.085746484010
 CG312  CG321     1  0.351904993665  0.085746484010
 CG312  CG324     1  0.351904993665  0.085746484010
 CG312  CG331     1  0.351904993665  0.085746484010
 CG312  CG334     1  0.351904993665  0.085746484010
 CG312 CG3C31     1  0.351904993665  0.085746484010
 CG312 CG3C41     1  0.351904993665  0.085746484010
 CG312 CG3C50     1  0.351904993665  0.085746484010
 CG312 CG3C51     1  0.351904993665  0.085746484010
 CG312 CG3C52     1  0.351904993665  0.085746484010
 CG312 CG3C53     1  0.351904993665  0.085746484010
 CG312 CG3C54     1  0.351904993665  0.085746484010
 CG312 CG3RC1     1  0.351904993665  0.085746484010
 CG312  CLG11     1  0.351904993665  0.085746484010
 CG312  CLG12     1  0.351904993665  0.085746484010
 CG312  CLG13     1  0.351904993665  0.085746484010
 CG312  CLG14     1  0.351904993665  0.085746484010
 CG312  CLG15     1  0.351904993665  0.085746484010
 CG312  CLG16     1  0.351904993665  0.085746484010
 CG312    CN6     1  0.351904993665  0.085746484010
 CG312    CN7     1  0.351904993665  0.085746484010
 CG312   CN7B     1  0.351904993665  0.085746484010
 CG312   CN7E     1  0.351904993665  0.085746484010
 CG312    CN8     1  0.351904993665  0.085746484010
 CG312   CN8B     1  0.351904993665  0.085746484010
 CG312    CN9     1  0.351904993665  0.085746484010
 CG312    CP1     1  0.351904993665  0.085746484010
 CG312    CP2     1  0.351904993665  0.085746484010
 CG312    CP3     1  0.351904993665  0.085746484010
 CG312   CPD1     1  0.351904993665  0.085746484010
 CG312   CR33     1  0.351904993665  0.085746484010
 CG312   CRL1     1  0.351904993665  0.085746484010
 CG312   CRL2     1  0.351904993665  0.085746484010
 CG312     CT     1  0.351904993665  0.085746484010
 CG312    CT1     1  0.351904993665  0.085746484010
 CG312   CT1X     1  0.351904993665  0.085746484010
 CG312    CT2     1  0.351904993665  0.085746484010
 CG312   CT2A     1  0.351904993665  0.085746484010
 CG312   CT2P     1  0.351904993665  0.085746484010
 CG312   CT2X     1  0.351904993665  0.085746484010
 CG312    CT3     1  0.351904993665  0.085746484010
 CG312   CT3X     1  0.351904993665  0.085746484010
 CG312   CTD1     1  0.351904993665  0.085746484010
 CG312   CTL1     1  0.351904993665  0.085746484010
 CG312   CTL2     1  0.351904993665  0.085746484010
 CG312   CTL3     1  0.351904993665  0.085746484010
 CG312   CTL5     1  0.351904993665  0.085746484010
 CG312   CTO1     1  0.351904993665  0.085746484010
 CG312   CTO2     1  0.351904993665  0.085746484010
 CG312     HP     1  0.303636101117  0.148517266875
 CG312      N     1  0.347450500075  0.008574648401
 CG312  NC2D1     1  0.320723538531  0.383469934154
 CG312  NG2S0     1  0.347450500075  0.008574648401
 CG312  NG2S1     1  0.320723538531  0.383469934154
 CG312    NH1     1  0.320723538531  0.383469934154
 CG312    NHL     1  0.320723538531  0.383469934154
 CG312      O     1  0.307360057758  0.297034533750
 CG312     OB     1  0.307360057758  0.297034533750
 CG312    OBL     1  0.307360057758  0.297034533750
 CG312  OC2D1     1  0.307360057758  0.297034533750
 CG312  OC2D3     1  0.307360057758  0.297034533750
 CG312  OC2D4     1  0.307360057758  0.297034533750
 CG312    OCA     1  0.307360057758  0.297034533750
 CG312  OG2D1     1  0.307360057758  0.297034533750
 CG312  OG2D3     1  0.307360057758  0.297034533750
 CG312   OLG1     1  0.307360057758  0.297034533750
 CG314  CG314     1  0.338541512893  0.041840000000
 CG314  CG321     1  0.338541512893  0.041840000000
 CG314  CG322     1  0.338541512893  0.102486650838
 CG314  CG323     1  0.365268474438  0.138767581228
 CG314  CG324     1  0.338541512893  0.041840000000
 CG314  CG331     1  0.338541512893  0.041840000000
 CG314  CG334     1  0.338541512893  0.041840000000
 CG314 CG3AM0     1  0.344777803920  0.110698234855
 CG314 CG3AM1     1  0.345668702638  0.116852760686
 CG314 CG3AM2     1  0.346559601357  0.118341390899
 CG314 CG3C31     1  0.338541512893  0.041840000000
 CG314 CG3C41     1  0.338541512893  0.041840000000
 CG314 CG3C50     1  0.338541512893  0.041840000000
 CG314 CG3C51     1  0.338541512893  0.041840000000
 CG314 CG3C52     1  0.338541512893  0.041840000000
 CG314 CG3C53     1  0.338541512893  0.041840000000
 CG314 CG3C54     1  0.338541512893  0.041840000000
 CG314 CG3RC1     1  0.338541512893  0.041840000000
 CG314     CL     1  0.347450500075  0.110698234855
 CG314    CLA     1  0.371504765465  0.162045623205
 CG314   CLAL     1  0.339272049842  0.072469005789
 CG314  CLG01     1  0.355468588538  0.109105371453
 CG314  CLG02     1  0.355468588538  0.109105371453
 CG314  CLG03     1  0.320723538531  0.130979917850
 CG314  CLG04     1  0.347450500075  0.110698234855
 CG314  CLG05     1  0.329632525712  0.102486650838
 CG314  CLG06     1  0.346773417049  0.110698234855
 CG314 CLG06A     1  0.346773417049  0.110698234855
 CG314 CLG06B     1  0.346773417049  0.110698234855
 CG314  CLG07     1  0.338541512893  0.125520000000
 CG314  CLG08     1  0.338541512893  0.132309697301
 CG314  CLG09     1  0.346773417049  0.110698234855
 CG314  CLG10     1  0.334977918021  0.131646486622
 CG314  CLG11     1  0.338541512893  0.041840000000
 CG314  CLG12     1  0.338541512893  0.041840000000
 CG314  CLG13     1  0.338541512893  0.041840000000
 CG314  CLG14     1  0.338541512893  0.041840000000
 CG314  CLG15     1  0.338541512893  0.041840000000
 CG314  CLG16     1  0.338541512893  0.041840000000
 CG314  CLGA1     1  0.339432411611  0.245040988571
 CG314  CLGA3     1  0.339432411611  0.232955260941
 CG314  CLGR1     1  0.334977918021  0.200657590935
 CG314     CM     1  0.356359487256  0.138767581228
 CG314     CN     1  0.325178032121  0.187114168357
 CG314    CN1     1  0.338541512893  0.132309697301
 CG314   CN1A     1  0.347450500075  0.110698234855
 CG314   CN1T     1  0.338541512893  0.132309697301
 CG314    CN2     1  0.338541512893  0.132309697301
 CG314    CN3     1  0.338541512893  0.125520000000
 CG314   CN3A     1  0.329632525712  0.177512086349
 CG314   CN3B     1  0.329632525712  0.177512086349
 CG314   CN3C     1  0.329632525712  0.177512086349
 CG314   CN3D     1  0.338541512893  0.125520000000
 CG314   CN3T     1  0.338541512893  0.125520000000
 CG314    CN4     1  0.338541512893  0.114583559030
 CG314    CN5     1  0.338541512893  0.114583559030
 CG314   CN5G     1  0.338541512893  0.114583559030
 CG314    CN6     1  0.338541512893  0.041840000000
 CG314    CN7     1  0.338541512893  0.041840000000
 CG314   CN7B     1  0.338541512893  0.041840000000
 CG314   CN7E     1  0.338541512893  0.041840000000
 CG314    CN8     1  0.338541512893  0.041840000000
 CG314   CN8B     1  0.338541512893  0.041840000000
 CG314    CN9     1  0.338541512893  0.041840000000
 CG314    CNA     1  0.346773417049  0.110698234855
 CG314   CNA2     1  0.338541512893  0.110698234855
 CG314   CNE1     1  0.355468588538  0.109105371453
 CG314   CNE2     1  0.354577689820  0.105847757841
 CG314    CNG     1  0.347450500075  0.138767581228
 CG314   CO2P     1  0.251910521541  0.164138698618
 CG314   CO3P     1  0.192264852362  0.144393471099
 CG314    COA     1  0.347450500075  0.138767581228
 CG314    CP1     1  0.338541512893  0.041840000000
 CG314    CP2     1  0.338541512893  0.041840000000
 CG314    CP3     1  0.338541512893  0.041840000000
 CG314    CPA     1  0.329632525712  0.125520000000
 CG314    CPB     1  0.329632525712  0.125520000000
 CG314   CPD1     1  0.338541512893  0.041840000000
 CG314   CPH1     1  0.329632525712  0.093557084179
 CG314   CPH2     1  0.329632525712  0.093557084179
 CG314    CPM     1  0.329632525712  0.125520000000
 CG314    CPT     1  0.334977918021  0.131646486622
 CG314   CR2P     1  0.263634748672  0.170828164985
 CG314   CR33     1  0.338541512893  0.041840000000
 CG314   CR3P     1  0.244382427373  0.145299904804
 CG314   CRL1     1  0.338541512893  0.041840000000
 CG314   CRL2     1  0.338541512893  0.041840000000
 CG314   CRN1     1  0.347450500075  0.138767581228
 CG314     CS     1  0.365268474438  0.138767581228
 CG314    CST     1  0.308518226092  0.100764063435
 CG314     CT     1  0.338541512893  0.041840000000
 CG314    CT1     1  0.338541512893  0.041840000000
 CG314   CT1X     1  0.338541512893  0.041840000000
 CG314    CT2     1  0.338541512893  0.041840000000
 CG314   CT2A     1  0.338541512893  0.041840000000
 CG314   CT2P     1  0.338541512893  0.041840000000
 CG314   CT2X     1  0.338541512893  0.041840000000
 CG314    CT3     1  0.338541512893  0.041840000000
 CG314   CT3X     1  0.338541512893  0.041840000000
 CG314   CTD1     1  0.338541512893  0.041840000000
 CG314   CTL1     1  0.338541512893  0.041840000000
 CG314   CTL2     1  0.338541512893  0.041840000000
 CG314   CTL3     1  0.338541512893  0.041840000000
 CG314   CTL5     1  0.338541512893  0.041840000000
 CG314   CTO1     1  0.338541512893  0.041840000000
 CG314   CTO2     1  0.338541512893  0.041840000000
 CG314     CU     1  0.285800308779  0.908997471504
 CG314   CU1P     1  0.246066225950  0.180057894334
 CG314   CU2P     1  0.233869822499  0.162315474555
 CG314     CY     1  0.346559601357  0.113045454929
 CG314    DUM     1  0.169270756447  0.000000000000
 CG314   DY3P     1  0.297952167295  0.171135318061
 CG314   ER3P     1  0.291083338178  0.169232326746
 CG314   EU2P     1  0.333231756533  0.203602227414
 CG314   EU3P     1  0.304954631219  0.174528477447
 CG314     F1     1  0.314487247504  0.153729976257
 CG314     F2     1  0.314487247504  0.135577095411
 CG314     F3     1  0.311814551349  0.130309939452
 CG314     FA     1  0.320723538531  0.144938011577
 CG314     FE     1  0.227179173126  0.000000000000
 CG314   FE2P     1  0.265496726993  0.167098295383
 CG314   FE3P     1  0.219722350855  0.148045032716
 CG314   FGA1     1  0.314487247504  0.153729976257
 CG314   FGA2     1  0.314487247504  0.135577095411
 CG314   FGA3     1  0.311814551349  0.130309939452
 CG314   FGP1     1  0.311814551349  0.130309939452
 CG314   FGR1     1  0.320723538531  0.144938011577
 CG314    FNA     1  0.320723538531  0.144938011577
 CG314   GA3P     1  0.189485248361  0.145299904804
 CG314   GD3P     1  0.303351013527  0.173673803114
 CG314      H     1  0.189271432669  0.089736802707
 CG314     HA     1  0.286869387241  0.062058748940
 CG314    HA1     1  0.288651184677  0.088756043175
 CG314    HA2     1  0.288651184677  0.077149148019
 CG314    HA3     1  0.288651184677  0.064818249282
 CG314    HAL     1  0.286869387241  0.062058748940
 CG314   HAL1     1  0.286869387241  0.062058748940
 CG314   HAL2     1  0.288651184677  0.070011711020
 CG314   HAL3     1  0.288651184677  0.064818249282
 CG314     HB     1  0.286869387241  0.062058748940
 CG314    HB1     1  0.286869387241  0.062058748940
 CG314    HB2     1  0.288651184677  0.070011711020
 CG314    HBL     1  0.286869387241  0.062058748940
 CG314     HC     1  0.189271432669  0.089736802707
 CG314   HCA1     1  0.288651184677  0.088756043175
 CG314  HCA1A     1  0.288651184677  0.088756043175
 CG314 HCA1C2     1  0.288651184677  0.088756043175
 CG314   HCA2     1  0.288651184677  0.078275472531
 CG314 HCA25A     1  0.285087589805  0.078275472531
 CG314  HCA2A     1  0.288651184677  0.078275472531
 CG314 HCA2C2     1  0.285087589805  0.078275472531
 CG314   HCA3     1  0.288651184677  0.064818249282
 CG314  HCA3A     1  0.288651184677  0.064818249282
 CG314  HCA3M     1  0.288651184677  0.064818249282
 CG314    HCL     1  0.189271432669  0.089736802707
 CG314   HCP1     1  0.189271432669  0.089736802707
 CG314  HCP1M     1  0.189271432669  0.089736802707
 CG314   HCR1     1  0.240542653898  0.089736802707
 CG314     HE     1  0.301123766731  0.061020452073
 CG314    HE1     1  0.280633096214  0.073666921749
 CG314    HE2     1  0.281523994932  0.067464972838
 CG314   HEL1     1  0.280633096214  0.073666921749
 CG314   HEL2     1  0.281523994932  0.067464972838
 CG314    HF1     1  0.286869387241  0.070011711020
 CG314    HF2     1  0.285087589805  0.072469005789
 CG314   HG2P     1  0.274557166956  0.189623385225
 CG314   HGA1     1  0.288651184677  0.088756043175
 CG314   HGA2     1  0.288651184677  0.078275472531
 CG314   HGA3     1  0.288651184677  0.064818249282
 CG314   HGA4     1  0.280633096214  0.073666921749
 CG314   HGA5     1  0.281523994932  0.067464972838
 CG314   HGA6     1  0.286869387241  0.070011711020
 CG314   HGA7     1  0.285087589805  0.072469005789
 CG314 HGAAM0     1  0.283305792369  0.070011711020
 CG314 HGAAM1     1  0.283305792369  0.070011711020
 CG314 HGAAM2     1  0.281523994932  0.083680000000
 CG314   HGP1     1  0.189271432669  0.089736802707
 CG314   HGP2     1  0.189271432669  0.089736802707
 CG314   HGP3     1  0.209361198763  0.132309697301
 CG314   HGP4     1  0.189271432669  0.089736802707
 CG314   HGP5     1  0.231633666716  0.089736802707
 CG314 HGPAM1     1  0.247224394284  0.039692909190
 CG314 HGPAM2     1  0.247224394284  0.041840000000
 CG314 HGPAM3     1  0.246778944925  0.045833423612
 CG314  HGR51     1  0.290272620344  0.072469005789
 CG314  HGR52     1  0.249451641079  0.089736802707
 CG314  HGR53     1  0.231633666716  0.089736802707
 CG314  HGR61     1  0.290272620344  0.072469005789
 CG314  HGR62     1  0.267269615442  0.089736802707
 CG314  HGR63     1  0.249451641079  0.089736802707
 CG314  HGR71     1  0.290272620344  0.072469005789
 CG314     HL     1  0.231633666716  0.089736802707
 CG314  HLGA1     1  0.288651184677  0.088756043175
 CG314  HLGA2     1  0.288651184677  0.078275472531
 CG314  HLGA3     1  0.288651184677  0.064818249282
 CG314  HLGA4     1  0.280633096214  0.073666921749
 CG314  HLGP1     1  0.189271432669  0.089736802707
 CG314 HLGR52     1  0.249451641079  0.089736802707
 CG314 HLGR61     1  0.290272620344  0.072469005789
 CG314 HLGR62     1  0.267269615442  0.089736802707
 CG314    HN1     1  0.189271432669  0.089736802707
 CG314    HN2     1  0.189271432669  0.089736802707
 CG314    HN3     1  0.267269615442  0.089736802707
 CG314   HN3B     1  0.249451641079  0.089736802707
 CG314    HN4     1  0.189271432669  0.089736802707
 CG314    HN5     1  0.189271432669  0.089736802707
 CG314    HN6     1  0.286869387241  0.062058748940
 CG314    HN7     1  0.286869387241  0.062058748940
 CG314    HN8     1  0.288651184677  0.070011711020
 CG314    HN9     1  0.288651184677  0.064818249282
 CG314   HNE1     1  0.280633096214  0.073666921749
 CG314   HNE2     1  0.281523994932  0.067464972838
 CG314    HNP     1  0.290272620344  0.072469005789
 CG314   HO3P     1  0.293168041178  0.170263611896
 CG314    HOL     1  0.189271432669  0.089736802707
 CG314     HP     1  0.290272620344  0.072469005789
 CG314   HPER     1  0.189271432669  0.089736802707
 CG314    HR1     1  0.249451641079  0.089736802707
 CG314    HR2     1  0.231633666716  0.089736802707
 CG314    HR3     1  0.300054688270  0.036952087465
 CG314   HRA3     1  0.288651184677  0.064818249282
 CG314   HRM1     1  0.247224394284  0.039692909190
 CG314   HRM2     1  0.247224394284  0.041840000000
 CG314   HRP2     1  0.189271432669  0.089736802707
 CG314     HS     1  0.209361198763  0.132309697301
 CG314   HSIA     1  0.286869387241  0.062058748940
 CG314   HSIO     1  0.189271432669  0.089736802707
 CG314     HT     1  0.189271432669  0.089736802707
 CG314     HX     1  0.189271432669  0.089736802707
 CG314   IGR1     1  0.368832069310  0.301712530731
 CG314   IN3P     1  0.246449312399  0.160580590010
 CG314   LA3P     1  0.327200372211  0.182184255566
 CG314    LIT     1  0.284864865125  0.020196198771
 CG314    LPH     1  0.169270756447  0.000000000000
 CG314   LU3P     1  0.289648991242  0.166731218816
 CG314     MG     1  0.274842254546  0.051243325419
 CG314   MN2P     1  0.276508235149  0.171747976291
 CG314   MN3P     1  0.203516903172  0.148045032716
 CG314      N     1  0.334087019303  0.004184000000
 CG314     NC     1  0.334087019303  0.324091246411
 CG314    NC2     1  0.334087019303  0.187114168357
 CG314  NC2D1     1  0.307360057758  0.187114168357
 CG314  NC311     1  0.347450500075  0.088756043175
 CG314   ND3P     1  0.313587439798  0.177117175768
 CG314     NE     1  0.305578260322  0.122698965603
 CG314  NG1T1     1  0.328741626994  0.177512086349
 CG314  NG2D1     1  0.334087019303  0.187114168357
 CG314  NG2O1     1  0.334087019303  0.187114168357
 CG314  NG2P1     1  0.334087019303  0.187114168357
 CG314 NG2R43     1  0.334087019303  0.187114168357
 CG314 NG2R50     1  0.334087019303  0.187114168357
 CG314 NG2R51     1  0.334087019303  0.187114168357
 CG314 NG2R52     1  0.334087019303  0.187114168357
 CG314 NG2R53     1  0.334087019303  0.187114168357
 CG314 NG2R57     1  0.334087019303  0.187114168357
 CG314 NG2R60     1  0.337650614175  0.102486650838
 CG314 NG2R61     1  0.334087019303  0.187114168357
 CG314 NG2R62     1  0.352795892384  0.093557084179
 CG314 NG2R67     1  0.334087019303  0.187114168357
 CG314 NG2RC0     1  0.334087019303  0.187114168357
 CG314  NG2S0     1  0.334087019303  0.004184000000
 CG314  NG2S1     1  0.307360057758  0.187114168357
 CG314  NG2S2     1  0.334087019303  0.187114168357
 CG314  NG2S3     1  0.334087019303  0.187114168357
 CG314  NG301     1  0.347450500075  0.078275472531
 CG314  NG311     1  0.347450500075  0.088756043175
 CG314  NG321     1  0.346559601357  0.102486650838
 CG314  NG331     1  0.345668702638  0.110698234855
 CG314 NG3C51     1  0.334087019303  0.187114168357
 CG314  NG3N1     1  0.351904993665  0.102486650838
 CG314  NG3P0     1  0.334087019303  0.187114168357
 CG314  NG3P1     1  0.334087019303  0.187114168357
 CG314  NG3P2     1  0.334087019303  0.187114168357
 CG314  NG3P3     1  0.334087019303  0.187114168357
 CG314    NH1     1  0.307360057758  0.187114168357
 CG314    NH2     1  0.334087019303  0.187114168357
 CG314    NH3     1  0.334087019303  0.187114168357
 CG314   NH3L     1  0.334087019303  0.187114168357
 CG314    NHL     1  0.307360057758  0.187114168357
 CG314     NI     1  0.282949432881  0.994525446633
 CG314   NI2P     1  0.238787583423  0.158440517242
 CG314    NN1     1  0.334087019303  0.187114168357
 CG314   NN1C     1  0.334087019303  0.187114168357
 CG314    NN2     1  0.334087019303  0.187114168357
 CG314   NN2B     1  0.334087019303  0.187114168357
 CG314   NN2C     1  0.334087019303  0.187114168357
 CG314   NN2G     1  0.334087019303  0.187114168357
 CG314   NN2U     1  0.334087019303  0.187114168357
 CG314    NN3     1  0.334087019303  0.187114168357
 CG314   NN3A     1  0.334087019303  0.187114168357
 CG314   NN3G     1  0.334087019303  0.187114168357
 CG314   NN3I     1  0.334087019303  0.187114168357
 CG314    NN4     1  0.334087019303  0.187114168357
 CG314    NN6     1  0.334087019303  0.187114168357
 CG314    NNG     1  0.334087019303  0.187114168357
 CG314     NP     1  0.334087019303  0.187114168357
 CG314    NPH     1  0.334087019303  0.187114168357
 CG314    NR1     1  0.334087019303  0.187114168357
 CG314    NR2     1  0.334087019303  0.187114168357
 CG314    NR3     1  0.334087019303  0.187114168357
 CG314   NRC4     1  0.334087019303  0.187114168357
 CG314   NRN1     1  0.347450500075  0.280671252536
 CG314   NRN2     1  0.346559601357  0.102486650838
 CG314    NS1     1  0.334087019303  0.187114168357
 CG314    NS2     1  0.334087019303  0.187114168357
 CG314    NTL     1  0.334087019303  0.187114168357
 CG314     NY     1  0.334087019303  0.187114168357
 CG314      O     1  0.293996576986  0.144938011577
 CG314    O2L     1  0.320723538531  0.144938011577
 CG314    OAL     1  0.326959829558  0.163176000000
 CG314     OB     1  0.293996576986  0.144938011577
 CG314    OBL     1  0.293996576986  0.144938011577
 CG314     OC     1  0.320723538531  0.144938011577
 CG314  OC2D1     1  0.293996576986  0.144938011577
 CG314  OC2D2     1  0.320723538531  0.144938011577
 CG314  OC2D3     1  0.293996576986  0.144938011577
 CG314  OC2D4     1  0.293996576986  0.144938011577
 CG314  OC2DP     1  0.320723538531  0.144938011577
 CG314  OC301     1  0.316269044940  0.132309697301
 CG314  OC302     1  0.316269044940  0.132309697301
 CG314  OC303     1  0.316269044940  0.132309697301
 CG314 OC305A     1  0.316269044940  0.132309697301
 CG314  OC30A     1  0.316269044940  0.132309697301
 CG314  OC30P     1  0.326959829558  0.163176000000
 CG314  OC311     1  0.326514380198  0.183381431383
 CG314 OC311M     1  0.326514380198  0.183381431383
 CG314  OC312     1  0.326959829558  0.163176000000
 CG314 OC3C51     1  0.316269044940  0.132309697301
 CG314 OC3C5M     1  0.316269044940  0.132309697301
 CG314 OC3C61     1  0.316269044940  0.132309697301
 CG314    OCA     1  0.293996576986  0.144938011577
 CG314    OCL     1  0.320723538531  0.144938011577
 CG314  OG2D1     1  0.293996576986  0.144938011577
 CG314  OG2D2     1  0.320723538531  0.144938011577
 CG314  OG2D3     1  0.293996576986  0.144938011577
 CG314  OG2D4     1  0.320723538531  0.144938011577
 CG314  OG2D5     1  0.320010819556  0.169954883425
 CG314  OG2N1     1  0.320723538531  0.144938011577
 CG314  OG2P1     1  0.320723538531  0.144938011577
 CG314 OG2R50     1  0.320723538531  0.144938011577
 CG314  OG2S1     1  0.318906105146  0.157831660601
 CG314  OG301     1  0.316269044940  0.132309697301
 CG314  OG302     1  0.316269044940  0.132309697301
 CG314  OG303     1  0.316269044940  0.132309697301
 CG314  OG304     1  0.316269044940  0.132309697301
 CG314  OG311     1  0.326514380198  0.183381431383
 CG314  OG312     1  0.325178032121  0.144938011577
 CG314 OG3C31     1  0.316269044940  0.132309697301
 CG314 OG3C51     1  0.316269044940  0.132309697301
 CG314 OG3C61     1  0.316269044940  0.132309697301
 CG314 OG3R60     1  0.316269044940  0.132309697301
 CG314    OH1     1  0.326959829558  0.163176000000
 CG314    OHL     1  0.326959829558  0.163176000000
 CG314   OLG1     1  0.293996576986  0.144938011577
 CG314   OLG2     1  0.320723538531  0.144938011577
 CG314   OLG3     1  0.320723538531  0.144938011577
 CG314   OLG4     1  0.316269044940  0.132309697301
 CG314   OLG5     1  0.316269044940  0.132309697301
 CG314   OLG6     1  0.326514380198  0.183381431383
 CG314   OLG7     1  0.316269044940  0.132309697301
 CG314   OLG8     1  0.316269044940  0.132309697301
 CG314     OM     1  0.320723538531  0.144938011577
 CG314    ON1     1  0.320723538531  0.144938011577
 CG314   ON1C     1  0.320723538531  0.144938011577
 CG314    ON2     1  0.326959829558  0.163176000000
 CG314   ON2B     1  0.326959829558  0.163176000000
 CG314   ON2M     1  0.316269044940  0.132309697301
 CG314    ON3     1  0.320723538531  0.144938011577
 CG314    ON4     1  0.326959829558  0.163176000000
 CG314    ON5     1  0.326959829558  0.163176000000
 CG314    ON6     1  0.326959829558  0.163176000000
 CG314   ON6B     1  0.326959829558  0.163176000000
 CG314   OPER     1  0.318427692534  0.188901923946
 CG314     OS     1  0.326959829558  0.163176000000
 CG314   OSIA     1  0.326959829558  0.163176000000
 CG314   OSIE     1  0.326959829558  0.163176000000
 CG314   OSIH     1  0.326959829558  0.163176000000
 CG314    OSL     1  0.316269044940  0.132309697301
 CG314   OSLP     1  0.316269044940  0.132309697301
 CG314    OST     1  0.320010819556  0.169954883425
 CG314     OT     1  0.326799467788  0.163176000000
 CG314     OX     1  0.320723538531  0.144938011577
 CG314      P     1  0.360813980847  0.320014464673
 CG314     P2     1  0.360813980847  0.320014464673
 CG314     P3     1  0.360813980847  0.320014464673
 CG314     P4     1  0.360813980847  0.320014464673
 CG314     PB     1  0.328073452955  0.716185437439
 CG314   PB2P     1  0.325890751096  0.204716924713
 CG314     PC     1  0.360813980847  0.320014464673
 CG314     PD     1  0.294842930769  1.037598257516
 CG314   PD2P     1  0.251865976605  0.174628752363
 CG314    PG0     1  0.360813980847  0.320014464673
 CG314    PG1     1  0.360813980847  0.320014464673
 CG314    PG2     1  0.360813980847  0.320014464673
 CG314     PL     1  0.360813980847  0.320014464673
 CG314   PM3P     1  0.316910492017  0.176275053255
 CG314    POT     1  0.326403017859  0.123410269913
 CG314   PR3P     1  0.317079762773  0.178642591472
 CG314     PT     1  0.296001099102  1.168527606863
 CG314   PT2P     1  0.240284293270  0.168973521997
 CG314   PU3P     1  0.318024115415  0.179522368790
 CG314   RA2P     1  0.355459679551  0.229891668540
 CG314   RH3P     1  0.210367914314  0.149983415617
 CG314    RUB     1  0.338541512893  0.162045623205
 CG314      S     1  0.347450500075  0.280671252536
 CG314     SC     1  0.356359487256  0.286840588481
 CG314   SC3P     1  0.266993436839  0.157109060719
 CG314  SEGD1     1  0.363041227642  0.330244580395
 CG314  SG2D1     1  0.351904993665  0.314496560236
 CG314  SG2P1     1  0.355798221064  0.332305491450
 CG314  SG2P2     1  0.352314807076  0.329421919951
 CG314 SG2R50     1  0.347450500075  0.280671252536
 CG314  SG301     1  0.345223253279  0.257919081884
 CG314  SG302     1  0.365268474438  0.286840588481
 CG314  SG311     1  0.347450500075  0.280671252536
 CG314  SG3O1     1  0.356359487256  0.286840588481
 CG314  SG3O2     1  0.347450500075  0.247528778125
 CG314  SG3O3     1  0.347450500075  0.247528778125
 CG314     SI     1  0.365268474438  0.324091246411
 CG314   SIH3     1  0.365268474438  0.324091246411
 CG314     SL     1  0.356359487256  0.286840588481
 CG314     SM     1  0.345223253279  0.257919081884
 CG314   SM2P     1  0.334666103469  0.207012887251
 CG314   SM3P     1  0.308847858618  0.175378986746
 CG314   SN2P     1  0.316981763914  0.181365662197
 CG314    SOD     1  0.294954293108  0.090610410351
 CG314     SP     1  0.365268474438  0.280671252536
 CG314   SR2P     1  0.334612649546  0.200133451797
 CG314     SS     1  0.365268474438  0.286840588481
 CG314   TB3P     1  0.300678317372  0.172155203837
 CG314   TI1P     1  0.341276571958  0.266826378666
 CG314   TI3P     1  0.243117351193  0.149983415617
 CG314   TL3P     1  0.246716582015  0.168869889039
 CG314   TM3P     1  0.289417357575  0.168402751521
 CG314    U3P     1  0.320830446377  0.182184255566
 CG314    V2P     1  0.267599247968  0.167830039933
 CG314    V3P     1  0.223989755715  0.147096016316
 CG314    Y3P     1  0.295190381269  0.170263611896
 CG314   YB2P     1  0.312616360195  0.189623385225
 CG314   YB3P     1  0.284659958420  0.167569069413
 CG314     ZN     1  0.266378716724  0.209200000000
 CG321  CG321     1  0.338541512893  0.041840000000
 CG321  CG322     1  0.338541512893  0.102486650838
 CG321  CG323     1  0.365268474438  0.138767581228
 CG321  CG324     1  0.338541512893  0.041840000000
 CG321  CG331     1  0.338541512893  0.041840000000
 CG321  CG334     1  0.338541512893  0.041840000000
 CG321 CG3AM0     1  0.344777803920  0.110698234855
 CG321 CG3AM1     1  0.345668702638  0.116852760686
 CG321 CG3AM2     1  0.346559601357  0.118341390899
 CG321 CG3C31     1  0.338541512893  0.041840000000
 CG321 CG3C41     1  0.338541512893  0.041840000000
 CG321 CG3C50     1  0.338541512893  0.041840000000
 CG321 CG3C51     1  0.338541512893  0.041840000000
 CG321 CG3C52     1  0.338541512893  0.041840000000
 CG321 CG3C53     1  0.338541512893  0.041840000000
 CG321 CG3C54     1  0.338541512893  0.041840000000
 CG321 CG3RC1     1  0.338541512893  0.041840000000
 CG321     CL     1  0.347450500075  0.110698234855
 CG321    CLA     1  0.371504765465  0.162045623205
 CG321   CLAL     1  0.339272049842  0.072469005789
 CG321  CLG01     1  0.355468588538  0.109105371453
 CG321  CLG02     1  0.355468588538  0.109105371453
 CG321  CLG03     1  0.320723538531  0.130979917850
 CG321  CLG04     1  0.347450500075  0.110698234855
 CG321  CLG05     1  0.329632525712  0.102486650838
 CG321  CLG06     1  0.346773417049  0.110698234855
 CG321 CLG06A     1  0.346773417049  0.110698234855
 CG321 CLG06B     1  0.346773417049  0.110698234855
 CG321  CLG07     1  0.338541512893  0.125520000000
 CG321  CLG08     1  0.338541512893  0.132309697301
 CG321  CLG09     1  0.346773417049  0.110698234855
 CG321  CLG10     1  0.334977918021  0.131646486622
 CG321  CLG11     1  0.338541512893  0.041840000000
 CG321  CLG12     1  0.338541512893  0.041840000000
 CG321  CLG13     1  0.338541512893  0.041840000000
 CG321  CLG14     1  0.338541512893  0.041840000000
 CG321  CLG15     1  0.338541512893  0.041840000000
 CG321  CLG16     1  0.338541512893  0.041840000000
 CG321  CLGA1     1  0.339432411611  0.245040988571
 CG321  CLGA3     1  0.339432411611  0.232955260941
 CG321  CLGR1     1  0.334977918021  0.200657590935
 CG321     CM     1  0.356359487256  0.138767581228
 CG321     CN     1  0.325178032121  0.187114168357
 CG321    CN1     1  0.338541512893  0.132309697301
 CG321   CN1A     1  0.347450500075  0.110698234855
 CG321   CN1T     1  0.338541512893  0.132309697301
 CG321    CN2     1  0.338541512893  0.132309697301
 CG321    CN3     1  0.338541512893  0.125520000000
 CG321   CN3A     1  0.329632525712  0.177512086349
 CG321   CN3B     1  0.329632525712  0.177512086349
 CG321   CN3C     1  0.329632525712  0.177512086349
 CG321   CN3D     1  0.338541512893  0.125520000000
 CG321   CN3T     1  0.338541512893  0.125520000000
 CG321    CN4     1  0.338541512893  0.114583559030
 CG321    CN5     1  0.338541512893  0.114583559030
 CG321   CN5G     1  0.338541512893  0.114583559030
 CG321    CN6     1  0.338541512893  0.041840000000
 CG321    CN7     1  0.338541512893  0.041840000000
 CG321   CN7B     1  0.338541512893  0.041840000000
 CG321   CN7E     1  0.338541512893  0.041840000000
 CG321    CN8     1  0.338541512893  0.041840000000
 CG321   CN8B     1  0.338541512893  0.041840000000
 CG321    CN9     1  0.338541512893  0.041840000000
 CG321    CNA     1  0.346773417049  0.110698234855
 CG321   CNA2     1  0.338541512893  0.110698234855
 CG321   CNE1     1  0.355468588538  0.109105371453
 CG321   CNE2     1  0.354577689820  0.105847757841
 CG321    CNG     1  0.347450500075  0.138767581228
 CG321   CO2P     1  0.251910521541  0.164138698618
 CG321   CO3P     1  0.192264852362  0.144393471099
 CG321    COA     1  0.347450500075  0.138767581228
 CG321    CP1     1  0.338541512893  0.041840000000
 CG321    CP2     1  0.338541512893  0.041840000000
 CG321    CP3     1  0.338541512893  0.041840000000
 CG321    CPA     1  0.329632525712  0.125520000000
 CG321    CPB     1  0.329632525712  0.125520000000
 CG321   CPD1     1  0.338541512893  0.041840000000
 CG321   CPH1     1  0.329632525712  0.093557084179
 CG321   CPH2     1  0.329632525712  0.093557084179
 CG321    CPM     1  0.329632525712  0.125520000000
 CG321    CPT     1  0.334977918021  0.131646486622
 CG321   CR2P     1  0.263634748672  0.170828164985
 CG321   CR33     1  0.338541512893  0.041840000000
 CG321   CR3P     1  0.244382427373  0.145299904804
 CG321   CRL1     1  0.338541512893  0.041840000000
 CG321   CRL2     1  0.338541512893  0.041840000000
 CG321   CRN1     1  0.347450500075  0.138767581228
 CG321     CS     1  0.365268474438  0.138767581228
 CG321    CST     1  0.308518226092  0.100764063435
 CG321     CT     1  0.338541512893  0.041840000000
 CG321    CT1     1  0.338541512893  0.041840000000
 CG321   CT1X     1  0.338541512893  0.041840000000
 CG321    CT2     1  0.338541512893  0.041840000000
 CG321   CT2A     1  0.338541512893  0.041840000000
 CG321   CT2P     1  0.338541512893  0.041840000000
 CG321   CT2X     1  0.338541512893  0.041840000000
 CG321    CT3     1  0.338541512893  0.041840000000
 CG321   CT3X     1  0.338541512893  0.041840000000
 CG321   CTD1     1  0.338541512893  0.041840000000
 CG321   CTL1     1  0.338541512893  0.041840000000
 CG321   CTL2     1  0.338541512893  0.041840000000
 CG321   CTL3     1  0.338541512893  0.041840000000
 CG321   CTL5     1  0.338541512893  0.041840000000
 CG321   CTO1     1  0.338541512893  0.041840000000
 CG321   CTO2     1  0.338541512893  0.041840000000
 CG321     CU     1  0.285800308779  0.908997471504
 CG321   CU1P     1  0.246066225950  0.180057894334
 CG321   CU2P     1  0.233869822499  0.162315474555
 CG321     CY     1  0.346559601357  0.113045454929
 CG321    DUM     1  0.169270756447  0.000000000000
 CG321   DY3P     1  0.297952167295  0.171135318061
 CG321   ER3P     1  0.291083338178  0.169232326746
 CG321   EU2P     1  0.333231756533  0.203602227414
 CG321   EU3P     1  0.304954631219  0.174528477447
 CG321     F1     1  0.314487247504  0.153729976257
 CG321     F2     1  0.314487247504  0.135577095411
 CG321     F3     1  0.311814551349  0.130309939452
 CG321     FA     1  0.320723538531  0.144938011577
 CG321     FE     1  0.227179173126  0.000000000000
 CG321   FE2P     1  0.265496726993  0.167098295383
 CG321   FE3P     1  0.219722350855  0.148045032716
 CG321   FGA1     1  0.314487247504  0.153729976257
 CG321   FGA2     1  0.314487247504  0.135577095411
 CG321   FGA3     1  0.311814551349  0.130309939452
 CG321   FGP1     1  0.311814551349  0.130309939452
 CG321   FGR1     1  0.320723538531  0.144938011577
 CG321    FNA     1  0.320723538531  0.144938011577
 CG321   GA3P     1  0.189485248361  0.145299904804
 CG321   GD3P     1  0.303351013527  0.173673803114
 CG321      H     1  0.189271432669  0.089736802707
 CG321     HA     1  0.286869387241  0.062058748940
 CG321    HA1     1  0.288651184677  0.088756043175
 CG321    HA2     1  0.288651184677  0.077149148019
 CG321    HA3     1  0.288651184677  0.064818249282
 CG321    HAL     1  0.286869387241  0.062058748940
 CG321   HAL1     1  0.286869387241  0.062058748940
 CG321   HAL2     1  0.288651184677  0.070011711020
 CG321   HAL3     1  0.288651184677  0.064818249282
 CG321     HB     1  0.286869387241  0.062058748940
 CG321    HB1     1  0.286869387241  0.062058748940
 CG321    HB2     1  0.288651184677  0.070011711020
 CG321    HBL     1  0.286869387241  0.062058748940
 CG321     HC     1  0.189271432669  0.089736802707
 CG321   HCA1     1  0.288651184677  0.088756043175
 CG321  HCA1A     1  0.288651184677  0.088756043175
 CG321 HCA1C2     1  0.288651184677  0.088756043175
 CG321   HCA2     1  0.288651184677  0.078275472531
 CG321 HCA25A     1  0.285087589805  0.078275472531
 CG321  HCA2A     1  0.288651184677  0.078275472531
 CG321 HCA2C2     1  0.285087589805  0.078275472531
 CG321   HCA3     1  0.288651184677  0.064818249282
 CG321  HCA3A     1  0.288651184677  0.064818249282
 CG321  HCA3M     1  0.288651184677  0.064818249282
 CG321    HCL     1  0.189271432669  0.089736802707
 CG321   HCP1     1  0.189271432669  0.089736802707
 CG321  HCP1M     1  0.189271432669  0.089736802707
 CG321   HCR1     1  0.240542653898  0.089736802707
 CG321     HE     1  0.301123766731  0.061020452073
 CG321    HE1     1  0.280633096214  0.073666921749
 CG321    HE2     1  0.281523994932  0.067464972838
 CG321   HEL1     1  0.280633096214  0.073666921749
 CG321   HEL2     1  0.281523994932  0.067464972838
 CG321    HF1     1  0.286869387241  0.070011711020
 CG321    HF2     1  0.285087589805  0.072469005789
 CG321   HG2P     1  0.274557166956  0.189623385225
 CG321   HGA1     1  0.288651184677  0.088756043175
 CG321   HGA2     1  0.288651184677  0.078275472531
 CG321   HGA3     1  0.288651184677  0.064818249282
 CG321   HGA4     1  0.280633096214  0.073666921749
 CG321   HGA5     1  0.281523994932  0.067464972838
 CG321   HGA6     1  0.286869387241  0.070011711020
 CG321   HGA7     1  0.285087589805  0.072469005789
 CG321 HGAAM0     1  0.283305792369  0.070011711020
 CG321 HGAAM1     1  0.283305792369  0.070011711020
 CG321 HGAAM2     1  0.281523994932  0.083680000000
 CG321   HGP1     1  0.189271432669  0.089736802707
 CG321   HGP2     1  0.189271432669  0.089736802707
 CG321   HGP3     1  0.209361198763  0.132309697301
 CG321   HGP4     1  0.189271432669  0.089736802707
 CG321   HGP5     1  0.231633666716  0.089736802707
 CG321 HGPAM1     1  0.247224394284  0.039692909190
 CG321 HGPAM2     1  0.247224394284  0.041840000000
 CG321 HGPAM3     1  0.246778944925  0.045833423612
 CG321  HGR51     1  0.290272620344  0.072469005789
 CG321  HGR52     1  0.249451641079  0.089736802707
 CG321  HGR53     1  0.231633666716  0.089736802707
 CG321  HGR61     1  0.290272620344  0.072469005789
 CG321  HGR62     1  0.267269615442  0.089736802707
 CG321  HGR63     1  0.249451641079  0.089736802707
 CG321  HGR71     1  0.290272620344  0.072469005789
 CG321     HL     1  0.231633666716  0.089736802707
 CG321  HLGA1     1  0.288651184677  0.088756043175
 CG321  HLGA2     1  0.288651184677  0.078275472531
 CG321  HLGA3     1  0.288651184677  0.064818249282
 CG321  HLGA4     1  0.280633096214  0.073666921749
 CG321  HLGP1     1  0.189271432669  0.089736802707
 CG321 HLGR52     1  0.249451641079  0.089736802707
 CG321 HLGR61     1  0.290272620344  0.072469005789
 CG321 HLGR62     1  0.267269615442  0.089736802707
 CG321    HN1     1  0.189271432669  0.089736802707
 CG321    HN2     1  0.189271432669  0.089736802707
 CG321    HN3     1  0.267269615442  0.089736802707
 CG321   HN3B     1  0.249451641079  0.089736802707
 CG321    HN4     1  0.189271432669  0.089736802707
 CG321    HN5     1  0.189271432669  0.089736802707
 CG321    HN6     1  0.286869387241  0.062058748940
 CG321    HN7     1  0.286869387241  0.062058748940
 CG321    HN8     1  0.288651184677  0.070011711020
 CG321    HN9     1  0.288651184677  0.064818249282
 CG321   HNE1     1  0.280633096214  0.073666921749
 CG321   HNE2     1  0.281523994932  0.067464972838
 CG321    HNP     1  0.290272620344  0.072469005789
 CG321   HO3P     1  0.293168041178  0.170263611896
 CG321    HOL     1  0.189271432669  0.089736802707
 CG321     HP     1  0.290272620344  0.072469005789
 CG321   HPER     1  0.189271432669  0.089736802707
 CG321    HR1     1  0.249451641079  0.089736802707
 CG321    HR2     1  0.231633666716  0.089736802707
 CG321    HR3     1  0.300054688270  0.036952087465
 CG321   HRA3     1  0.288651184677  0.064818249282
 CG321   HRM1     1  0.247224394284  0.039692909190
 CG321   HRM2     1  0.247224394284  0.041840000000
 CG321   HRP2     1  0.189271432669  0.089736802707
 CG321     HS     1  0.209361198763  0.132309697301
 CG321   HSIA     1  0.286869387241  0.062058748940
 CG321   HSIO     1  0.189271432669  0.089736802707
 CG321     HT     1  0.189271432669  0.089736802707
 CG321     HX     1  0.189271432669  0.089736802707
 CG321   IGR1     1  0.368832069310  0.301712530731
 CG321   IN3P     1  0.246449312399  0.160580590010
 CG321   LA3P     1  0.327200372211  0.182184255566
 CG321    LIT     1  0.284864865125  0.020196198771
 CG321    LPH     1  0.169270756447  0.000000000000
 CG321   LU3P     1  0.289648991242  0.166731218816
 CG321     MG     1  0.274842254546  0.051243325419
 CG321   MN2P     1  0.276508235149  0.171747976291
 CG321   MN3P     1  0.203516903172  0.148045032716
 CG321      N     1  0.334087019303  0.004184000000
 CG321     NC     1  0.334087019303  0.324091246411
 CG321    NC2     1  0.334087019303  0.187114168357
 CG321  NC2D1     1  0.307360057758  0.187114168357
 CG321  NC311     1  0.347450500075  0.088756043175
 CG321   ND3P     1  0.313587439798  0.177117175768
 CG321     NE     1  0.305578260322  0.122698965603
 CG321  NG1T1     1  0.328741626994  0.177512086349
 CG321  NG2D1     1  0.334087019303  0.187114168357
 CG321  NG2O1     1  0.334087019303  0.187114168357
 CG321  NG2P1     1  0.334087019303  0.187114168357
 CG321 NG2R43     1  0.334087019303  0.187114168357
 CG321 NG2R50     1  0.334087019303  0.187114168357
 CG321 NG2R51     1  0.334087019303  0.187114168357
 CG321 NG2R52     1  0.334087019303  0.187114168357
 CG321 NG2R53     1  0.334087019303  0.187114168357
 CG321 NG2R57     1  0.334087019303  0.187114168357
 CG321 NG2R60     1  0.337650614175  0.102486650838
 CG321 NG2R61     1  0.334087019303  0.187114168357
 CG321 NG2R62     1  0.352795892384  0.093557084179
 CG321 NG2R67     1  0.334087019303  0.187114168357
 CG321 NG2RC0     1  0.334087019303  0.187114168357
 CG321  NG2S0     1  0.334087019303  0.004184000000
 CG321  NG2S1     1  0.307360057758  0.187114168357
 CG321  NG2S2     1  0.334087019303  0.187114168357
 CG321  NG2S3     1  0.334087019303  0.187114168357
 CG321  NG301     1  0.347450500075  0.078275472531
 CG321  NG311     1  0.347450500075  0.088756043175
 CG321  NG321     1  0.346559601357  0.102486650838
 CG321  NG331     1  0.345668702638  0.110698234855
 CG321 NG3C51     1  0.334087019303  0.187114168357
 CG321  NG3N1     1  0.351904993665  0.102486650838
 CG321  NG3P0     1  0.334087019303  0.187114168357
 CG321  NG3P1     1  0.334087019303  0.187114168357
 CG321  NG3P2     1  0.334087019303  0.187114168357
 CG321  NG3P3     1  0.334087019303  0.187114168357
 CG321    NH1     1  0.307360057758  0.187114168357
 CG321    NH2     1  0.334087019303  0.187114168357
 CG321    NH3     1  0.334087019303  0.187114168357
 CG321   NH3L     1  0.334087019303  0.187114168357
 CG321    NHL     1  0.307360057758  0.187114168357
 CG321     NI     1  0.282949432881  0.994525446633
 CG321   NI2P     1  0.238787583423  0.158440517242
 CG321    NN1     1  0.334087019303  0.187114168357
 CG321   NN1C     1  0.334087019303  0.187114168357
 CG321    NN2     1  0.334087019303  0.187114168357
 CG321   NN2B     1  0.334087019303  0.187114168357
 CG321   NN2C     1  0.334087019303  0.187114168357
 CG321   NN2G     1  0.334087019303  0.187114168357
 CG321   NN2U     1  0.334087019303  0.187114168357
 CG321    NN3     1  0.334087019303  0.187114168357
 CG321   NN3A     1  0.334087019303  0.187114168357
 CG321   NN3G     1  0.334087019303  0.187114168357
 CG321   NN3I     1  0.334087019303  0.187114168357
 CG321    NN4     1  0.334087019303  0.187114168357
 CG321    NN6     1  0.334087019303  0.187114168357
 CG321    NNG     1  0.334087019303  0.187114168357
 CG321     NP     1  0.334087019303  0.187114168357
 CG321    NPH     1  0.334087019303  0.187114168357
 CG321    NR1     1  0.334087019303  0.187114168357
 CG321    NR2     1  0.334087019303  0.187114168357
 CG321    NR3     1  0.334087019303  0.187114168357
 CG321   NRC4     1  0.334087019303  0.187114168357
 CG321   NRN1     1  0.347450500075  0.280671252536
 CG321   NRN2     1  0.346559601357  0.102486650838
 CG321    NS1     1  0.334087019303  0.187114168357
 CG321    NS2     1  0.334087019303  0.187114168357
 CG321    NTL     1  0.334087019303  0.187114168357
 CG321     NY     1  0.334087019303  0.187114168357
 CG321      O     1  0.293996576986  0.144938011577
 CG321    O2L     1  0.320723538531  0.144938011577
 CG321    OAL     1  0.326959829558  0.163176000000
 CG321     OB     1  0.293996576986  0.144938011577
 CG321    OBL     1  0.293996576986  0.144938011577
 CG321     OC     1  0.320723538531  0.144938011577
 CG321  OC2D1     1  0.293996576986  0.144938011577
 CG321  OC2D2     1  0.320723538531  0.144938011577
 CG321  OC2D3     1  0.293996576986  0.144938011577
 CG321  OC2D4     1  0.293996576986  0.144938011577
 CG321  OC2DP     1  0.320723538531  0.144938011577
 CG321  OC301     1  0.316269044940  0.132309697301
 CG321  OC302     1  0.316269044940  0.132309697301
 CG321  OC303     1  0.316269044940  0.132309697301
 CG321 OC305A     1  0.316269044940  0.132309697301
 CG321  OC30A     1  0.316269044940  0.132309697301
 CG321  OC30P     1  0.326959829558  0.163176000000
 CG321  OC311     1  0.326514380198  0.183381431383
 CG321 OC311M     1  0.326514380198  0.183381431383
 CG321  OC312     1  0.326959829558  0.163176000000
 CG321 OC3C51     1  0.316269044940  0.132309697301
 CG321 OC3C5M     1  0.316269044940  0.132309697301
 CG321 OC3C61     1  0.316269044940  0.132309697301
 CG321    OCA     1  0.293996576986  0.144938011577
 CG321    OCL     1  0.320723538531  0.144938011577
 CG321  OG2D1     1  0.293996576986  0.144938011577
 CG321  OG2D2     1  0.320723538531  0.144938011577
 CG321  OG2D3     1  0.293996576986  0.144938011577
 CG321  OG2D4     1  0.320723538531  0.144938011577
 CG321  OG2D5     1  0.320010819556  0.169954883425
 CG321  OG2N1     1  0.320723538531  0.144938011577
 CG321  OG2P1     1  0.320723538531  0.144938011577
 CG321 OG2R50     1  0.320723538531  0.144938011577
 CG321  OG2S1     1  0.318906105146  0.157831660601
 CG321  OG301     1  0.316269044940  0.132309697301
 CG321  OG302     1  0.316269044940  0.132309697301
 CG321  OG303     1  0.316269044940  0.132309697301
 CG321  OG304     1  0.316269044940  0.132309697301
 CG321  OG311     1  0.326514380198  0.183381431383
 CG321  OG312     1  0.325178032121  0.144938011577
 CG321 OG3C31     1  0.316269044940  0.132309697301
 CG321 OG3C51     1  0.316269044940  0.132309697301
 CG321 OG3C61     1  0.316269044940  0.132309697301
 CG321 OG3R60     1  0.316269044940  0.132309697301
 CG321    OH1     1  0.326959829558  0.163176000000
 CG321    OHL     1  0.326959829558  0.163176000000
 CG321   OLG1     1  0.293996576986  0.144938011577
 CG321   OLG2     1  0.320723538531  0.144938011577
 CG321   OLG3     1  0.320723538531  0.144938011577
 CG321   OLG4     1  0.316269044940  0.132309697301
 CG321   OLG5     1  0.316269044940  0.132309697301
 CG321   OLG6     1  0.326514380198  0.183381431383
 CG321   OLG7     1  0.316269044940  0.132309697301
 CG321   OLG8     1  0.316269044940  0.132309697301
 CG321     OM     1  0.320723538531  0.144938011577
 CG321    ON1     1  0.320723538531  0.144938011577
 CG321   ON1C     1  0.320723538531  0.144938011577
 CG321    ON2     1  0.326959829558  0.163176000000
 CG321   ON2B     1  0.326959829558  0.163176000000
 CG321   ON2M     1  0.316269044940  0.132309697301
 CG321    ON3     1  0.320723538531  0.144938011577
 CG321    ON4     1  0.326959829558  0.163176000000
 CG321    ON5     1  0.326959829558  0.163176000000
 CG321    ON6     1  0.326959829558  0.163176000000
 CG321   ON6B     1  0.326959829558  0.163176000000
 CG321   OPER     1  0.318427692534  0.188901923946
 CG321     OS     1  0.326959829558  0.163176000000
 CG321   OSIA     1  0.326959829558  0.163176000000
 CG321   OSIE     1  0.326959829558  0.163176000000
 CG321   OSIH     1  0.326959829558  0.163176000000
 CG321    OSL     1  0.316269044940  0.132309697301
 CG321   OSLP     1  0.316269044940  0.132309697301
 CG321    OST     1  0.320010819556  0.169954883425
 CG321     OT     1  0.326799467788  0.163176000000
 CG321     OX     1  0.320723538531  0.144938011577
 CG321      P     1  0.360813980847  0.320014464673
 CG321     P2     1  0.360813980847  0.320014464673
 CG321     P3     1  0.360813980847  0.320014464673
 CG321     P4     1  0.360813980847  0.320014464673
 CG321     PB     1  0.328073452955  0.716185437439
 CG321   PB2P     1  0.325890751096  0.204716924713
 CG321     PC     1  0.360813980847  0.320014464673
 CG321     PD     1  0.294842930769  1.037598257516
 CG321   PD2P     1  0.251865976605  0.174628752363
 CG321    PG0     1  0.360813980847  0.320014464673
 CG321    PG1     1  0.360813980847  0.320014464673
 CG321    PG2     1  0.360813980847  0.320014464673
 CG321     PL     1  0.360813980847  0.320014464673
 CG321   PM3P     1  0.316910492017  0.176275053255
 CG321    POT     1  0.326403017859  0.123410269913
 CG321   PR3P     1  0.317079762773  0.178642591472
 CG321     PT     1  0.296001099102  1.168527606863
 CG321   PT2P     1  0.240284293270  0.168973521997
 CG321   PU3P     1  0.318024115415  0.179522368790
 CG321   RA2P     1  0.355459679551  0.229891668540
 CG321   RH3P     1  0.210367914314  0.149983415617
 CG321    RUB     1  0.338541512893  0.162045623205
 CG321      S     1  0.347450500075  0.280671252536
 CG321     SC     1  0.356359487256  0.286840588481
 CG321   SC3P     1  0.266993436839  0.157109060719
 CG321  SEGD1     1  0.363041227642  0.330244580395
 CG321  SG2D1     1  0.351904993665  0.314496560236
 CG321  SG2P1     1  0.355798221064  0.332305491450
 CG321  SG2P2     1  0.352314807076  0.329421919951
 CG321 SG2R50     1  0.347450500075  0.280671252536
 CG321  SG301     1  0.345223253279  0.257919081884
 CG321  SG302     1  0.365268474438  0.286840588481
 CG321  SG311     1  0.347450500075  0.280671252536
 CG321  SG3O1     1  0.356359487256  0.286840588481
 CG321  SG3O2     1  0.347450500075  0.247528778125
 CG321  SG3O3     1  0.347450500075  0.247528778125
 CG321     SI     1  0.365268474438  0.324091246411
 CG321   SIH3     1  0.365268474438  0.324091246411
 CG321     SL     1  0.356359487256  0.286840588481
 CG321     SM     1  0.345223253279  0.257919081884
 CG321   SM2P     1  0.334666103469  0.207012887251
 CG321   SM3P     1  0.308847858618  0.175378986746
 CG321   SN2P     1  0.316981763914  0.181365662197
 CG321    SOD     1  0.294954293108  0.090610410351
 CG321     SP     1  0.365268474438  0.280671252536
 CG321   SR2P     1  0.334612649546  0.200133451797
 CG321     SS     1  0.365268474438  0.286840588481
 CG321   TB3P     1  0.300678317372  0.172155203837
 CG321   TI1P     1  0.341276571958  0.266826378666
 CG321   TI3P     1  0.243117351193  0.149983415617
 CG321   TL3P     1  0.246716582015  0.168869889039
 CG321   TM3P     1  0.289417357575  0.168402751521
 CG321    U3P     1  0.320830446377  0.182184255566
 CG321    V2P     1  0.267599247968  0.167830039933
 CG321    V3P     1  0.223989755715  0.147096016316
 CG321    Y3P     1  0.295190381269  0.170263611896
 CG321   YB2P     1  0.312616360195  0.189623385225
 CG321   YB3P     1  0.284659958420  0.167569069413
 CG321     ZN     1  0.266378716724  0.209200000000
 CG322  CG324     1  0.338541512893  0.102486650838
 CG322  CG331     1  0.338541512893  0.102486650838
 CG322  CG334     1  0.338541512893  0.102486650838
 CG322 CG3C31     1  0.338541512893  0.102486650838
 CG322 CG3C41     1  0.338541512893  0.102486650838
 CG322 CG3C50     1  0.338541512893  0.102486650838
 CG322 CG3C51     1  0.338541512893  0.102486650838
 CG322 CG3C52     1  0.338541512893  0.102486650838
 CG322 CG3C53     1  0.338541512893  0.102486650838
 CG322 CG3C54     1  0.338541512893  0.102486650838
 CG322 CG3RC1     1  0.338541512893  0.102486650838
 CG322  CLG11     1  0.338541512893  0.102486650838
 CG322  CLG12     1  0.338541512893  0.102486650838
 CG322  CLG13     1  0.338541512893  0.102486650838
 CG322  CLG14     1  0.338541512893  0.102486650838
 CG322  CLG15     1  0.338541512893  0.102486650838
 CG322  CLG16     1  0.338541512893  0.102486650838
 CG322    CN6     1  0.338541512893  0.102486650838
 CG322    CN7     1  0.338541512893  0.102486650838
 CG322   CN7B     1  0.338541512893  0.102486650838
 CG322   CN7E     1  0.338541512893  0.102486650838
 CG322    CN8     1  0.338541512893  0.102486650838
 CG322   CN8B     1  0.338541512893  0.102486650838
 CG322    CN9     1  0.338541512893  0.102486650838
 CG322    CP1     1  0.338541512893  0.102486650838
 CG322    CP2     1  0.338541512893  0.102486650838
 CG322    CP3     1  0.338541512893  0.102486650838
 CG322   CPD1     1  0.338541512893  0.102486650838
 CG322   CR33     1  0.338541512893  0.102486650838
 CG322   CRL1     1  0.338541512893  0.102486650838
 CG322   CRL2     1  0.338541512893  0.102486650838
 CG322     CT     1  0.338541512893  0.102486650838
 CG322    CT1     1  0.338541512893  0.102486650838
 CG322   CT1X     1  0.338541512893  0.102486650838
 CG322    CT2     1  0.338541512893  0.102486650838
 CG322   CT2A     1  0.338541512893  0.102486650838
 CG322   CT2P     1  0.338541512893  0.102486650838
 CG322   CT2X     1  0.338541512893  0.102486650838
 CG322    CT3     1  0.338541512893  0.102486650838
 CG322   CT3X     1  0.338541512893  0.102486650838
 CG322   CTD1     1  0.338541512893  0.102486650838
 CG322   CTL1     1  0.338541512893  0.102486650838
 CG322   CTL2     1  0.338541512893  0.102486650838
 CG322   CTL3     1  0.338541512893  0.102486650838
 CG322   CTL5     1  0.338541512893  0.102486650838
 CG322   CTO1     1  0.338541512893  0.102486650838
 CG322   CTO2     1  0.338541512893  0.102486650838
 CG322     HP     1  0.290272620344  0.177512086349
 CG322      N     1  0.334087019303  0.010248665084
 CG322  NC2D1     1  0.307360057758  0.458334236120
 CG322  NG2S0     1  0.334087019303  0.010248665084
 CG322  NG2S1     1  0.307360057758  0.458334236120
 CG322    NH1     1  0.307360057758  0.458334236120
 CG322    NHL     1  0.307360057758  0.458334236120
 CG322      O     1  0.293996576986  0.355024172698
 CG322     OB     1  0.293996576986  0.355024172698
 CG322    OBL     1  0.293996576986  0.355024172698
 CG322  OC2D1     1  0.293996576986  0.355024172698
 CG322  OC2D3     1  0.293996576986  0.355024172698
 CG322  OC2D4     1  0.293996576986  0.355024172698
 CG322    OCA     1  0.293996576986  0.355024172698
 CG322  OG2D1     1  0.293996576986  0.355024172698
 CG322  OG2D3     1  0.293996576986  0.355024172698
 CG322   OLG1     1  0.293996576986  0.355024172698
 CG323  CG324     1  0.365268474438  0.138767581228
 CG323  CG331     1  0.365268474438  0.138767581228
 CG323  CG334     1  0.365268474438  0.138767581228
 CG323 CG3C31     1  0.365268474438  0.138767581228
 CG323 CG3C41     1  0.365268474438  0.138767581228
 CG323 CG3C50     1  0.365268474438  0.138767581228
 CG323 CG3C51     1  0.365268474438  0.138767581228
 CG323 CG3C52     1  0.365268474438  0.138767581228
 CG323 CG3C53     1  0.365268474438  0.138767581228
 CG323 CG3C54     1  0.365268474438  0.138767581228
 CG323 CG3RC1     1  0.365268474438  0.138767581228
 CG323  CLG11     1  0.365268474438  0.138767581228
 CG323  CLG12     1  0.365268474438  0.138767581228
 CG323  CLG13     1  0.365268474438  0.138767581228
 CG323  CLG14     1  0.365268474438  0.138767581228
 CG323  CLG15     1  0.365268474438  0.138767581228
 CG323  CLG16     1  0.365268474438  0.138767581228
 CG323    CN6     1  0.365268474438  0.138767581228
 CG323    CN7     1  0.365268474438  0.138767581228
 CG323   CN7B     1  0.365268474438  0.138767581228
 CG323   CN7E     1  0.365268474438  0.138767581228
 CG323    CN8     1  0.365268474438  0.138767581228
 CG323   CN8B     1  0.365268474438  0.138767581228
 CG323    CN9     1  0.365268474438  0.138767581228
 CG323    CP1     1  0.365268474438  0.138767581228
 CG323    CP2     1  0.365268474438  0.138767581228
 CG323    CP3     1  0.365268474438  0.138767581228
 CG323   CPD1     1  0.365268474438  0.138767581228
 CG323   CR33     1  0.365268474438  0.138767581228
 CG323   CRL1     1  0.365268474438  0.138767581228
 CG323   CRL2     1  0.365268474438  0.138767581228
 CG323     CT     1  0.365268474438  0.138767581228
 CG323    CT1     1  0.365268474438  0.138767581228
 CG323   CT1X     1  0.365268474438  0.138767581228
 CG323    CT2     1  0.365268474438  0.138767581228
 CG323   CT2A     1  0.365268474438  0.138767581228
 CG323   CT2P     1  0.365268474438  0.138767581228
 CG323   CT2X     1  0.365268474438  0.138767581228
 CG323    CT3     1  0.365268474438  0.138767581228
 CG323   CT3X     1  0.365268474438  0.138767581228
 CG323   CTD1     1  0.365268474438  0.138767581228
 CG323   CTL1     1  0.365268474438  0.138767581228
 CG323   CTL2     1  0.365268474438  0.138767581228
 CG323   CTL3     1  0.365268474438  0.138767581228
 CG323   CTL5     1  0.365268474438  0.138767581228
 CG323   CTO1     1  0.365268474438  0.138767581228
 CG323   CTO2     1  0.365268474438  0.138767581228
 CG323     HP     1  0.316999581889  0.240352501131
 CG323      N     1  0.360813980847  0.013876758123
 CG323  NC2D1     1  0.334087019303  0.620587489400
 CG323  NG2S0     1  0.360813980847  0.013876758123
 CG323  NG2S1     1  0.334087019303  0.620587489400
 CG323    NH1     1  0.334087019303  0.620587489400
 CG323    NHL     1  0.334087019303  0.620587489400
 CG323      O     1  0.320723538531  0.480705002262
 CG323     OB     1  0.320723538531  0.480705002262
 CG323    OBL     1  0.320723538531  0.480705002262
 CG323  OC2D1     1  0.320723538531  0.480705002262
 CG323  OC2D3     1  0.320723538531  0.480705002262
 CG323  OC2D4     1  0.320723538531  0.480705002262
 CG323    OCA     1  0.320723538531  0.480705002262
 CG323  OG2D1     1  0.320723538531  0.480705002262
 CG323  OG2D3     1  0.320723538531  0.480705002262
 CG323   OLG1     1  0.320723538531  0.480705002262
 CG324  CG324     1  0.338541512893  0.041840000000
 CG324  CG331     1  0.338541512893  0.041840000000
 CG324  CG334     1  0.338541512893  0.041840000000
 CG324 CG3AM0     1  0.344777803920  0.110698234855
 CG324 CG3AM1     1  0.345668702638  0.116852760686
 CG324 CG3AM2     1  0.346559601357  0.118341390899
 CG324 CG3C31     1  0.338541512893  0.041840000000
 CG324 CG3C41     1  0.338541512893  0.041840000000
 CG324 CG3C50     1  0.338541512893  0.041840000000
 CG324 CG3C51     1  0.338541512893  0.041840000000
 CG324 CG3C52     1  0.338541512893  0.041840000000
 CG324 CG3C53     1  0.338541512893  0.041840000000
 CG324 CG3C54     1  0.338541512893  0.041840000000
 CG324 CG3RC1     1  0.338541512893  0.041840000000
 CG324     CL     1  0.347450500075  0.110698234855
 CG324    CLA     1  0.371504765465  0.162045623205
 CG324   CLAL     1  0.339272049842  0.072469005789
 CG324  CLG01     1  0.355468588538  0.109105371453
 CG324  CLG02     1  0.355468588538  0.109105371453
 CG324  CLG03     1  0.320723538531  0.130979917850
 CG324  CLG04     1  0.347450500075  0.110698234855
 CG324  CLG05     1  0.329632525712  0.102486650838
 CG324  CLG06     1  0.346773417049  0.110698234855
 CG324 CLG06A     1  0.346773417049  0.110698234855
 CG324 CLG06B     1  0.346773417049  0.110698234855
 CG324  CLG07     1  0.338541512893  0.125520000000
 CG324  CLG08     1  0.338541512893  0.132309697301
 CG324  CLG09     1  0.346773417049  0.110698234855
 CG324  CLG10     1  0.334977918021  0.131646486622
 CG324  CLG11     1  0.338541512893  0.041840000000
 CG324  CLG12     1  0.338541512893  0.041840000000
 CG324  CLG13     1  0.338541512893  0.041840000000
 CG324  CLG14     1  0.338541512893  0.041840000000
 CG324  CLG15     1  0.338541512893  0.041840000000
 CG324  CLG16     1  0.338541512893  0.041840000000
 CG324  CLGA1     1  0.339432411611  0.245040988571
 CG324  CLGA3     1  0.339432411611  0.232955260941
 CG324  CLGR1     1  0.334977918021  0.200657590935
 CG324     CM     1  0.356359487256  0.138767581228
 CG324     CN     1  0.325178032121  0.187114168357
 CG324    CN1     1  0.338541512893  0.132309697301
 CG324   CN1A     1  0.347450500075  0.110698234855
 CG324   CN1T     1  0.338541512893  0.132309697301
 CG324    CN2     1  0.338541512893  0.132309697301
 CG324    CN3     1  0.338541512893  0.125520000000
 CG324   CN3A     1  0.329632525712  0.177512086349
 CG324   CN3B     1  0.329632525712  0.177512086349
 CG324   CN3C     1  0.329632525712  0.177512086349
 CG324   CN3D     1  0.338541512893  0.125520000000
 CG324   CN3T     1  0.338541512893  0.125520000000
 CG324    CN4     1  0.338541512893  0.114583559030
 CG324    CN5     1  0.338541512893  0.114583559030
 CG324   CN5G     1  0.338541512893  0.114583559030
 CG324    CN6     1  0.338541512893  0.041840000000
 CG324    CN7     1  0.338541512893  0.041840000000
 CG324   CN7B     1  0.338541512893  0.041840000000
 CG324   CN7E     1  0.338541512893  0.041840000000
 CG324    CN8     1  0.338541512893  0.041840000000
 CG324   CN8B     1  0.338541512893  0.041840000000
 CG324    CN9     1  0.338541512893  0.041840000000
 CG324    CNA     1  0.346773417049  0.110698234855
 CG324   CNA2     1  0.338541512893  0.110698234855
 CG324   CNE1     1  0.355468588538  0.109105371453
 CG324   CNE2     1  0.354577689820  0.105847757841
 CG324    CNG     1  0.347450500075  0.138767581228
 CG324   CO2P     1  0.251910521541  0.164138698618
 CG324   CO3P     1  0.192264852362  0.144393471099
 CG324    COA     1  0.347450500075  0.138767581228
 CG324    CP1     1  0.338541512893  0.041840000000
 CG324    CP2     1  0.338541512893  0.041840000000
 CG324    CP3     1  0.338541512893  0.041840000000
 CG324    CPA     1  0.329632525712  0.125520000000
 CG324    CPB     1  0.329632525712  0.125520000000
 CG324   CPD1     1  0.338541512893  0.041840000000
 CG324   CPH1     1  0.329632525712  0.093557084179
 CG324   CPH2     1  0.329632525712  0.093557084179
 CG324    CPM     1  0.329632525712  0.125520000000
 CG324    CPT     1  0.334977918021  0.131646486622
 CG324   CR2P     1  0.263634748672  0.170828164985
 CG324   CR33     1  0.338541512893  0.041840000000
 CG324   CR3P     1  0.244382427373  0.145299904804
 CG324   CRL1     1  0.338541512893  0.041840000000
 CG324   CRL2     1  0.338541512893  0.041840000000
 CG324   CRN1     1  0.347450500075  0.138767581228
 CG324     CS     1  0.365268474438  0.138767581228
 CG324    CST     1  0.308518226092  0.100764063435
 CG324     CT     1  0.338541512893  0.041840000000
 CG324    CT1     1  0.338541512893  0.041840000000
 CG324   CT1X     1  0.338541512893  0.041840000000
 CG324    CT2     1  0.338541512893  0.041840000000
 CG324   CT2A     1  0.338541512893  0.041840000000
 CG324   CT2P     1  0.338541512893  0.041840000000
 CG324   CT2X     1  0.338541512893  0.041840000000
 CG324    CT3     1  0.338541512893  0.041840000000
 CG324   CT3X     1  0.338541512893  0.041840000000
 CG324   CTD1     1  0.338541512893  0.041840000000
 CG324   CTL1     1  0.338541512893  0.041840000000
 CG324   CTL2     1  0.338541512893  0.041840000000
 CG324   CTL3     1  0.338541512893  0.041840000000
 CG324   CTL5     1  0.338541512893  0.041840000000
 CG324   CTO1     1  0.338541512893  0.041840000000
 CG324   CTO2     1  0.338541512893  0.041840000000
 CG324     CU     1  0.285800308779  0.908997471504
 CG324   CU1P     1  0.246066225950  0.180057894334
 CG324   CU2P     1  0.233869822499  0.162315474555
 CG324     CY     1  0.346559601357  0.113045454929
 CG324    DUM     1  0.169270756447  0.000000000000
 CG324   DY3P     1  0.297952167295  0.171135318061
 CG324   ER3P     1  0.291083338178  0.169232326746
 CG324   EU2P     1  0.333231756533  0.203602227414
 CG324   EU3P     1  0.304954631219  0.174528477447
 CG324     F1     1  0.314487247504  0.153729976257
 CG324     F2     1  0.314487247504  0.135577095411
 CG324     F3     1  0.311814551349  0.130309939452
 CG324     FA     1  0.320723538531  0.144938011577
 CG324     FE     1  0.227179173126  0.000000000000
 CG324   FE2P     1  0.265496726993  0.167098295383
 CG324   FE3P     1  0.219722350855  0.148045032716
 CG324   FGA1     1  0.314487247504  0.153729976257
 CG324   FGA2     1  0.314487247504  0.135577095411
 CG324   FGA3     1  0.311814551349  0.130309939452
 CG324   FGP1     1  0.311814551349  0.130309939452
 CG324   FGR1     1  0.320723538531  0.144938011577
 CG324    FNA     1  0.320723538531  0.144938011577
 CG324   GA3P     1  0.189485248361  0.145299904804
 CG324   GD3P     1  0.303351013527  0.173673803114
 CG324      H     1  0.189271432669  0.089736802707
 CG324     HA     1  0.286869387241  0.062058748940
 CG324    HA1     1  0.288651184677  0.088756043175
 CG324    HA2     1  0.288651184677  0.077149148019
 CG324    HA3     1  0.288651184677  0.064818249282
 CG324    HAL     1  0.286869387241  0.062058748940
 CG324   HAL1     1  0.286869387241  0.062058748940
 CG324   HAL2     1  0.288651184677  0.070011711020
 CG324   HAL3     1  0.288651184677  0.064818249282
 CG324     HB     1  0.286869387241  0.062058748940
 CG324    HB1     1  0.286869387241  0.062058748940
 CG324    HB2     1  0.288651184677  0.070011711020
 CG324    HBL     1  0.286869387241  0.062058748940
 CG324     HC     1  0.189271432669  0.089736802707
 CG324   HCA1     1  0.288651184677  0.088756043175
 CG324  HCA1A     1  0.288651184677  0.088756043175
 CG324 HCA1C2     1  0.288651184677  0.088756043175
 CG324   HCA2     1  0.288651184677  0.078275472531
 CG324 HCA25A     1  0.285087589805  0.078275472531
 CG324  HCA2A     1  0.288651184677  0.078275472531
 CG324 HCA2C2     1  0.285087589805  0.078275472531
 CG324   HCA3     1  0.288651184677  0.064818249282
 CG324  HCA3A     1  0.288651184677  0.064818249282
 CG324  HCA3M     1  0.288651184677  0.064818249282
 CG324    HCL     1  0.189271432669  0.089736802707
 CG324   HCP1     1  0.189271432669  0.089736802707
 CG324  HCP1M     1  0.189271432669  0.089736802707
 CG324   HCR1     1  0.240542653898  0.089736802707
 CG324     HE     1  0.301123766731  0.061020452073
 CG324    HE1     1  0.280633096214  0.073666921749
 CG324    HE2     1  0.281523994932  0.067464972838
 CG324   HEL1     1  0.280633096214  0.073666921749
 CG324   HEL2     1  0.281523994932  0.067464972838
 CG324    HF1     1  0.286869387241  0.070011711020
 CG324    HF2     1  0.285087589805  0.072469005789
 CG324   HG2P     1  0.274557166956  0.189623385225
 CG324   HGA1     1  0.288651184677  0.088756043175
 CG324   HGA2     1  0.288651184677  0.078275472531
 CG324   HGA3     1  0.288651184677  0.064818249282
 CG324   HGA4     1  0.280633096214  0.073666921749
 CG324   HGA5     1  0.281523994932  0.067464972838
 CG324   HGA6     1  0.286869387241  0.070011711020
 CG324   HGA7     1  0.285087589805  0.072469005789
 CG324 HGAAM0     1  0.283305792369  0.070011711020
 CG324 HGAAM1     1  0.283305792369  0.070011711020
 CG324 HGAAM2     1  0.281523994932  0.083680000000
 CG324   HGP1     1  0.189271432669  0.089736802707
 CG324   HGP2     1  0.189271432669  0.089736802707
 CG324   HGP3     1  0.209361198763  0.132309697301
 CG324   HGP4     1  0.189271432669  0.089736802707
 CG324   HGP5     1  0.231633666716  0.089736802707
 CG324 HGPAM1     1  0.247224394284  0.039692909190
 CG324 HGPAM2     1  0.247224394284  0.041840000000
 CG324 HGPAM3     1  0.246778944925  0.045833423612
 CG324  HGR51     1  0.290272620344  0.072469005789
 CG324  HGR52     1  0.249451641079  0.089736802707
 CG324  HGR53     1  0.231633666716  0.089736802707
 CG324  HGR61     1  0.290272620344  0.072469005789
 CG324  HGR62     1  0.267269615442  0.089736802707
 CG324  HGR63     1  0.249451641079  0.089736802707
 CG324  HGR71     1  0.290272620344  0.072469005789
 CG324     HL     1  0.231633666716  0.089736802707
 CG324  HLGA1     1  0.288651184677  0.088756043175
 CG324  HLGA2     1  0.288651184677  0.078275472531
 CG324  HLGA3     1  0.288651184677  0.064818249282
 CG324  HLGA4     1  0.280633096214  0.073666921749
 CG324  HLGP1     1  0.189271432669  0.089736802707
 CG324 HLGR52     1  0.249451641079  0.089736802707
 CG324 HLGR61     1  0.290272620344  0.072469005789
 CG324 HLGR62     1  0.267269615442  0.089736802707
 CG324    HN1     1  0.189271432669  0.089736802707
 CG324    HN2     1  0.189271432669  0.089736802707
 CG324    HN3     1  0.267269615442  0.089736802707
 CG324   HN3B     1  0.249451641079  0.089736802707
 CG324    HN4     1  0.189271432669  0.089736802707
 CG324    HN5     1  0.189271432669  0.089736802707
 CG324    HN6     1  0.286869387241  0.062058748940
 CG324    HN7     1  0.286869387241  0.062058748940
 CG324    HN8     1  0.288651184677  0.070011711020
 CG324    HN9     1  0.288651184677  0.064818249282
 CG324   HNE1     1  0.280633096214  0.073666921749
 CG324   HNE2     1  0.281523994932  0.067464972838
 CG324    HNP     1  0.290272620344  0.072469005789
 CG324   HO3P     1  0.293168041178  0.170263611896
 CG324    HOL     1  0.189271432669  0.089736802707
 CG324     HP     1  0.290272620344  0.072469005789
 CG324   HPER     1  0.189271432669  0.089736802707
 CG324    HR1     1  0.249451641079  0.089736802707
 CG324    HR2     1  0.231633666716  0.089736802707
 CG324    HR3     1  0.300054688270  0.036952087465
 CG324   HRA3     1  0.288651184677  0.064818249282
 CG324   HRM1     1  0.247224394284  0.039692909190
 CG324   HRM2     1  0.247224394284  0.041840000000
 CG324   HRP2     1  0.189271432669  0.089736802707
 CG324     HS     1  0.209361198763  0.132309697301
 CG324   HSIA     1  0.286869387241  0.062058748940
 CG324   HSIO     1  0.189271432669  0.089736802707
 CG324     HT     1  0.189271432669  0.089736802707
 CG324     HX     1  0.189271432669  0.089736802707
 CG324   IGR1     1  0.368832069310  0.301712530731
 CG324   IN3P     1  0.246449312399  0.160580590010
 CG324   LA3P     1  0.327200372211  0.182184255566
 CG324    LIT     1  0.284864865125  0.020196198771
 CG324    LPH     1  0.169270756447  0.000000000000
 CG324   LU3P     1  0.289648991242  0.166731218816
 CG324     MG     1  0.274842254546  0.051243325419
 CG324   MN2P     1  0.276508235149  0.171747976291
 CG324   MN3P     1  0.203516903172  0.148045032716
 CG324      N     1  0.334087019303  0.004184000000
 CG324     NC     1  0.334087019303  0.324091246411
 CG324    NC2     1  0.334087019303  0.187114168357
 CG324  NC2D1     1  0.307360057758  0.187114168357
 CG324  NC311     1  0.347450500075  0.088756043175
 CG324   ND3P     1  0.313587439798  0.177117175768
 CG324     NE     1  0.305578260322  0.122698965603
 CG324  NG1T1     1  0.328741626994  0.177512086349
 CG324  NG2D1     1  0.334087019303  0.187114168357
 CG324  NG2O1     1  0.334087019303  0.187114168357
 CG324  NG2P1     1  0.334087019303  0.187114168357
 CG324 NG2R43     1  0.334087019303  0.187114168357
 CG324 NG2R50     1  0.334087019303  0.187114168357
 CG324 NG2R51     1  0.334087019303  0.187114168357
 CG324 NG2R52     1  0.334087019303  0.187114168357
 CG324 NG2R53     1  0.334087019303  0.187114168357
 CG324 NG2R57     1  0.334087019303  0.187114168357
 CG324 NG2R60     1  0.337650614175  0.102486650838
 CG324 NG2R61     1  0.334087019303  0.187114168357
 CG324 NG2R62     1  0.352795892384  0.093557084179
 CG324 NG2R67     1  0.334087019303  0.187114168357
 CG324 NG2RC0     1  0.334087019303  0.187114168357
 CG324  NG2S0     1  0.334087019303  0.004184000000
 CG324  NG2S1     1  0.307360057758  0.187114168357
 CG324  NG2S2     1  0.334087019303  0.187114168357
 CG324  NG2S3     1  0.334087019303  0.187114168357
 CG324  NG301     1  0.347450500075  0.078275472531
 CG324  NG311     1  0.347450500075  0.088756043175
 CG324  NG321     1  0.346559601357  0.102486650838
 CG324  NG331     1  0.345668702638  0.110698234855
 CG324 NG3C51     1  0.334087019303  0.187114168357
 CG324  NG3N1     1  0.351904993665  0.102486650838
 CG324  NG3P0     1  0.334087019303  0.187114168357
 CG324  NG3P1     1  0.334087019303  0.187114168357
 CG324  NG3P2     1  0.334087019303  0.187114168357
 CG324  NG3P3     1  0.334087019303  0.187114168357
 CG324    NH1     1  0.307360057758  0.187114168357
 CG324    NH2     1  0.334087019303  0.187114168357
 CG324    NH3     1  0.334087019303  0.187114168357
 CG324   NH3L     1  0.334087019303  0.187114168357
 CG324    NHL     1  0.307360057758  0.187114168357
 CG324     NI     1  0.282949432881  0.994525446633
 CG324   NI2P     1  0.238787583423  0.158440517242
 CG324    NN1     1  0.334087019303  0.187114168357
 CG324   NN1C     1  0.334087019303  0.187114168357
 CG324    NN2     1  0.334087019303  0.187114168357
 CG324   NN2B     1  0.334087019303  0.187114168357
 CG324   NN2C     1  0.334087019303  0.187114168357
 CG324   NN2G     1  0.334087019303  0.187114168357
 CG324   NN2U     1  0.334087019303  0.187114168357
 CG324    NN3     1  0.334087019303  0.187114168357
 CG324   NN3A     1  0.334087019303  0.187114168357
 CG324   NN3G     1  0.334087019303  0.187114168357
 CG324   NN3I     1  0.334087019303  0.187114168357
 CG324    NN4     1  0.334087019303  0.187114168357
 CG324    NN6     1  0.334087019303  0.187114168357
 CG324    NNG     1  0.334087019303  0.187114168357
 CG324     NP     1  0.334087019303  0.187114168357
 CG324    NPH     1  0.334087019303  0.187114168357
 CG324    NR1     1  0.334087019303  0.187114168357
 CG324    NR2     1  0.334087019303  0.187114168357
 CG324    NR3     1  0.334087019303  0.187114168357
 CG324   NRC4     1  0.334087019303  0.187114168357
 CG324   NRN1     1  0.347450500075  0.280671252536
 CG324   NRN2     1  0.346559601357  0.102486650838
 CG324    NS1     1  0.334087019303  0.187114168357
 CG324    NS2     1  0.334087019303  0.187114168357
 CG324    NTL     1  0.334087019303  0.187114168357
 CG324     NY     1  0.334087019303  0.187114168357
 CG324      O     1  0.293996576986  0.144938011577
 CG324    O2L     1  0.320723538531  0.144938011577
 CG324    OAL     1  0.326959829558  0.163176000000
 CG324     OB     1  0.293996576986  0.144938011577
 CG324    OBL     1  0.293996576986  0.144938011577
 CG324     OC     1  0.320723538531  0.144938011577
 CG324  OC2D1     1  0.293996576986  0.144938011577
 CG324  OC2D2     1  0.320723538531  0.144938011577
 CG324  OC2D3     1  0.293996576986  0.144938011577
 CG324  OC2D4     1  0.293996576986  0.144938011577
 CG324  OC2DP     1  0.320723538531  0.144938011577
 CG324  OC301     1  0.316269044940  0.132309697301
 CG324  OC302     1  0.316269044940  0.132309697301
 CG324  OC303     1  0.316269044940  0.132309697301
 CG324 OC305A     1  0.316269044940  0.132309697301
 CG324  OC30A     1  0.316269044940  0.132309697301
 CG324  OC30P     1  0.326959829558  0.163176000000
 CG324  OC311     1  0.326514380198  0.183381431383
 CG324 OC311M     1  0.326514380198  0.183381431383
 CG324  OC312     1  0.326959829558  0.163176000000
 CG324 OC3C51     1  0.316269044940  0.132309697301
 CG324 OC3C5M     1  0.316269044940  0.132309697301
 CG324 OC3C61     1  0.316269044940  0.132309697301
 CG324    OCA     1  0.293996576986  0.144938011577
 CG324    OCL     1  0.320723538531  0.144938011577
 CG324  OG2D1     1  0.293996576986  0.144938011577
 CG324  OG2D2     1  0.320723538531  0.144938011577
 CG324  OG2D3     1  0.293996576986  0.144938011577
 CG324  OG2D4     1  0.320723538531  0.144938011577
 CG324  OG2D5     1  0.320010819556  0.169954883425
 CG324  OG2N1     1  0.320723538531  0.144938011577
 CG324  OG2P1     1  0.320723538531  0.144938011577
 CG324 OG2R50     1  0.320723538531  0.144938011577
 CG324  OG2S1     1  0.318906105146  0.157831660601
 CG324  OG301     1  0.316269044940  0.132309697301
 CG324  OG302     1  0.316269044940  0.132309697301
 CG324  OG303     1  0.316269044940  0.132309697301
 CG324  OG304     1  0.316269044940  0.132309697301
 CG324  OG311     1  0.326514380198  0.183381431383
 CG324  OG312     1  0.325178032121  0.144938011577
 CG324 OG3C31     1  0.316269044940  0.132309697301
 CG324 OG3C51     1  0.316269044940  0.132309697301
 CG324 OG3C61     1  0.316269044940  0.132309697301
 CG324 OG3R60     1  0.316269044940  0.132309697301
 CG324    OH1     1  0.326959829558  0.163176000000
 CG324    OHL     1  0.326959829558  0.163176000000
 CG324   OLG1     1  0.293996576986  0.144938011577
 CG324   OLG2     1  0.320723538531  0.144938011577
 CG324   OLG3     1  0.320723538531  0.144938011577
 CG324   OLG4     1  0.316269044940  0.132309697301
 CG324   OLG5     1  0.316269044940  0.132309697301
 CG324   OLG6     1  0.326514380198  0.183381431383
 CG324   OLG7     1  0.316269044940  0.132309697301
 CG324   OLG8     1  0.316269044940  0.132309697301
 CG324     OM     1  0.320723538531  0.144938011577
 CG324    ON1     1  0.320723538531  0.144938011577
 CG324   ON1C     1  0.320723538531  0.144938011577
 CG324    ON2     1  0.326959829558  0.163176000000
 CG324   ON2B     1  0.326959829558  0.163176000000
 CG324   ON2M     1  0.316269044940  0.132309697301
 CG324    ON3     1  0.320723538531  0.144938011577
 CG324    ON4     1  0.326959829558  0.163176000000
 CG324    ON5     1  0.326959829558  0.163176000000
 CG324    ON6     1  0.326959829558  0.163176000000
 CG324   ON6B     1  0.326959829558  0.163176000000
 CG324   OPER     1  0.318427692534  0.188901923946
 CG324     OS     1  0.326959829558  0.163176000000
 CG324   OSIA     1  0.326959829558  0.163176000000
 CG324   OSIE     1  0.326959829558  0.163176000000
 CG324   OSIH     1  0.326959829558  0.163176000000
 CG324    OSL     1  0.316269044940  0.132309697301
 CG324   OSLP     1  0.316269044940  0.132309697301
 CG324    OST     1  0.320010819556  0.169954883425
 CG324     OT     1  0.326799467788  0.163176000000
 CG324     OX     1  0.320723538531  0.144938011577
 CG324      P     1  0.360813980847  0.320014464673
 CG324     P2     1  0.360813980847  0.320014464673
 CG324     P3     1  0.360813980847  0.320014464673
 CG324     P4     1  0.360813980847  0.320014464673
 CG324     PB     1  0.328073452955  0.716185437439
 CG324   PB2P     1  0.325890751096  0.204716924713
 CG324     PC     1  0.360813980847  0.320014464673
 CG324     PD     1  0.294842930769  1.037598257516
 CG324   PD2P     1  0.251865976605  0.174628752363
 CG324    PG0     1  0.360813980847  0.320014464673
 CG324    PG1     1  0.360813980847  0.320014464673
 CG324    PG2     1  0.360813980847  0.320014464673
 CG324     PL     1  0.360813980847  0.320014464673
 CG324   PM3P     1  0.316910492017  0.176275053255
 CG324    POT     1  0.326403017859  0.123410269913
 CG324   PR3P     1  0.317079762773  0.178642591472
 CG324     PT     1  0.296001099102  1.168527606863
 CG324   PT2P     1  0.240284293270  0.168973521997
 CG324   PU3P     1  0.318024115415  0.179522368790
 CG324   RA2P     1  0.355459679551  0.229891668540
 CG324   RH3P     1  0.210367914314  0.149983415617
 CG324    RUB     1  0.338541512893  0.162045623205
 CG324      S     1  0.347450500075  0.280671252536
 CG324     SC     1  0.356359487256  0.286840588481
 CG324   SC3P     1  0.266993436839  0.157109060719
 CG324  SEGD1     1  0.363041227642  0.330244580395
 CG324  SG2D1     1  0.351904993665  0.314496560236
 CG324  SG2P1     1  0.355798221064  0.332305491450
 CG324  SG2P2     1  0.352314807076  0.329421919951
 CG324 SG2R50     1  0.347450500075  0.280671252536
 CG324  SG301     1  0.345223253279  0.257919081884
 CG324  SG302     1  0.365268474438  0.286840588481
 CG324  SG311     1  0.347450500075  0.280671252536
 CG324  SG3O1     1  0.356359487256  0.286840588481
 CG324  SG3O2     1  0.347450500075  0.247528778125
 CG324  SG3O3     1  0.347450500075  0.247528778125
 CG324     SI     1  0.365268474438  0.324091246411
 CG324   SIH3     1  0.365268474438  0.324091246411
 CG324     SL     1  0.356359487256  0.286840588481
 CG324     SM     1  0.345223253279  0.257919081884
 CG324   SM2P     1  0.334666103469  0.207012887251
 CG324   SM3P     1  0.308847858618  0.175378986746
 CG324   SN2P     1  0.316981763914  0.181365662197
 CG324    SOD     1  0.294954293108  0.090610410351
 CG324     SP     1  0.365268474438  0.280671252536
 CG324   SR2P     1  0.334612649546  0.200133451797
 CG324     SS     1  0.365268474438  0.286840588481
 CG324   TB3P     1  0.300678317372  0.172155203837
 CG324   TI1P     1  0.341276571958  0.266826378666
 CG324   TI3P     1  0.243117351193  0.149983415617
 CG324   TL3P     1  0.246716582015  0.168869889039
 CG324   TM3P     1  0.289417357575  0.168402751521
 CG324    U3P     1  0.320830446377  0.182184255566
 CG324    V2P     1  0.267599247968  0.167830039933
 CG324    V3P     1  0.223989755715  0.147096016316
 CG324    Y3P     1  0.295190381269  0.170263611896
 CG324   YB2P     1  0.312616360195  0.189623385225
 CG324   YB3P     1  0.284659958420  0.167569069413
 CG324     ZN     1  0.266378716724  0.209200000000
 CG331  CG331     1  0.338541512893  0.041840000000
 CG331  CG334     1  0.338541512893  0.041840000000
 CG331 CG3AM0     1  0.344777803920  0.110698234855
 CG331 CG3AM1     1  0.345668702638  0.116852760686
 CG331 CG3AM2     1  0.346559601357  0.118341390899
 CG331 CG3C31     1  0.338541512893  0.041840000000
 CG331 CG3C41     1  0.338541512893  0.041840000000
 CG331 CG3C50     1  0.338541512893  0.041840000000
 CG331 CG3C51     1  0.338541512893  0.041840000000
 CG331 CG3C52     1  0.338541512893  0.041840000000
 CG331 CG3C53     1  0.338541512893  0.041840000000
 CG331 CG3C54     1  0.338541512893  0.041840000000
 CG331 CG3RC1     1  0.338541512893  0.041840000000
 CG331     CL     1  0.347450500075  0.110698234855
 CG331    CLA     1  0.371504765465  0.162045623205
 CG331   CLAL     1  0.339272049842  0.072469005789
 CG331  CLG01     1  0.355468588538  0.109105371453
 CG331  CLG02     1  0.355468588538  0.109105371453
 CG331  CLG03     1  0.320723538531  0.130979917850
 CG331  CLG04     1  0.347450500075  0.110698234855
 CG331  CLG05     1  0.329632525712  0.102486650838
 CG331  CLG06     1  0.346773417049  0.110698234855
 CG331 CLG06A     1  0.346773417049  0.110698234855
 CG331 CLG06B     1  0.346773417049  0.110698234855
 CG331  CLG07     1  0.338541512893  0.125520000000
 CG331  CLG08     1  0.338541512893  0.132309697301
 CG331  CLG09     1  0.346773417049  0.110698234855
 CG331  CLG10     1  0.334977918021  0.131646486622
 CG331  CLG11     1  0.338541512893  0.041840000000
 CG331  CLG12     1  0.338541512893  0.041840000000
 CG331  CLG13     1  0.338541512893  0.041840000000
 CG331  CLG14     1  0.338541512893  0.041840000000
 CG331  CLG15     1  0.338541512893  0.041840000000
 CG331  CLG16     1  0.338541512893  0.041840000000
 CG331  CLGA1     1  0.339432411611  0.245040988571
 CG331  CLGA3     1  0.339432411611  0.232955260941
 CG331  CLGR1     1  0.334977918021  0.200657590935
 CG331     CM     1  0.356359487256  0.138767581228
 CG331     CN     1  0.325178032121  0.187114168357
 CG331    CN1     1  0.338541512893  0.132309697301
 CG331   CN1A     1  0.347450500075  0.110698234855
 CG331   CN1T     1  0.338541512893  0.132309697301
 CG331    CN2     1  0.338541512893  0.132309697301
 CG331    CN3     1  0.338541512893  0.125520000000
 CG331   CN3A     1  0.329632525712  0.177512086349
 CG331   CN3B     1  0.329632525712  0.177512086349
 CG331   CN3C     1  0.329632525712  0.177512086349
 CG331   CN3D     1  0.338541512893  0.125520000000
 CG331   CN3T     1  0.338541512893  0.125520000000
 CG331    CN4     1  0.338541512893  0.114583559030
 CG331    CN5     1  0.338541512893  0.114583559030
 CG331   CN5G     1  0.338541512893  0.114583559030
 CG331    CN6     1  0.338541512893  0.041840000000
 CG331    CN7     1  0.338541512893  0.041840000000
 CG331   CN7B     1  0.338541512893  0.041840000000
 CG331   CN7E     1  0.338541512893  0.041840000000
 CG331    CN8     1  0.338541512893  0.041840000000
 CG331   CN8B     1  0.338541512893  0.041840000000
 CG331    CN9     1  0.338541512893  0.041840000000
 CG331    CNA     1  0.346773417049  0.110698234855
 CG331   CNA2     1  0.338541512893  0.110698234855
 CG331   CNE1     1  0.355468588538  0.109105371453
 CG331   CNE2     1  0.354577689820  0.105847757841
 CG331    CNG     1  0.347450500075  0.138767581228
 CG331   CO2P     1  0.251910521541  0.164138698618
 CG331   CO3P     1  0.192264852362  0.144393471099
 CG331    COA     1  0.347450500075  0.138767581228
 CG331    CP1     1  0.338541512893  0.041840000000
 CG331    CP2     1  0.338541512893  0.041840000000
 CG331    CP3     1  0.338541512893  0.041840000000
 CG331    CPA     1  0.329632525712  0.125520000000
 CG331    CPB     1  0.329632525712  0.125520000000
 CG331   CPD1     1  0.338541512893  0.041840000000
 CG331   CPH1     1  0.329632525712  0.093557084179
 CG331   CPH2     1  0.329632525712  0.093557084179
 CG331    CPM     1  0.329632525712  0.125520000000
 CG331    CPT     1  0.334977918021  0.131646486622
 CG331   CR2P     1  0.263634748672  0.170828164985
 CG331   CR33     1  0.338541512893  0.041840000000
 CG331   CR3P     1  0.244382427373  0.145299904804
 CG331   CRL1     1  0.338541512893  0.041840000000
 CG331   CRL2     1  0.338541512893  0.041840000000
 CG331   CRN1     1  0.347450500075  0.138767581228
 CG331     CS     1  0.365268474438  0.138767581228
 CG331    CST     1  0.308518226092  0.100764063435
 CG331     CT     1  0.338541512893  0.041840000000
 CG331    CT1     1  0.338541512893  0.041840000000
 CG331   CT1X     1  0.338541512893  0.041840000000
 CG331    CT2     1  0.338541512893  0.041840000000
 CG331   CT2A     1  0.338541512893  0.041840000000
 CG331   CT2P     1  0.338541512893  0.041840000000
 CG331   CT2X     1  0.338541512893  0.041840000000
 CG331    CT3     1  0.338541512893  0.041840000000
 CG331   CT3X     1  0.338541512893  0.041840000000
 CG331   CTD1     1  0.338541512893  0.041840000000
 CG331   CTL1     1  0.338541512893  0.041840000000
 CG331   CTL2     1  0.338541512893  0.041840000000
 CG331   CTL3     1  0.338541512893  0.041840000000
 CG331   CTL5     1  0.338541512893  0.041840000000
 CG331   CTO1     1  0.338541512893  0.041840000000
 CG331   CTO2     1  0.338541512893  0.041840000000
 CG331     CU     1  0.285800308779  0.908997471504
 CG331   CU1P     1  0.246066225950  0.180057894334
 CG331   CU2P     1  0.233869822499  0.162315474555
 CG331     CY     1  0.346559601357  0.113045454929
 CG331    DUM     1  0.169270756447  0.000000000000
 CG331   DY3P     1  0.297952167295  0.171135318061
 CG331   ER3P     1  0.291083338178  0.169232326746
 CG331   EU2P     1  0.333231756533  0.203602227414
 CG331   EU3P     1  0.304954631219  0.174528477447
 CG331     F1     1  0.314487247504  0.153729976257
 CG331     F2     1  0.314487247504  0.135577095411
 CG331     F3     1  0.311814551349  0.130309939452
 CG331     FA     1  0.320723538531  0.144938011577
 CG331     FE     1  0.227179173126  0.000000000000
 CG331   FE2P     1  0.265496726993  0.167098295383
 CG331   FE3P     1  0.219722350855  0.148045032716
 CG331   FGA1     1  0.314487247504  0.153729976257
 CG331   FGA2     1  0.314487247504  0.135577095411
 CG331   FGA3     1  0.311814551349  0.130309939452
 CG331   FGP1     1  0.311814551349  0.130309939452
 CG331   FGR1     1  0.320723538531  0.144938011577
 CG331    FNA     1  0.320723538531  0.144938011577
 CG331   GA3P     1  0.189485248361  0.145299904804
 CG331   GD3P     1  0.303351013527  0.173673803114
 CG331      H     1  0.189271432669  0.089736802707
 CG331     HA     1  0.286869387241  0.062058748940
 CG331    HA1     1  0.288651184677  0.088756043175
 CG331    HA2     1  0.288651184677  0.077149148019
 CG331    HA3     1  0.288651184677  0.064818249282
 CG331    HAL     1  0.286869387241  0.062058748940
 CG331   HAL1     1  0.286869387241  0.062058748940
 CG331   HAL2     1  0.288651184677  0.070011711020
 CG331   HAL3     1  0.288651184677  0.064818249282
 CG331     HB     1  0.286869387241  0.062058748940
 CG331    HB1     1  0.286869387241  0.062058748940
 CG331    HB2     1  0.288651184677  0.070011711020
 CG331    HBL     1  0.286869387241  0.062058748940
 CG331     HC     1  0.189271432669  0.089736802707
 CG331   HCA1     1  0.288651184677  0.088756043175
 CG331  HCA1A     1  0.288651184677  0.088756043175
 CG331 HCA1C2     1  0.288651184677  0.088756043175
 CG331   HCA2     1  0.288651184677  0.078275472531
 CG331 HCA25A     1  0.285087589805  0.078275472531
 CG331  HCA2A     1  0.288651184677  0.078275472531
 CG331 HCA2C2     1  0.285087589805  0.078275472531
 CG331   HCA3     1  0.288651184677  0.064818249282
 CG331  HCA3A     1  0.288651184677  0.064818249282
 CG331  HCA3M     1  0.288651184677  0.064818249282
 CG331    HCL     1  0.189271432669  0.089736802707
 CG331   HCP1     1  0.189271432669  0.089736802707
 CG331  HCP1M     1  0.189271432669  0.089736802707
 CG331   HCR1     1  0.240542653898  0.089736802707
 CG331     HE     1  0.301123766731  0.061020452073
 CG331    HE1     1  0.280633096214  0.073666921749
 CG331    HE2     1  0.281523994932  0.067464972838
 CG331   HEL1     1  0.280633096214  0.073666921749
 CG331   HEL2     1  0.281523994932  0.067464972838
 CG331    HF1     1  0.286869387241  0.070011711020
 CG331    HF2     1  0.285087589805  0.072469005789
 CG331   HG2P     1  0.274557166956  0.189623385225
 CG331   HGA1     1  0.288651184677  0.088756043175
 CG331   HGA2     1  0.288651184677  0.078275472531
 CG331   HGA3     1  0.288651184677  0.064818249282
 CG331   HGA4     1  0.280633096214  0.073666921749
 CG331   HGA5     1  0.281523994932  0.067464972838
 CG331   HGA6     1  0.286869387241  0.070011711020
 CG331   HGA7     1  0.285087589805  0.072469005789
 CG331 HGAAM0     1  0.283305792369  0.070011711020
 CG331 HGAAM1     1  0.283305792369  0.070011711020
 CG331 HGAAM2     1  0.281523994932  0.083680000000
 CG331   HGP1     1  0.189271432669  0.089736802707
 CG331   HGP2     1  0.189271432669  0.089736802707
 CG331   HGP3     1  0.209361198763  0.132309697301
 CG331   HGP4     1  0.189271432669  0.089736802707
 CG331   HGP5     1  0.231633666716  0.089736802707
 CG331 HGPAM1     1  0.247224394284  0.039692909190
 CG331 HGPAM2     1  0.247224394284  0.041840000000
 CG331 HGPAM3     1  0.246778944925  0.045833423612
 CG331  HGR51     1  0.290272620344  0.072469005789
 CG331  HGR52     1  0.249451641079  0.089736802707
 CG331  HGR53     1  0.231633666716  0.089736802707
 CG331  HGR61     1  0.290272620344  0.072469005789
 CG331  HGR62     1  0.267269615442  0.089736802707
 CG331  HGR63     1  0.249451641079  0.089736802707
 CG331  HGR71     1  0.290272620344  0.072469005789
 CG331     HL     1  0.231633666716  0.089736802707
 CG331  HLGA1     1  0.288651184677  0.088756043175
 CG331  HLGA2     1  0.288651184677  0.078275472531
 CG331  HLGA3     1  0.288651184677  0.064818249282
 CG331  HLGA4     1  0.280633096214  0.073666921749
 CG331  HLGP1     1  0.189271432669  0.089736802707
 CG331 HLGR52     1  0.249451641079  0.089736802707
 CG331 HLGR61     1  0.290272620344  0.072469005789
 CG331 HLGR62     1  0.267269615442  0.089736802707
 CG331    HN1     1  0.189271432669  0.089736802707
 CG331    HN2     1  0.189271432669  0.089736802707
 CG331    HN3     1  0.267269615442  0.089736802707
 CG331   HN3B     1  0.249451641079  0.089736802707
 CG331    HN4     1  0.189271432669  0.089736802707
 CG331    HN5     1  0.189271432669  0.089736802707
 CG331    HN6     1  0.286869387241  0.062058748940
 CG331    HN7     1  0.286869387241  0.062058748940
 CG331    HN8     1  0.288651184677  0.070011711020
 CG331    HN9     1  0.288651184677  0.064818249282
 CG331   HNE1     1  0.280633096214  0.073666921749
 CG331   HNE2     1  0.281523994932  0.067464972838
 CG331    HNP     1  0.290272620344  0.072469005789
 CG331   HO3P     1  0.293168041178  0.170263611896
 CG331    HOL     1  0.189271432669  0.089736802707
 CG331     HP     1  0.290272620344  0.072469005789
 CG331   HPER     1  0.189271432669  0.089736802707
 CG331    HR1     1  0.249451641079  0.089736802707
 CG331    HR2     1  0.231633666716  0.089736802707
 CG331    HR3     1  0.300054688270  0.036952087465
 CG331   HRA3     1  0.288651184677  0.064818249282
 CG331   HRM1     1  0.247224394284  0.039692909190
 CG331   HRM2     1  0.247224394284  0.041840000000
 CG331   HRP2     1  0.189271432669  0.089736802707
 CG331     HS     1  0.209361198763  0.132309697301
 CG331   HSIA     1  0.286869387241  0.062058748940
 CG331   HSIO     1  0.189271432669  0.089736802707
 CG331     HT     1  0.189271432669  0.089736802707
 CG331     HX     1  0.189271432669  0.089736802707
 CG331   IGR1     1  0.368832069310  0.301712530731
 CG331   IN3P     1  0.246449312399  0.160580590010
 CG331   LA3P     1  0.327200372211  0.182184255566
 CG331    LIT     1  0.284864865125  0.020196198771
 CG331    LPH     1  0.169270756447  0.000000000000
 CG331   LU3P     1  0.289648991242  0.166731218816
 CG331     MG     1  0.274842254546  0.051243325419
 CG331   MN2P     1  0.276508235149  0.171747976291
 CG331   MN3P     1  0.203516903172  0.148045032716
 CG331      N     1  0.334087019303  0.004184000000
 CG331     NC     1  0.334087019303  0.324091246411
 CG331    NC2     1  0.334087019303  0.187114168357
 CG331  NC2D1     1  0.307360057758  0.187114168357
 CG331  NC311     1  0.347450500075  0.088756043175
 CG331   ND3P     1  0.313587439798  0.177117175768
 CG331     NE     1  0.305578260322  0.122698965603
 CG331  NG1T1     1  0.328741626994  0.177512086349
 CG331  NG2D1     1  0.334087019303  0.187114168357
 CG331  NG2O1     1  0.334087019303  0.187114168357
 CG331  NG2P1     1  0.334087019303  0.187114168357
 CG331 NG2R43     1  0.334087019303  0.187114168357
 CG331 NG2R50     1  0.334087019303  0.187114168357
 CG331 NG2R51     1  0.334087019303  0.187114168357
 CG331 NG2R52     1  0.334087019303  0.187114168357
 CG331 NG2R53     1  0.334087019303  0.187114168357
 CG331 NG2R57     1  0.334087019303  0.187114168357
 CG331 NG2R60     1  0.337650614175  0.102486650838
 CG331 NG2R61     1  0.334087019303  0.187114168357
 CG331 NG2R62     1  0.352795892384  0.093557084179
 CG331 NG2R67     1  0.334087019303  0.187114168357
 CG331 NG2RC0     1  0.334087019303  0.187114168357
 CG331  NG2S0     1  0.334087019303  0.004184000000
 CG331  NG2S1     1  0.307360057758  0.187114168357
 CG331  NG2S2     1  0.334087019303  0.187114168357
 CG331  NG2S3     1  0.334087019303  0.187114168357
 CG331  NG301     1  0.347450500075  0.078275472531
 CG331  NG311     1  0.347450500075  0.088756043175
 CG331  NG321     1  0.346559601357  0.102486650838
 CG331  NG331     1  0.345668702638  0.110698234855
 CG331 NG3C51     1  0.334087019303  0.187114168357
 CG331  NG3N1     1  0.351904993665  0.102486650838
 CG331  NG3P0     1  0.334087019303  0.187114168357
 CG331  NG3P1     1  0.334087019303  0.187114168357
 CG331  NG3P2     1  0.334087019303  0.187114168357
 CG331  NG3P3     1  0.334087019303  0.187114168357
 CG331    NH1     1  0.307360057758  0.187114168357
 CG331    NH2     1  0.334087019303  0.187114168357
 CG331    NH3     1  0.334087019303  0.187114168357
 CG331   NH3L     1  0.334087019303  0.187114168357
 CG331    NHL     1  0.307360057758  0.187114168357
 CG331     NI     1  0.282949432881  0.994525446633
 CG331   NI2P     1  0.238787583423  0.158440517242
 CG331    NN1     1  0.334087019303  0.187114168357
 CG331   NN1C     1  0.334087019303  0.187114168357
 CG331    NN2     1  0.334087019303  0.187114168357
 CG331   NN2B     1  0.334087019303  0.187114168357
 CG331   NN2C     1  0.334087019303  0.187114168357
 CG331   NN2G     1  0.334087019303  0.187114168357
 CG331   NN2U     1  0.334087019303  0.187114168357
 CG331    NN3     1  0.334087019303  0.187114168357
 CG331   NN3A     1  0.334087019303  0.187114168357
 CG331   NN3G     1  0.334087019303  0.187114168357
 CG331   NN3I     1  0.334087019303  0.187114168357
 CG331    NN4     1  0.334087019303  0.187114168357
 CG331    NN6     1  0.334087019303  0.187114168357
 CG331    NNG     1  0.334087019303  0.187114168357
 CG331     NP     1  0.334087019303  0.187114168357
 CG331    NPH     1  0.334087019303  0.187114168357
 CG331    NR1     1  0.334087019303  0.187114168357
 CG331    NR2     1  0.334087019303  0.187114168357
 CG331    NR3     1  0.334087019303  0.187114168357
 CG331   NRC4     1  0.334087019303  0.187114168357
 CG331   NRN1     1  0.347450500075  0.280671252536
 CG331   NRN2     1  0.346559601357  0.102486650838
 CG331    NS1     1  0.334087019303  0.187114168357
 CG331    NS2     1  0.334087019303  0.187114168357
 CG331    NTL     1  0.334087019303  0.187114168357
 CG331     NY     1  0.334087019303  0.187114168357
 CG331      O     1  0.293996576986  0.144938011577
 CG331    O2L     1  0.320723538531  0.144938011577
 CG331    OAL     1  0.326959829558  0.163176000000
 CG331     OB     1  0.293996576986  0.144938011577
 CG331    OBL     1  0.293996576986  0.144938011577
 CG331     OC     1  0.320723538531  0.144938011577
 CG331  OC2D1     1  0.293996576986  0.144938011577
 CG331  OC2D2     1  0.320723538531  0.144938011577
 CG331  OC2D3     1  0.293996576986  0.144938011577
 CG331  OC2D4     1  0.293996576986  0.144938011577
 CG331  OC2DP     1  0.320723538531  0.144938011577
 CG331  OC301     1  0.316269044940  0.132309697301
 CG331  OC302     1  0.316269044940  0.132309697301
 CG331  OC303     1  0.316269044940  0.132309697301
 CG331 OC305A     1  0.316269044940  0.132309697301
 CG331  OC30A     1  0.316269044940  0.132309697301
 CG331  OC30P     1  0.326959829558  0.163176000000
 CG331  OC311     1  0.326514380198  0.183381431383
 CG331 OC311M     1  0.326514380198  0.183381431383
 CG331  OC312     1  0.326959829558  0.163176000000
 CG331 OC3C51     1  0.316269044940  0.132309697301
 CG331 OC3C5M     1  0.316269044940  0.132309697301
 CG331 OC3C61     1  0.316269044940  0.132309697301
 CG331    OCA     1  0.293996576986  0.144938011577
 CG331    OCL     1  0.320723538531  0.144938011577
 CG331  OG2D1     1  0.293996576986  0.144938011577
 CG331  OG2D2     1  0.320723538531  0.144938011577
 CG331  OG2D3     1  0.293996576986  0.144938011577
 CG331  OG2D4     1  0.320723538531  0.144938011577
 CG331  OG2D5     1  0.320010819556  0.169954883425
 CG331  OG2N1     1  0.320723538531  0.144938011577
 CG331  OG2P1     1  0.320723538531  0.144938011577
 CG331 OG2R50     1  0.320723538531  0.144938011577
 CG331  OG2S1     1  0.318906105146  0.157831660601
 CG331  OG301     1  0.316269044940  0.132309697301
 CG331  OG302     1  0.316269044940  0.132309697301
 CG331  OG303     1  0.316269044940  0.132309697301
 CG331  OG304     1  0.316269044940  0.132309697301
 CG331  OG311     1  0.326514380198  0.183381431383
 CG331  OG312     1  0.325178032121  0.144938011577
 CG331 OG3C31     1  0.316269044940  0.132309697301
 CG331 OG3C51     1  0.316269044940  0.132309697301
 CG331 OG3C61     1  0.316269044940  0.132309697301
 CG331 OG3R60     1  0.316269044940  0.132309697301
 CG331    OH1     1  0.326959829558  0.163176000000
 CG331    OHL     1  0.326959829558  0.163176000000
 CG331   OLG1     1  0.293996576986  0.144938011577
 CG331   OLG2     1  0.320723538531  0.144938011577
 CG331   OLG3     1  0.320723538531  0.144938011577
 CG331   OLG4     1  0.316269044940  0.132309697301
 CG331   OLG5     1  0.316269044940  0.132309697301
 CG331   OLG6     1  0.326514380198  0.183381431383
 CG331   OLG7     1  0.316269044940  0.132309697301
 CG331   OLG8     1  0.316269044940  0.132309697301
 CG331     OM     1  0.320723538531  0.144938011577
 CG331    ON1     1  0.320723538531  0.144938011577
 CG331   ON1C     1  0.320723538531  0.144938011577
 CG331    ON2     1  0.326959829558  0.163176000000
 CG331   ON2B     1  0.326959829558  0.163176000000
 CG331   ON2M     1  0.316269044940  0.132309697301
 CG331    ON3     1  0.320723538531  0.144938011577
 CG331    ON4     1  0.326959829558  0.163176000000
 CG331    ON5     1  0.326959829558  0.163176000000
 CG331    ON6     1  0.326959829558  0.163176000000
 CG331   ON6B     1  0.326959829558  0.163176000000
 CG331   OPER     1  0.318427692534  0.188901923946
 CG331     OS     1  0.326959829558  0.163176000000
 CG331   OSIA     1  0.326959829558  0.163176000000
 CG331   OSIE     1  0.326959829558  0.163176000000
 CG331   OSIH     1  0.326959829558  0.163176000000
 CG331    OSL     1  0.316269044940  0.132309697301
 CG331   OSLP     1  0.316269044940  0.132309697301
 CG331    OST     1  0.320010819556  0.169954883425
 CG331     OT     1  0.326799467788  0.163176000000
 CG331     OX     1  0.320723538531  0.144938011577
 CG331      P     1  0.360813980847  0.320014464673
 CG331     P2     1  0.360813980847  0.320014464673
 CG331     P3     1  0.360813980847  0.320014464673
 CG331     P4     1  0.360813980847  0.320014464673
 CG331     PB     1  0.328073452955  0.716185437439
 CG331   PB2P     1  0.325890751096  0.204716924713
 CG331     PC     1  0.360813980847  0.320014464673
 CG331     PD     1  0.294842930769  1.037598257516
 CG331   PD2P     1  0.251865976605  0.174628752363
 CG331    PG0     1  0.360813980847  0.320014464673
 CG331    PG1     1  0.360813980847  0.320014464673
 CG331    PG2     1  0.360813980847  0.320014464673
 CG331     PL     1  0.360813980847  0.320014464673
 CG331   PM3P     1  0.316910492017  0.176275053255
 CG331    POT     1  0.326403017859  0.123410269913
 CG331   PR3P     1  0.317079762773  0.178642591472
 CG331     PT     1  0.296001099102  1.168527606863
 CG331   PT2P     1  0.240284293270  0.168973521997
 CG331   PU3P     1  0.318024115415  0.179522368790
 CG331   RA2P     1  0.355459679551  0.229891668540
 CG331   RH3P     1  0.210367914314  0.149983415617
 CG331    RUB     1  0.338541512893  0.162045623205
 CG331      S     1  0.347450500075  0.280671252536
 CG331     SC     1  0.356359487256  0.286840588481
 CG331   SC3P     1  0.266993436839  0.157109060719
 CG331  SEGD1     1  0.363041227642  0.330244580395
 CG331  SG2D1     1  0.351904993665  0.314496560236
 CG331  SG2P1     1  0.355798221064  0.332305491450
 CG331  SG2P2     1  0.352314807076  0.329421919951
 CG331 SG2R50     1  0.347450500075  0.280671252536
 CG331  SG301     1  0.345223253279  0.257919081884
 CG331  SG302     1  0.365268474438  0.286840588481
 CG331  SG311     1  0.347450500075  0.280671252536
 CG331  SG3O1     1  0.356359487256  0.286840588481
 CG331  SG3O2     1  0.347450500075  0.247528778125
 CG331  SG3O3     1  0.347450500075  0.247528778125
 CG331     SI     1  0.365268474438  0.324091246411
 CG331   SIH3     1  0.365268474438  0.324091246411
 CG331     SL     1  0.356359487256  0.286840588481
 CG331     SM     1  0.345223253279  0.257919081884
 CG331   SM2P     1  0.334666103469  0.207012887251
 CG331   SM3P     1  0.308847858618  0.175378986746
 CG331   SN2P     1  0.316981763914  0.181365662197
 CG331    SOD     1  0.294954293108  0.090610410351
 CG331     SP     1  0.365268474438  0.280671252536
 CG331   SR2P     1  0.334612649546  0.200133451797
 CG331     SS     1  0.365268474438  0.286840588481
 CG331   TB3P     1  0.300678317372  0.172155203837
 CG331   TI1P     1  0.341276571958  0.266826378666
 CG331   TI3P     1  0.243117351193  0.149983415617
 CG331   TL3P     1  0.246716582015  0.168869889039
 CG331   TM3P     1  0.289417357575  0.168402751521
 CG331    U3P     1  0.320830446377  0.182184255566
 CG331    V2P     1  0.267599247968  0.167830039933
 CG331    V3P     1  0.223989755715  0.147096016316
 CG331    Y3P     1  0.295190381269  0.170263611896
 CG331   YB2P     1  0.312616360195  0.189623385225
 CG331   YB3P     1  0.284659958420  0.167569069413
 CG331     ZN     1  0.266378716724  0.209200000000
 CG334  CG334     1  0.338541512893  0.041840000000
 CG334 CG3AM0     1  0.344777803920  0.110698234855
 CG334 CG3AM1     1  0.345668702638  0.116852760686
 CG334 CG3AM2     1  0.346559601357  0.118341390899
 CG334 CG3C31     1  0.338541512893  0.041840000000
 CG334 CG3C41     1  0.338541512893  0.041840000000
 CG334 CG3C50     1  0.338541512893  0.041840000000
 CG334 CG3C51     1  0.338541512893  0.041840000000
 CG334 CG3C52     1  0.338541512893  0.041840000000
 CG334 CG3C53     1  0.338541512893  0.041840000000
 CG334 CG3C54     1  0.338541512893  0.041840000000
 CG334 CG3RC1     1  0.338541512893  0.041840000000
 CG334     CL     1  0.347450500075  0.110698234855
 CG334    CLA     1  0.371504765465  0.162045623205
 CG334   CLAL     1  0.339272049842  0.072469005789
 CG334  CLG01     1  0.355468588538  0.109105371453
 CG334  CLG02     1  0.355468588538  0.109105371453
 CG334  CLG03     1  0.320723538531  0.130979917850
 CG334  CLG04     1  0.347450500075  0.110698234855
 CG334  CLG05     1  0.329632525712  0.102486650838
 CG334  CLG06     1  0.346773417049  0.110698234855
 CG334 CLG06A     1  0.346773417049  0.110698234855
 CG334 CLG06B     1  0.346773417049  0.110698234855
 CG334  CLG07     1  0.338541512893  0.125520000000
 CG334  CLG08     1  0.338541512893  0.132309697301
 CG334  CLG09     1  0.346773417049  0.110698234855
 CG334  CLG10     1  0.334977918021  0.131646486622
 CG334  CLG11     1  0.338541512893  0.041840000000
 CG334  CLG12     1  0.338541512893  0.041840000000
 CG334  CLG13     1  0.338541512893  0.041840000000
 CG334  CLG14     1  0.338541512893  0.041840000000
 CG334  CLG15     1  0.338541512893  0.041840000000
 CG334  CLG16     1  0.338541512893  0.041840000000
 CG334  CLGA1     1  0.339432411611  0.245040988571
 CG334  CLGA3     1  0.339432411611  0.232955260941
 CG334  CLGR1     1  0.334977918021  0.200657590935
 CG334     CM     1  0.356359487256  0.138767581228
 CG334     CN     1  0.325178032121  0.187114168357
 CG334    CN1     1  0.338541512893  0.132309697301
 CG334   CN1A     1  0.347450500075  0.110698234855
 CG334   CN1T     1  0.338541512893  0.132309697301
 CG334    CN2     1  0.338541512893  0.132309697301
 CG334    CN3     1  0.338541512893  0.125520000000
 CG334   CN3A     1  0.329632525712  0.177512086349
 CG334   CN3B     1  0.329632525712  0.177512086349
 CG334   CN3C     1  0.329632525712  0.177512086349
 CG334   CN3D     1  0.338541512893  0.125520000000
 CG334   CN3T     1  0.338541512893  0.125520000000
 CG334    CN4     1  0.338541512893  0.114583559030
 CG334    CN5     1  0.338541512893  0.114583559030
 CG334   CN5G     1  0.338541512893  0.114583559030
 CG334    CN6     1  0.338541512893  0.041840000000
 CG334    CN7     1  0.338541512893  0.041840000000
 CG334   CN7B     1  0.338541512893  0.041840000000
 CG334   CN7E     1  0.338541512893  0.041840000000
 CG334    CN8     1  0.338541512893  0.041840000000
 CG334   CN8B     1  0.338541512893  0.041840000000
 CG334    CN9     1  0.338541512893  0.041840000000
 CG334    CNA     1  0.346773417049  0.110698234855
 CG334   CNA2     1  0.338541512893  0.110698234855
 CG334   CNE1     1  0.355468588538  0.109105371453
 CG334   CNE2     1  0.354577689820  0.105847757841
 CG334    CNG     1  0.347450500075  0.138767581228
 CG334   CO2P     1  0.251910521541  0.164138698618
 CG334   CO3P     1  0.192264852362  0.144393471099
 CG334    COA     1  0.347450500075  0.138767581228
 CG334    CP1     1  0.338541512893  0.041840000000
 CG334    CP2     1  0.338541512893  0.041840000000
 CG334    CP3     1  0.338541512893  0.041840000000
 CG334    CPA     1  0.329632525712  0.125520000000
 CG334    CPB     1  0.329632525712  0.125520000000
 CG334   CPD1     1  0.338541512893  0.041840000000
 CG334   CPH1     1  0.329632525712  0.093557084179
 CG334   CPH2     1  0.329632525712  0.093557084179
 CG334    CPM     1  0.329632525712  0.125520000000
 CG334    CPT     1  0.334977918021  0.131646486622
 CG334   CR2P     1  0.263634748672  0.170828164985
 CG334   CR33     1  0.338541512893  0.041840000000
 CG334   CR3P     1  0.244382427373  0.145299904804
 CG334   CRL1     1  0.338541512893  0.041840000000
 CG334   CRL2     1  0.338541512893  0.041840000000
 CG334   CRN1     1  0.347450500075  0.138767581228
 CG334     CS     1  0.365268474438  0.138767581228
 CG334    CST     1  0.308518226092  0.100764063435
 CG334     CT     1  0.338541512893  0.041840000000
 CG334    CT1     1  0.338541512893  0.041840000000
 CG334   CT1X     1  0.338541512893  0.041840000000
 CG334    CT2     1  0.338541512893  0.041840000000
 CG334   CT2A     1  0.338541512893  0.041840000000
 CG334   CT2P     1  0.338541512893  0.041840000000
 CG334   CT2X     1  0.338541512893  0.041840000000
 CG334    CT3     1  0.338541512893  0.041840000000
 CG334   CT3X     1  0.338541512893  0.041840000000
 CG334   CTD1     1  0.338541512893  0.041840000000
 CG334   CTL1     1  0.338541512893  0.041840000000
 CG334   CTL2     1  0.338541512893  0.041840000000
 CG334   CTL3     1  0.338541512893  0.041840000000
 CG334   CTL5     1  0.338541512893  0.041840000000
 CG334   CTO1     1  0.338541512893  0.041840000000
 CG334   CTO2     1  0.338541512893  0.041840000000
 CG334     CU     1  0.285800308779  0.908997471504
 CG334   CU1P     1  0.246066225950  0.180057894334
 CG334   CU2P     1  0.233869822499  0.162315474555
 CG334     CY     1  0.346559601357  0.113045454929
 CG334    DUM     1  0.169270756447  0.000000000000
 CG334   DY3P     1  0.297952167295  0.171135318061
 CG334   ER3P     1  0.291083338178  0.169232326746
 CG334   EU2P     1  0.333231756533  0.203602227414
 CG334   EU3P     1  0.304954631219  0.174528477447
 CG334     F1     1  0.314487247504  0.153729976257
 CG334     F2     1  0.314487247504  0.135577095411
 CG334     F3     1  0.311814551349  0.130309939452
 CG334     FA     1  0.320723538531  0.144938011577
 CG334     FE     1  0.227179173126  0.000000000000
 CG334   FE2P     1  0.265496726993  0.167098295383
 CG334   FE3P     1  0.219722350855  0.148045032716
 CG334   FGA1     1  0.314487247504  0.153729976257
 CG334   FGA2     1  0.314487247504  0.135577095411
 CG334   FGA3     1  0.311814551349  0.130309939452
 CG334   FGP1     1  0.311814551349  0.130309939452
 CG334   FGR1     1  0.320723538531  0.144938011577
 CG334    FNA     1  0.320723538531  0.144938011577
 CG334   GA3P     1  0.189485248361  0.145299904804
 CG334   GD3P     1  0.303351013527  0.173673803114
 CG334      H     1  0.189271432669  0.089736802707
 CG334     HA     1  0.286869387241  0.062058748940
 CG334    HA1     1  0.288651184677  0.088756043175
 CG334    HA2     1  0.288651184677  0.077149148019
 CG334    HA3     1  0.288651184677  0.064818249282
 CG334    HAL     1  0.286869387241  0.062058748940
 CG334   HAL1     1  0.286869387241  0.062058748940
 CG334   HAL2     1  0.288651184677  0.070011711020
 CG334   HAL3     1  0.288651184677  0.064818249282
 CG334     HB     1  0.286869387241  0.062058748940
 CG334    HB1     1  0.286869387241  0.062058748940
 CG334    HB2     1  0.288651184677  0.070011711020
 CG334    HBL     1  0.286869387241  0.062058748940
 CG334     HC     1  0.189271432669  0.089736802707
 CG334   HCA1     1  0.288651184677  0.088756043175
 CG334  HCA1A     1  0.288651184677  0.088756043175
 CG334 HCA1C2     1  0.288651184677  0.088756043175
 CG334   HCA2     1  0.288651184677  0.078275472531
 CG334 HCA25A     1  0.285087589805  0.078275472531
 CG334  HCA2A     1  0.288651184677  0.078275472531
 CG334 HCA2C2     1  0.285087589805  0.078275472531
 CG334   HCA3     1  0.288651184677  0.064818249282
 CG334  HCA3A     1  0.288651184677  0.064818249282
 CG334  HCA3M     1  0.288651184677  0.064818249282
 CG334    HCL     1  0.189271432669  0.089736802707
 CG334   HCP1     1  0.189271432669  0.089736802707
 CG334  HCP1M     1  0.189271432669  0.089736802707
 CG334   HCR1     1  0.240542653898  0.089736802707
 CG334     HE     1  0.301123766731  0.061020452073
 CG334    HE1     1  0.280633096214  0.073666921749
 CG334    HE2     1  0.281523994932  0.067464972838
 CG334   HEL1     1  0.280633096214  0.073666921749
 CG334   HEL2     1  0.281523994932  0.067464972838
 CG334    HF1     1  0.286869387241  0.070011711020
 CG334    HF2     1  0.285087589805  0.072469005789
 CG334   HG2P     1  0.274557166956  0.189623385225
 CG334   HGA1     1  0.288651184677  0.088756043175
 CG334   HGA2     1  0.288651184677  0.078275472531
 CG334   HGA3     1  0.288651184677  0.064818249282
 CG334   HGA4     1  0.280633096214  0.073666921749
 CG334   HGA5     1  0.281523994932  0.067464972838
 CG334   HGA6     1  0.286869387241  0.070011711020
 CG334   HGA7     1  0.285087589805  0.072469005789
 CG334 HGAAM0     1  0.283305792369  0.070011711020
 CG334 HGAAM1     1  0.283305792369  0.070011711020
 CG334 HGAAM2     1  0.281523994932  0.083680000000
 CG334   HGP1     1  0.189271432669  0.089736802707
 CG334   HGP2     1  0.189271432669  0.089736802707
 CG334   HGP3     1  0.209361198763  0.132309697301
 CG334   HGP4     1  0.189271432669  0.089736802707
 CG334   HGP5     1  0.231633666716  0.089736802707
 CG334 HGPAM1     1  0.247224394284  0.039692909190
 CG334 HGPAM2     1  0.247224394284  0.041840000000
 CG334 HGPAM3     1  0.246778944925  0.045833423612
 CG334  HGR51     1  0.290272620344  0.072469005789
 CG334  HGR52     1  0.249451641079  0.089736802707
 CG334  HGR53     1  0.231633666716  0.089736802707
 CG334  HGR61     1  0.290272620344  0.072469005789
 CG334  HGR62     1  0.267269615442  0.089736802707
 CG334  HGR63     1  0.249451641079  0.089736802707
 CG334  HGR71     1  0.290272620344  0.072469005789
 CG334     HL     1  0.231633666716  0.089736802707
 CG334  HLGA1     1  0.288651184677  0.088756043175
 CG334  HLGA2     1  0.288651184677  0.078275472531
 CG334  HLGA3     1  0.288651184677  0.064818249282
 CG334  HLGA4     1  0.280633096214  0.073666921749
 CG334  HLGP1     1  0.189271432669  0.089736802707
 CG334 HLGR52     1  0.249451641079  0.089736802707
 CG334 HLGR61     1  0.290272620344  0.072469005789
 CG334 HLGR62     1  0.267269615442  0.089736802707
 CG334    HN1     1  0.189271432669  0.089736802707
 CG334    HN2     1  0.189271432669  0.089736802707
 CG334    HN3     1  0.267269615442  0.089736802707
 CG334   HN3B     1  0.249451641079  0.089736802707
 CG334    HN4     1  0.189271432669  0.089736802707
 CG334    HN5     1  0.189271432669  0.089736802707
 CG334    HN6     1  0.286869387241  0.062058748940
 CG334    HN7     1  0.286869387241  0.062058748940
 CG334    HN8     1  0.288651184677  0.070011711020
 CG334    HN9     1  0.288651184677  0.064818249282
 CG334   HNE1     1  0.280633096214  0.073666921749
 CG334   HNE2     1  0.281523994932  0.067464972838
 CG334    HNP     1  0.290272620344  0.072469005789
 CG334   HO3P     1  0.293168041178  0.170263611896
 CG334    HOL     1  0.189271432669  0.089736802707
 CG334     HP     1  0.290272620344  0.072469005789
 CG334   HPER     1  0.189271432669  0.089736802707
 CG334    HR1     1  0.249451641079  0.089736802707
 CG334    HR2     1  0.231633666716  0.089736802707
 CG334    HR3     1  0.300054688270  0.036952087465
 CG334   HRA3     1  0.288651184677  0.064818249282
 CG334   HRM1     1  0.247224394284  0.039692909190
 CG334   HRM2     1  0.247224394284  0.041840000000
 CG334   HRP2     1  0.189271432669  0.089736802707
 CG334     HS     1  0.209361198763  0.132309697301
 CG334   HSIA     1  0.286869387241  0.062058748940
 CG334   HSIO     1  0.189271432669  0.089736802707
 CG334     HT     1  0.189271432669  0.089736802707
 CG334     HX     1  0.189271432669  0.089736802707
 CG334   IGR1     1  0.368832069310  0.301712530731
 CG334   IN3P     1  0.246449312399  0.160580590010
 CG334   LA3P     1  0.327200372211  0.182184255566
 CG334    LIT     1  0.284864865125  0.020196198771
 CG334    LPH     1  0.169270756447  0.000000000000
 CG334   LU3P     1  0.289648991242  0.166731218816
 CG334     MG     1  0.274842254546  0.051243325419
 CG334   MN2P     1  0.276508235149  0.171747976291
 CG334   MN3P     1  0.203516903172  0.148045032716
 CG334      N     1  0.334087019303  0.004184000000
 CG334     NC     1  0.334087019303  0.324091246411
 CG334    NC2     1  0.334087019303  0.187114168357
 CG334  NC2D1     1  0.307360057758  0.187114168357
 CG334  NC311     1  0.347450500075  0.088756043175
 CG334   ND3P     1  0.313587439798  0.177117175768
 CG334     NE     1  0.305578260322  0.122698965603
 CG334  NG1T1     1  0.328741626994  0.177512086349
 CG334  NG2D1     1  0.334087019303  0.187114168357
 CG334  NG2O1     1  0.334087019303  0.187114168357
 CG334  NG2P1     1  0.334087019303  0.187114168357
 CG334 NG2R43     1  0.334087019303  0.187114168357
 CG334 NG2R50     1  0.334087019303  0.187114168357
 CG334 NG2R51     1  0.334087019303  0.187114168357
 CG334 NG2R52     1  0.334087019303  0.187114168357
 CG334 NG2R53     1  0.334087019303  0.187114168357
 CG334 NG2R57     1  0.334087019303  0.187114168357
 CG334 NG2R60     1  0.337650614175  0.102486650838
 CG334 NG2R61     1  0.334087019303  0.187114168357
 CG334 NG2R62     1  0.352795892384  0.093557084179
 CG334 NG2R67     1  0.334087019303  0.187114168357
 CG334 NG2RC0     1  0.334087019303  0.187114168357
 CG334  NG2S0     1  0.334087019303  0.004184000000
 CG334  NG2S1     1  0.307360057758  0.187114168357
 CG334  NG2S2     1  0.334087019303  0.187114168357
 CG334  NG2S3     1  0.334087019303  0.187114168357
 CG334  NG301     1  0.347450500075  0.078275472531
 CG334  NG311     1  0.347450500075  0.088756043175
 CG334  NG321     1  0.346559601357  0.102486650838
 CG334  NG331     1  0.345668702638  0.110698234855
 CG334 NG3C51     1  0.334087019303  0.187114168357
 CG334  NG3N1     1  0.351904993665  0.102486650838
 CG334  NG3P0     1  0.334087019303  0.187114168357
 CG334  NG3P1     1  0.334087019303  0.187114168357
 CG334  NG3P2     1  0.334087019303  0.187114168357
 CG334  NG3P3     1  0.334087019303  0.187114168357
 CG334    NH1     1  0.307360057758  0.187114168357
 CG334    NH2     1  0.334087019303  0.187114168357
 CG334    NH3     1  0.334087019303  0.187114168357
 CG334   NH3L     1  0.334087019303  0.187114168357
 CG334    NHL     1  0.307360057758  0.187114168357
 CG334     NI     1  0.282949432881  0.994525446633
 CG334   NI2P     1  0.238787583423  0.158440517242
 CG334    NN1     1  0.334087019303  0.187114168357
 CG334   NN1C     1  0.334087019303  0.187114168357
 CG334    NN2     1  0.334087019303  0.187114168357
 CG334   NN2B     1  0.334087019303  0.187114168357
 CG334   NN2C     1  0.334087019303  0.187114168357
 CG334   NN2G     1  0.334087019303  0.187114168357
 CG334   NN2U     1  0.334087019303  0.187114168357
 CG334    NN3     1  0.334087019303  0.187114168357
 CG334   NN3A     1  0.334087019303  0.187114168357
 CG334   NN3G     1  0.334087019303  0.187114168357
 CG334   NN3I     1  0.334087019303  0.187114168357
 CG334    NN4     1  0.334087019303  0.187114168357
 CG334    NN6     1  0.334087019303  0.187114168357
 CG334    NNG     1  0.334087019303  0.187114168357
 CG334     NP     1  0.334087019303  0.187114168357
 CG334    NPH     1  0.334087019303  0.187114168357
 CG334    NR1     1  0.334087019303  0.187114168357
 CG334    NR2     1  0.334087019303  0.187114168357
 CG334    NR3     1  0.334087019303  0.187114168357
 CG334   NRC4     1  0.334087019303  0.187114168357
 CG334   NRN1     1  0.347450500075  0.280671252536
 CG334   NRN2     1  0.346559601357  0.102486650838
 CG334    NS1     1  0.334087019303  0.187114168357
 CG334    NS2     1  0.334087019303  0.187114168357
 CG334    NTL     1  0.334087019303  0.187114168357
 CG334     NY     1  0.334087019303  0.187114168357
 CG334      O     1  0.293996576986  0.144938011577
 CG334    O2L     1  0.320723538531  0.144938011577
 CG334    OAL     1  0.326959829558  0.163176000000
 CG334     OB     1  0.293996576986  0.144938011577
 CG334    OBL     1  0.293996576986  0.144938011577
 CG334     OC     1  0.320723538531  0.144938011577
 CG334  OC2D1     1  0.293996576986  0.144938011577
 CG334  OC2D2     1  0.320723538531  0.144938011577
 CG334  OC2D3     1  0.293996576986  0.144938011577
 CG334  OC2D4     1  0.293996576986  0.144938011577
 CG334  OC2DP     1  0.320723538531  0.144938011577
 CG334  OC301     1  0.316269044940  0.132309697301
 CG334  OC302     1  0.316269044940  0.132309697301
 CG334  OC303     1  0.316269044940  0.132309697301
 CG334 OC305A     1  0.316269044940  0.132309697301
 CG334  OC30A     1  0.316269044940  0.132309697301
 CG334  OC30P     1  0.326959829558  0.163176000000
 CG334  OC311     1  0.326514380198  0.183381431383
 CG334 OC311M     1  0.326514380198  0.183381431383
 CG334  OC312     1  0.326959829558  0.163176000000
 CG334 OC3C51     1  0.316269044940  0.132309697301
 CG334 OC3C5M     1  0.316269044940  0.132309697301
 CG334 OC3C61     1  0.316269044940  0.132309697301
 CG334    OCA     1  0.293996576986  0.144938011577
 CG334    OCL     1  0.320723538531  0.144938011577
 CG334  OG2D1     1  0.293996576986  0.144938011577
 CG334  OG2D2     1  0.320723538531  0.144938011577
 CG334  OG2D3     1  0.293996576986  0.144938011577
 CG334  OG2D4     1  0.320723538531  0.144938011577
 CG334  OG2D5     1  0.320010819556  0.169954883425
 CG334  OG2N1     1  0.320723538531  0.144938011577
 CG334  OG2P1     1  0.320723538531  0.144938011577
 CG334 OG2R50     1  0.320723538531  0.144938011577
 CG334  OG2S1     1  0.318906105146  0.157831660601
 CG334  OG301     1  0.316269044940  0.132309697301
 CG334  OG302     1  0.316269044940  0.132309697301
 CG334  OG303     1  0.316269044940  0.132309697301
 CG334  OG304     1  0.316269044940  0.132309697301
 CG334  OG311     1  0.326514380198  0.183381431383
 CG334  OG312     1  0.325178032121  0.144938011577
 CG334 OG3C31     1  0.316269044940  0.132309697301
 CG334 OG3C51     1  0.316269044940  0.132309697301
 CG334 OG3C61     1  0.316269044940  0.132309697301
 CG334 OG3R60     1  0.316269044940  0.132309697301
 CG334    OH1     1  0.326959829558  0.163176000000
 CG334    OHL     1  0.326959829558  0.163176000000
 CG334   OLG1     1  0.293996576986  0.144938011577
 CG334   OLG2     1  0.320723538531  0.144938011577
 CG334   OLG3     1  0.320723538531  0.144938011577
 CG334   OLG4     1  0.316269044940  0.132309697301
 CG334   OLG5     1  0.316269044940  0.132309697301
 CG334   OLG6     1  0.326514380198  0.183381431383
 CG334   OLG7     1  0.316269044940  0.132309697301
 CG334   OLG8     1  0.316269044940  0.132309697301
 CG334     OM     1  0.320723538531  0.144938011577
 CG334    ON1     1  0.320723538531  0.144938011577
 CG334   ON1C     1  0.320723538531  0.144938011577
 CG334    ON2     1  0.326959829558  0.163176000000
 CG334   ON2B     1  0.326959829558  0.163176000000
 CG334   ON2M     1  0.316269044940  0.132309697301
 CG334    ON3     1  0.320723538531  0.144938011577
 CG334    ON4     1  0.326959829558  0.163176000000
 CG334    ON5     1  0.326959829558  0.163176000000
 CG334    ON6     1  0.326959829558  0.163176000000
 CG334   ON6B     1  0.326959829558  0.163176000000
 CG334   OPER     1  0.318427692534  0.188901923946
 CG334     OS     1  0.326959829558  0.163176000000
 CG334   OSIA     1  0.326959829558  0.163176000000
 CG334   OSIE     1  0.326959829558  0.163176000000
 CG334   OSIH     1  0.326959829558  0.163176000000
 CG334    OSL     1  0.316269044940  0.132309697301
 CG334   OSLP     1  0.316269044940  0.132309697301
 CG334    OST     1  0.320010819556  0.169954883425
 CG334     OT     1  0.326799467788  0.163176000000
 CG334     OX     1  0.320723538531  0.144938011577
 CG334      P     1  0.360813980847  0.320014464673
 CG334     P2     1  0.360813980847  0.320014464673
 CG334     P3     1  0.360813980847  0.320014464673
 CG334     P4     1  0.360813980847  0.320014464673
 CG334     PB     1  0.328073452955  0.716185437439
 CG334   PB2P     1  0.325890751096  0.204716924713
 CG334     PC     1  0.360813980847  0.320014464673
 CG334     PD     1  0.294842930769  1.037598257516
 CG334   PD2P     1  0.251865976605  0.174628752363
 CG334    PG0     1  0.360813980847  0.320014464673
 CG334    PG1     1  0.360813980847  0.320014464673
 CG334    PG2     1  0.360813980847  0.320014464673
 CG334     PL     1  0.360813980847  0.320014464673
 CG334   PM3P     1  0.316910492017  0.176275053255
 CG334    POT     1  0.326403017859  0.123410269913
 CG334   PR3P     1  0.317079762773  0.178642591472
 CG334     PT     1  0.296001099102  1.168527606863
 CG334   PT2P     1  0.240284293270  0.168973521997
 CG334   PU3P     1  0.318024115415  0.179522368790
 CG334   RA2P     1  0.355459679551  0.229891668540
 CG334   RH3P     1  0.210367914314  0.149983415617
 CG334    RUB     1  0.338541512893  0.162045623205
 CG334      S     1  0.347450500075  0.280671252536
 CG334     SC     1  0.356359487256  0.286840588481
 CG334   SC3P     1  0.266993436839  0.157109060719
 CG334  SEGD1     1  0.363041227642  0.330244580395
 CG334  SG2D1     1  0.351904993665  0.314496560236
 CG334  SG2P1     1  0.355798221064  0.332305491450
 CG334  SG2P2     1  0.352314807076  0.329421919951
 CG334 SG2R50     1  0.347450500075  0.280671252536
 CG334  SG301     1  0.345223253279  0.257919081884
 CG334  SG302     1  0.365268474438  0.286840588481
 CG334  SG311     1  0.347450500075  0.280671252536
 CG334  SG3O1     1  0.356359487256  0.286840588481
 CG334  SG3O2     1  0.347450500075  0.247528778125
 CG334  SG3O3     1  0.347450500075  0.247528778125
 CG334     SI     1  0.365268474438  0.324091246411
 CG334   SIH3     1  0.365268474438  0.324091246411
 CG334     SL     1  0.356359487256  0.286840588481
 CG334     SM     1  0.345223253279  0.257919081884
 CG334   SM2P     1  0.334666103469  0.207012887251
 CG334   SM3P     1  0.308847858618  0.175378986746
 CG334   SN2P     1  0.316981763914  0.181365662197
 CG334    SOD     1  0.294954293108  0.090610410351
 CG334     SP     1  0.365268474438  0.280671252536
 CG334   SR2P     1  0.334612649546  0.200133451797
 CG334     SS     1  0.365268474438  0.286840588481
 CG334   TB3P     1  0.300678317372  0.172155203837
 CG334   TI1P     1  0.341276571958  0.266826378666
 CG334   TI3P     1  0.243117351193  0.149983415617
 CG334   TL3P     1  0.246716582015  0.168869889039
 CG334   TM3P     1  0.289417357575  0.168402751521
 CG334    U3P     1  0.320830446377  0.182184255566
 CG334    V2P     1  0.267599247968  0.167830039933
 CG334    V3P     1  0.223989755715  0.147096016316
 CG334    Y3P     1  0.295190381269  0.170263611896
 CG334   YB2P     1  0.312616360195  0.189623385225
 CG334   YB3P     1  0.284659958420  0.167569069413
 CG334     ZN     1  0.266378716724  0.209200000000
CG3AM0 CG3C31     1  0.344777803920  0.110698234855
CG3AM0 CG3C41     1  0.344777803920  0.110698234855
CG3AM0 CG3C50     1  0.344777803920  0.110698234855
CG3AM0 CG3C51     1  0.344777803920  0.110698234855
CG3AM0 CG3C52     1  0.344777803920  0.110698234855
CG3AM0 CG3C53     1  0.344777803920  0.110698234855
CG3AM0 CG3C54     1  0.344777803920  0.110698234855
CG3AM0 CG3RC1     1  0.344777803920  0.110698234855
CG3AM0  CLG11     1  0.344777803920  0.110698234855
CG3AM0  CLG12     1  0.344777803920  0.110698234855
CG3AM0  CLG13     1  0.344777803920  0.110698234855
CG3AM0  CLG14     1  0.344777803920  0.110698234855
CG3AM0  CLG15     1  0.344777803920  0.110698234855
CG3AM0  CLG16     1  0.344777803920  0.110698234855
CG3AM0    CN6     1  0.344777803920  0.110698234855
CG3AM0    CN7     1  0.344777803920  0.110698234855
CG3AM0   CN7B     1  0.344777803920  0.110698234855
CG3AM0   CN7E     1  0.344777803920  0.110698234855
CG3AM0    CN8     1  0.344777803920  0.110698234855
CG3AM0   CN8B     1  0.344777803920  0.110698234855
CG3AM0    CN9     1  0.344777803920  0.110698234855
CG3AM0    CP1     1  0.344777803920  0.110698234855
CG3AM0    CP2     1  0.344777803920  0.110698234855
CG3AM0    CP3     1  0.344777803920  0.110698234855
CG3AM0   CPD1     1  0.344777803920  0.110698234855
CG3AM0   CR33     1  0.344777803920  0.110698234855
CG3AM0   CRL1     1  0.344777803920  0.110698234855
CG3AM0   CRL2     1  0.344777803920  0.110698234855
CG3AM0     CT     1  0.344777803920  0.110698234855
CG3AM0    CT1     1  0.344777803920  0.110698234855
CG3AM0   CT1X     1  0.344777803920  0.110698234855
CG3AM0    CT2     1  0.344777803920  0.110698234855
CG3AM0   CT2A     1  0.344777803920  0.110698234855
CG3AM0   CT2P     1  0.344777803920  0.110698234855
CG3AM0   CT2X     1  0.344777803920  0.110698234855
CG3AM0    CT3     1  0.344777803920  0.110698234855
CG3AM0   CT3X     1  0.344777803920  0.110698234855
CG3AM0   CTD1     1  0.344777803920  0.110698234855
CG3AM0   CTL1     1  0.344777803920  0.110698234855
CG3AM0   CTL2     1  0.344777803920  0.110698234855
CG3AM0   CTL3     1  0.344777803920  0.110698234855
CG3AM0   CTL5     1  0.344777803920  0.110698234855
CG3AM0   CTO1     1  0.344777803920  0.110698234855
CG3AM0   CTO2     1  0.344777803920  0.110698234855
CG3AM0     HP     1  0.296508911371  0.191734967077
CG3AM0      N     1  0.340323310330  0.011069823485
CG3AM0  NC2D1     1  0.313596348785  0.495057556250
CG3AM0  NG2S0     1  0.340323310330  0.011069823485
CG3AM0  NG2S1     1  0.313596348785  0.495057556250
CG3AM0    NH1     1  0.313596348785  0.495057556250
CG3AM0    NHL     1  0.313596348785  0.495057556250
CG3AM0      O     1  0.300232868013  0.383469934154
CG3AM0     OB     1  0.300232868013  0.383469934154
CG3AM0    OBL     1  0.300232868013  0.383469934154
CG3AM0  OC2D1     1  0.300232868013  0.383469934154
CG3AM0  OC2D3     1  0.300232868013  0.383469934154
CG3AM0  OC2D4     1  0.300232868013  0.383469934154
CG3AM0    OCA     1  0.300232868013  0.383469934154
CG3AM0  OG2D1     1  0.300232868013  0.383469934154
CG3AM0  OG2D3     1  0.300232868013  0.383469934154
CG3AM0   OLG1     1  0.300232868013  0.383469934154
CG3AM1 CG3C31     1  0.345668702638  0.116852760686
CG3AM1 CG3C41     1  0.345668702638  0.116852760686
CG3AM1 CG3C50     1  0.345668702638  0.116852760686
CG3AM1 CG3C51     1  0.345668702638  0.116852760686
CG3AM1 CG3C52     1  0.345668702638  0.116852760686
CG3AM1 CG3C53     1  0.345668702638  0.116852760686
CG3AM1 CG3C54     1  0.345668702638  0.116852760686
CG3AM1 CG3RC1     1  0.345668702638  0.116852760686
CG3AM1  CLG11     1  0.345668702638  0.116852760686
CG3AM1  CLG12     1  0.345668702638  0.116852760686
CG3AM1  CLG13     1  0.345668702638  0.116852760686
CG3AM1  CLG14     1  0.345668702638  0.116852760686
CG3AM1  CLG15     1  0.345668702638  0.116852760686
CG3AM1  CLG16     1  0.345668702638  0.116852760686
CG3AM1    CN6     1  0.345668702638  0.116852760686
CG3AM1    CN7     1  0.345668702638  0.116852760686
CG3AM1   CN7B     1  0.345668702638  0.116852760686
CG3AM1   CN7E     1  0.345668702638  0.116852760686
CG3AM1    CN8     1  0.345668702638  0.116852760686
CG3AM1   CN8B     1  0.345668702638  0.116852760686
CG3AM1    CN9     1  0.345668702638  0.116852760686
CG3AM1    CP1     1  0.345668702638  0.116852760686
CG3AM1    CP2     1  0.345668702638  0.116852760686
CG3AM1    CP3     1  0.345668702638  0.116852760686
CG3AM1   CPD1     1  0.345668702638  0.116852760686
CG3AM1   CR33     1  0.345668702638  0.116852760686
CG3AM1   CRL1     1  0.345668702638  0.116852760686
CG3AM1   CRL2     1  0.345668702638  0.116852760686
CG3AM1     CT     1  0.345668702638  0.116852760686
CG3AM1    CT1     1  0.345668702638  0.116852760686
CG3AM1   CT1X     1  0.345668702638  0.116852760686
CG3AM1    CT2     1  0.345668702638  0.116852760686
CG3AM1   CT2A     1  0.345668702638  0.116852760686
CG3AM1   CT2P     1  0.345668702638  0.116852760686
CG3AM1   CT2X     1  0.345668702638  0.116852760686
CG3AM1    CT3     1  0.345668702638  0.116852760686
CG3AM1   CT3X     1  0.345668702638  0.116852760686
CG3AM1   CTD1     1  0.345668702638  0.116852760686
CG3AM1   CTL1     1  0.345668702638  0.116852760686
CG3AM1   CTL2     1  0.345668702638  0.116852760686
CG3AM1   CTL3     1  0.345668702638  0.116852760686
CG3AM1   CTL5     1  0.345668702638  0.116852760686
CG3AM1   CTO1     1  0.345668702638  0.116852760686
CG3AM1   CTO2     1  0.345668702638  0.116852760686
CG3AM1     HP     1  0.297399810090  0.202394918513
CG3AM1      N     1  0.341214209048  0.011685276069
CG3AM1  NC2D1     1  0.314487247504  0.522581432506
CG3AM1  NG2S0     1  0.341214209048  0.011685276069
CG3AM1  NG2S1     1  0.314487247504  0.522581432506
CG3AM1    NH1     1  0.314487247504  0.522581432506
CG3AM1    NHL     1  0.314487247504  0.522581432506
CG3AM1      O     1  0.301123766731  0.404789837027
CG3AM1     OB     1  0.301123766731  0.404789837027
CG3AM1    OBL     1  0.301123766731  0.404789837027
CG3AM1  OC2D1     1  0.301123766731  0.404789837027
CG3AM1  OC2D3     1  0.301123766731  0.404789837027
CG3AM1  OC2D4     1  0.301123766731  0.404789837027
CG3AM1    OCA     1  0.301123766731  0.404789837027
CG3AM1  OG2D1     1  0.301123766731  0.404789837027
CG3AM1  OG2D3     1  0.301123766731  0.404789837027
CG3AM1   OLG1     1  0.301123766731  0.404789837027
CG3AM2 CG3C31     1  0.346559601357  0.118341390899
CG3AM2 CG3C41     1  0.346559601357  0.118341390899
CG3AM2 CG3C50     1  0.346559601357  0.118341390899
CG3AM2 CG3C51     1  0.346559601357  0.118341390899
CG3AM2 CG3C52     1  0.346559601357  0.118341390899
CG3AM2 CG3C53     1  0.346559601357  0.118341390899
CG3AM2 CG3C54     1  0.346559601357  0.118341390899
CG3AM2 CG3RC1     1  0.346559601357  0.118341390899
CG3AM2  CLG11     1  0.346559601357  0.118341390899
CG3AM2  CLG12     1  0.346559601357  0.118341390899
CG3AM2  CLG13     1  0.346559601357  0.118341390899
CG3AM2  CLG14     1  0.346559601357  0.118341390899
CG3AM2  CLG15     1  0.346559601357  0.118341390899
CG3AM2  CLG16     1  0.346559601357  0.118341390899
CG3AM2    CN6     1  0.346559601357  0.118341390899
CG3AM2    CN7     1  0.346559601357  0.118341390899
CG3AM2   CN7B     1  0.346559601357  0.118341390899
CG3AM2   CN7E     1  0.346559601357  0.118341390899
CG3AM2    CN8     1  0.346559601357  0.118341390899
CG3AM2   CN8B     1  0.346559601357  0.118341390899
CG3AM2    CN9     1  0.346559601357  0.118341390899
CG3AM2    CP1     1  0.346559601357  0.118341390899
CG3AM2    CP2     1  0.346559601357  0.118341390899
CG3AM2    CP3     1  0.346559601357  0.118341390899
CG3AM2   CPD1     1  0.346559601357  0.118341390899
CG3AM2   CR33     1  0.346559601357  0.118341390899
CG3AM2   CRL1     1  0.346559601357  0.118341390899
CG3AM2   CRL2     1  0.346559601357  0.118341390899
CG3AM2     CT     1  0.346559601357  0.118341390899
CG3AM2    CT1     1  0.346559601357  0.118341390899
CG3AM2   CT1X     1  0.346559601357  0.118341390899
CG3AM2    CT2     1  0.346559601357  0.118341390899
CG3AM2   CT2A     1  0.346559601357  0.118341390899
CG3AM2   CT2P     1  0.346559601357  0.118341390899
CG3AM2   CT2X     1  0.346559601357  0.118341390899
CG3AM2    CT3     1  0.346559601357  0.118341390899
CG3AM2   CT3X     1  0.346559601357  0.118341390899
CG3AM2   CTD1     1  0.346559601357  0.118341390899
CG3AM2   CTL1     1  0.346559601357  0.118341390899
CG3AM2   CTL2     1  0.346559601357  0.118341390899
CG3AM2   CTL3     1  0.346559601357  0.118341390899
CG3AM2   CTL5     1  0.346559601357  0.118341390899
CG3AM2   CTO1     1  0.346559601357  0.118341390899
CG3AM2   CTO2     1  0.346559601357  0.118341390899
CG3AM2     HP     1  0.298290708808  0.204973301676
CG3AM2      N     1  0.342105107766  0.011834139090
CG3AM2  NC2D1     1  0.315378146222  0.529238789206
CG3AM2  NG2S0     1  0.342105107766  0.011834139090
CG3AM2  NG2S1     1  0.315378146222  0.529238789206
CG3AM2    NH1     1  0.315378146222  0.529238789206
CG3AM2    NHL     1  0.315378146222  0.529238789206
CG3AM2      O     1  0.302014665450  0.409946603352
CG3AM2     OB     1  0.302014665450  0.409946603352
CG3AM2    OBL     1  0.302014665450  0.409946603352
CG3AM2  OC2D1     1  0.302014665450  0.409946603352
CG3AM2  OC2D3     1  0.302014665450  0.409946603352
CG3AM2  OC2D4     1  0.302014665450  0.409946603352
CG3AM2    OCA     1  0.302014665450  0.409946603352
CG3AM2  OG2D1     1  0.302014665450  0.409946603352
CG3AM2  OG2D3     1  0.302014665450  0.409946603352
CG3AM2   OLG1     1  0.302014665450  0.409946603352
CG3C31 CG3C31     1  0.338541512893  0.041840000000
CG3C31 CG3C41     1  0.338541512893  0.041840000000
CG3C31 CG3C50     1  0.338541512893  0.041840000000
CG3C31 CG3C51     1  0.338541512893  0.041840000000
CG3C31 CG3C52     1  0.338541512893  0.041840000000
CG3C31 CG3C53     1  0.338541512893  0.041840000000
CG3C31 CG3C54     1  0.338541512893  0.041840000000
CG3C31 CG3RC1     1  0.338541512893  0.041840000000
CG3C31     CL     1  0.347450500075  0.110698234855
CG3C31    CLA     1  0.371504765465  0.162045623205
CG3C31   CLAL     1  0.339272049842  0.072469005789
CG3C31  CLG01     1  0.355468588538  0.109105371453
CG3C31  CLG02     1  0.355468588538  0.109105371453
CG3C31  CLG03     1  0.320723538531  0.130979917850
CG3C31  CLG04     1  0.347450500075  0.110698234855
CG3C31  CLG05     1  0.329632525712  0.102486650838
CG3C31  CLG06     1  0.346773417049  0.110698234855
CG3C31 CLG06A     1  0.346773417049  0.110698234855
CG3C31 CLG06B     1  0.346773417049  0.110698234855
CG3C31  CLG07     1  0.338541512893  0.125520000000
CG3C31  CLG08     1  0.338541512893  0.132309697301
CG3C31  CLG09     1  0.346773417049  0.110698234855
CG3C31  CLG10     1  0.334977918021  0.131646486622
CG3C31  CLG11     1  0.338541512893  0.041840000000
CG3C31  CLG12     1  0.338541512893  0.041840000000
CG3C31  CLG13     1  0.338541512893  0.041840000000
CG3C31  CLG14     1  0.338541512893  0.041840000000
CG3C31  CLG15     1  0.338541512893  0.041840000000
CG3C31  CLG16     1  0.338541512893  0.041840000000
CG3C31  CLGA1     1  0.339432411611  0.245040988571
CG3C31  CLGA3     1  0.339432411611  0.232955260941
CG3C31  CLGR1     1  0.334977918021  0.200657590935
CG3C31     CM     1  0.356359487256  0.138767581228
CG3C31     CN     1  0.325178032121  0.187114168357
CG3C31    CN1     1  0.338541512893  0.132309697301
CG3C31   CN1A     1  0.347450500075  0.110698234855
CG3C31   CN1T     1  0.338541512893  0.132309697301
CG3C31    CN2     1  0.338541512893  0.132309697301
CG3C31    CN3     1  0.338541512893  0.125520000000
CG3C31   CN3A     1  0.329632525712  0.177512086349
CG3C31   CN3B     1  0.329632525712  0.177512086349
CG3C31   CN3C     1  0.329632525712  0.177512086349
CG3C31   CN3D     1  0.338541512893  0.125520000000
CG3C31   CN3T     1  0.338541512893  0.125520000000
CG3C31    CN4     1  0.338541512893  0.114583559030
CG3C31    CN5     1  0.338541512893  0.114583559030
CG3C31   CN5G     1  0.338541512893  0.114583559030
CG3C31    CN6     1  0.338541512893  0.041840000000
CG3C31    CN7     1  0.338541512893  0.041840000000
CG3C31   CN7B     1  0.338541512893  0.041840000000
CG3C31   CN7E     1  0.338541512893  0.041840000000
CG3C31    CN8     1  0.338541512893  0.041840000000
CG3C31   CN8B     1  0.338541512893  0.041840000000
CG3C31    CN9     1  0.338541512893  0.041840000000
CG3C31    CNA     1  0.346773417049  0.110698234855
CG3C31   CNA2     1  0.338541512893  0.110698234855
CG3C31   CNE1     1  0.355468588538  0.109105371453
CG3C31   CNE2     1  0.354577689820  0.105847757841
CG3C31    CNG     1  0.347450500075  0.138767581228
CG3C31   CO2P     1  0.251910521541  0.164138698618
CG3C31   CO3P     1  0.192264852362  0.144393471099
CG3C31    COA     1  0.347450500075  0.138767581228
CG3C31    CP1     1  0.338541512893  0.041840000000
CG3C31    CP2     1  0.338541512893  0.041840000000
CG3C31    CP3     1  0.338541512893  0.041840000000
CG3C31    CPA     1  0.329632525712  0.125520000000
CG3C31    CPB     1  0.329632525712  0.125520000000
CG3C31   CPD1     1  0.338541512893  0.041840000000
CG3C31   CPH1     1  0.329632525712  0.093557084179
CG3C31   CPH2     1  0.329632525712  0.093557084179
CG3C31    CPM     1  0.329632525712  0.125520000000
CG3C31    CPT     1  0.334977918021  0.131646486622
CG3C31   CR2P     1  0.263634748672  0.170828164985
CG3C31   CR33     1  0.338541512893  0.041840000000
CG3C31   CR3P     1  0.244382427373  0.145299904804
CG3C31   CRL1     1  0.338541512893  0.041840000000
CG3C31   CRL2     1  0.338541512893  0.041840000000
CG3C31   CRN1     1  0.347450500075  0.138767581228
CG3C31     CS     1  0.365268474438  0.138767581228
CG3C31    CST     1  0.308518226092  0.100764063435
CG3C31     CT     1  0.338541512893  0.041840000000
CG3C31    CT1     1  0.338541512893  0.041840000000
CG3C31   CT1X     1  0.338541512893  0.041840000000
CG3C31    CT2     1  0.338541512893  0.041840000000
CG3C31   CT2A     1  0.338541512893  0.041840000000
CG3C31   CT2P     1  0.338541512893  0.041840000000
CG3C31   CT2X     1  0.338541512893  0.041840000000
CG3C31    CT3     1  0.338541512893  0.041840000000
CG3C31   CT3X     1  0.338541512893  0.041840000000
CG3C31   CTD1     1  0.338541512893  0.041840000000
CG3C31   CTL1     1  0.338541512893  0.041840000000
CG3C31   CTL2     1  0.338541512893  0.041840000000
CG3C31   CTL3     1  0.338541512893  0.041840000000
CG3C31   CTL5     1  0.338541512893  0.041840000000
CG3C31   CTO1     1  0.338541512893  0.041840000000
CG3C31   CTO2     1  0.338541512893  0.041840000000
CG3C31     CU     1  0.285800308779  0.908997471504
CG3C31   CU1P     1  0.246066225950  0.180057894334
CG3C31   CU2P     1  0.233869822499  0.162315474555
CG3C31     CY     1  0.346559601357  0.113045454929
CG3C31    DUM     1  0.169270756447  0.000000000000
CG3C31   DY3P     1  0.297952167295  0.171135318061
CG3C31   ER3P     1  0.291083338178  0.169232326746
CG3C31   EU2P     1  0.333231756533  0.203602227414
CG3C31   EU3P     1  0.304954631219  0.174528477447
CG3C31     F1     1  0.314487247504  0.153729976257
CG3C31     F2     1  0.314487247504  0.135577095411
CG3C31     F3     1  0.311814551349  0.130309939452
CG3C31     FA     1  0.320723538531  0.144938011577
CG3C31     FE     1  0.227179173126  0.000000000000
CG3C31   FE2P     1  0.265496726993  0.167098295383
CG3C31   FE3P     1  0.219722350855  0.148045032716
CG3C31   FGA1     1  0.314487247504  0.153729976257
CG3C31   FGA2     1  0.314487247504  0.135577095411
CG3C31   FGA3     1  0.311814551349  0.130309939452
CG3C31   FGP1     1  0.311814551349  0.130309939452
CG3C31   FGR1     1  0.320723538531  0.144938011577
CG3C31    FNA     1  0.320723538531  0.144938011577
CG3C31   GA3P     1  0.189485248361  0.145299904804
CG3C31   GD3P     1  0.303351013527  0.173673803114
CG3C31      H     1  0.189271432669  0.089736802707
CG3C31     HA     1  0.286869387241  0.062058748940
CG3C31    HA1     1  0.288651184677  0.088756043175
CG3C31    HA2     1  0.288651184677  0.077149148019
CG3C31    HA3     1  0.288651184677  0.064818249282
CG3C31    HAL     1  0.286869387241  0.062058748940
CG3C31   HAL1     1  0.286869387241  0.062058748940
CG3C31   HAL2     1  0.288651184677  0.070011711020
CG3C31   HAL3     1  0.288651184677  0.064818249282
CG3C31     HB     1  0.286869387241  0.062058748940
CG3C31    HB1     1  0.286869387241  0.062058748940
CG3C31    HB2     1  0.288651184677  0.070011711020
CG3C31    HBL     1  0.286869387241  0.062058748940
CG3C31     HC     1  0.189271432669  0.089736802707
CG3C31   HCA1     1  0.288651184677  0.088756043175
CG3C31  HCA1A     1  0.288651184677  0.088756043175
CG3C31 HCA1C2     1  0.288651184677  0.088756043175
CG3C31   HCA2     1  0.288651184677  0.078275472531
CG3C31 HCA25A     1  0.285087589805  0.078275472531
CG3C31  HCA2A     1  0.288651184677  0.078275472531
CG3C31 HCA2C2     1  0.285087589805  0.078275472531
CG3C31   HCA3     1  0.288651184677  0.064818249282
CG3C31  HCA3A     1  0.288651184677  0.064818249282
CG3C31  HCA3M     1  0.288651184677  0.064818249282
CG3C31    HCL     1  0.189271432669  0.089736802707
CG3C31   HCP1     1  0.189271432669  0.089736802707
CG3C31  HCP1M     1  0.189271432669  0.089736802707
CG3C31   HCR1     1  0.240542653898  0.089736802707
CG3C31     HE     1  0.301123766731  0.061020452073
CG3C31    HE1     1  0.280633096214  0.073666921749
CG3C31    HE2     1  0.281523994932  0.067464972838
CG3C31   HEL1     1  0.280633096214  0.073666921749
CG3C31   HEL2     1  0.281523994932  0.067464972838
CG3C31    HF1     1  0.286869387241  0.070011711020
CG3C31    HF2     1  0.285087589805  0.072469005789
CG3C31   HG2P     1  0.274557166956  0.189623385225
CG3C31   HGA1     1  0.288651184677  0.088756043175
CG3C31   HGA2     1  0.288651184677  0.078275472531
CG3C31   HGA3     1  0.288651184677  0.064818249282
CG3C31   HGA4     1  0.280633096214  0.073666921749
CG3C31   HGA5     1  0.281523994932  0.067464972838
CG3C31   HGA6     1  0.286869387241  0.070011711020
CG3C31   HGA7     1  0.285087589805  0.072469005789
CG3C31 HGAAM0     1  0.283305792369  0.070011711020
CG3C31 HGAAM1     1  0.283305792369  0.070011711020
CG3C31 HGAAM2     1  0.281523994932  0.083680000000
CG3C31   HGP1     1  0.189271432669  0.089736802707
CG3C31   HGP2     1  0.189271432669  0.089736802707
CG3C31   HGP3     1  0.209361198763  0.132309697301
CG3C31   HGP4     1  0.189271432669  0.089736802707
CG3C31   HGP5     1  0.231633666716  0.089736802707
CG3C31 HGPAM1     1  0.247224394284  0.039692909190
CG3C31 HGPAM2     1  0.247224394284  0.041840000000
CG3C31 HGPAM3     1  0.246778944925  0.045833423612
CG3C31  HGR51     1  0.290272620344  0.072469005789
CG3C31  HGR52     1  0.249451641079  0.089736802707
CG3C31  HGR53     1  0.231633666716  0.089736802707
CG3C31  HGR61     1  0.290272620344  0.072469005789
CG3C31  HGR62     1  0.267269615442  0.089736802707
CG3C31  HGR63     1  0.249451641079  0.089736802707
CG3C31  HGR71     1  0.290272620344  0.072469005789
CG3C31     HL     1  0.231633666716  0.089736802707
CG3C31  HLGA1     1  0.288651184677  0.088756043175
CG3C31  HLGA2     1  0.288651184677  0.078275472531
CG3C31  HLGA3     1  0.288651184677  0.064818249282
CG3C31  HLGA4     1  0.280633096214  0.073666921749
CG3C31  HLGP1     1  0.189271432669  0.089736802707
CG3C31 HLGR52     1  0.249451641079  0.089736802707
CG3C31 HLGR61     1  0.290272620344  0.072469005789
CG3C31 HLGR62     1  0.267269615442  0.089736802707
CG3C31    HN1     1  0.189271432669  0.089736802707
CG3C31    HN2     1  0.189271432669  0.089736802707
CG3C31    HN3     1  0.267269615442  0.089736802707
CG3C31   HN3B     1  0.249451641079  0.089736802707
CG3C31    HN4     1  0.189271432669  0.089736802707
CG3C31    HN5     1  0.189271432669  0.089736802707
CG3C31    HN6     1  0.286869387241  0.062058748940
CG3C31    HN7     1  0.286869387241  0.062058748940
CG3C31    HN8     1  0.288651184677  0.070011711020
CG3C31    HN9     1  0.288651184677  0.064818249282
CG3C31   HNE1     1  0.280633096214  0.073666921749
CG3C31   HNE2     1  0.281523994932  0.067464972838
CG3C31    HNP     1  0.290272620344  0.072469005789
CG3C31   HO3P     1  0.293168041178  0.170263611896
CG3C31    HOL     1  0.189271432669  0.089736802707
CG3C31     HP     1  0.290272620344  0.072469005789
CG3C31   HPER     1  0.189271432669  0.089736802707
CG3C31    HR1     1  0.249451641079  0.089736802707
CG3C31    HR2     1  0.231633666716  0.089736802707
CG3C31    HR3     1  0.300054688270  0.036952087465
CG3C31   HRA3     1  0.288651184677  0.064818249282
CG3C31   HRM1     1  0.247224394284  0.039692909190
CG3C31   HRM2     1  0.247224394284  0.041840000000
CG3C31   HRP2     1  0.189271432669  0.089736802707
CG3C31     HS     1  0.209361198763  0.132309697301
CG3C31   HSIA     1  0.286869387241  0.062058748940
CG3C31   HSIO     1  0.189271432669  0.089736802707
CG3C31     HT     1  0.189271432669  0.089736802707
CG3C31     HX     1  0.189271432669  0.089736802707
CG3C31   IGR1     1  0.368832069310  0.301712530731
CG3C31   IN3P     1  0.246449312399  0.160580590010
CG3C31   LA3P     1  0.327200372211  0.182184255566
CG3C31    LIT     1  0.284864865125  0.020196198771
CG3C31    LPH     1  0.169270756447  0.000000000000
CG3C31   LU3P     1  0.289648991242  0.166731218816
CG3C31     MG     1  0.274842254546  0.051243325419
CG3C31   MN2P     1  0.276508235149  0.171747976291
CG3C31   MN3P     1  0.203516903172  0.148045032716
CG3C31      N     1  0.334087019303  0.004184000000
CG3C31     NC     1  0.334087019303  0.324091246411
CG3C31    NC2     1  0.334087019303  0.187114168357
CG3C31  NC2D1     1  0.307360057758  0.187114168357
CG3C31  NC311     1  0.347450500075  0.088756043175
CG3C31   ND3P     1  0.313587439798  0.177117175768
CG3C31     NE     1  0.305578260322  0.122698965603
CG3C31  NG1T1     1  0.328741626994  0.177512086349
CG3C31  NG2D1     1  0.334087019303  0.187114168357
CG3C31  NG2O1     1  0.334087019303  0.187114168357
CG3C31  NG2P1     1  0.334087019303  0.187114168357
CG3C31 NG2R43     1  0.334087019303  0.187114168357
CG3C31 NG2R50     1  0.334087019303  0.187114168357
CG3C31 NG2R51     1  0.334087019303  0.187114168357
CG3C31 NG2R52     1  0.334087019303  0.187114168357
CG3C31 NG2R53     1  0.334087019303  0.187114168357
CG3C31 NG2R57     1  0.334087019303  0.187114168357
CG3C31 NG2R60     1  0.337650614175  0.102486650838
CG3C31 NG2R61     1  0.334087019303  0.187114168357
CG3C31 NG2R62     1  0.352795892384  0.093557084179
CG3C31 NG2R67     1  0.334087019303  0.187114168357
CG3C31 NG2RC0     1  0.334087019303  0.187114168357
CG3C31  NG2S0     1  0.334087019303  0.004184000000
CG3C31  NG2S1     1  0.307360057758  0.187114168357
CG3C31  NG2S2     1  0.334087019303  0.187114168357
CG3C31  NG2S3     1  0.334087019303  0.187114168357
CG3C31  NG301     1  0.347450500075  0.078275472531
CG3C31  NG311     1  0.347450500075  0.088756043175
CG3C31  NG321     1  0.346559601357  0.102486650838
CG3C31  NG331     1  0.345668702638  0.110698234855
CG3C31 NG3C51     1  0.334087019303  0.187114168357
CG3C31  NG3N1     1  0.351904993665  0.102486650838
CG3C31  NG3P0     1  0.334087019303  0.187114168357
CG3C31  NG3P1     1  0.334087019303  0.187114168357
CG3C31  NG3P2     1  0.334087019303  0.187114168357
CG3C31  NG3P3     1  0.334087019303  0.187114168357
CG3C31    NH1     1  0.307360057758  0.187114168357
CG3C31    NH2     1  0.334087019303  0.187114168357
CG3C31    NH3     1  0.334087019303  0.187114168357
CG3C31   NH3L     1  0.334087019303  0.187114168357
CG3C31    NHL     1  0.307360057758  0.187114168357
CG3C31     NI     1  0.282949432881  0.994525446633
CG3C31   NI2P     1  0.238787583423  0.158440517242
CG3C31    NN1     1  0.334087019303  0.187114168357
CG3C31   NN1C     1  0.334087019303  0.187114168357
CG3C31    NN2     1  0.334087019303  0.187114168357
CG3C31   NN2B     1  0.334087019303  0.187114168357
CG3C31   NN2C     1  0.334087019303  0.187114168357
CG3C31   NN2G     1  0.334087019303  0.187114168357
CG3C31   NN2U     1  0.334087019303  0.187114168357
CG3C31    NN3     1  0.334087019303  0.187114168357
CG3C31   NN3A     1  0.334087019303  0.187114168357
CG3C31   NN3G     1  0.334087019303  0.187114168357
CG3C31   NN3I     1  0.334087019303  0.187114168357
CG3C31    NN4     1  0.334087019303  0.187114168357
CG3C31    NN6     1  0.334087019303  0.187114168357
CG3C31    NNG     1  0.334087019303  0.187114168357
CG3C31     NP     1  0.334087019303  0.187114168357
CG3C31    NPH     1  0.334087019303  0.187114168357
CG3C31    NR1     1  0.334087019303  0.187114168357
CG3C31    NR2     1  0.334087019303  0.187114168357
CG3C31    NR3     1  0.334087019303  0.187114168357
CG3C31   NRC4     1  0.334087019303  0.187114168357
CG3C31   NRN1     1  0.347450500075  0.280671252536
CG3C31   NRN2     1  0.346559601357  0.102486650838
CG3C31    NS1     1  0.334087019303  0.187114168357
CG3C31    NS2     1  0.334087019303  0.187114168357
CG3C31    NTL     1  0.334087019303  0.187114168357
CG3C31     NY     1  0.334087019303  0.187114168357
CG3C31      O     1  0.293996576986  0.144938011577
CG3C31    O2L     1  0.320723538531  0.144938011577
CG3C31    OAL     1  0.326959829558  0.163176000000
CG3C31     OB     1  0.293996576986  0.144938011577
CG3C31    OBL     1  0.293996576986  0.144938011577
CG3C31     OC     1  0.320723538531  0.144938011577
CG3C31  OC2D1     1  0.293996576986  0.144938011577
CG3C31  OC2D2     1  0.320723538531  0.144938011577
CG3C31  OC2D3     1  0.293996576986  0.144938011577
CG3C31  OC2D4     1  0.293996576986  0.144938011577
CG3C31  OC2DP     1  0.320723538531  0.144938011577
CG3C31  OC301     1  0.316269044940  0.132309697301
CG3C31  OC302     1  0.316269044940  0.132309697301
CG3C31  OC303     1  0.316269044940  0.132309697301
CG3C31 OC305A     1  0.316269044940  0.132309697301
CG3C31  OC30A     1  0.316269044940  0.132309697301
CG3C31  OC30P     1  0.326959829558  0.163176000000
CG3C31  OC311     1  0.326514380198  0.183381431383
CG3C31 OC311M     1  0.326514380198  0.183381431383
CG3C31  OC312     1  0.326959829558  0.163176000000
CG3C31 OC3C51     1  0.316269044940  0.132309697301
CG3C31 OC3C5M     1  0.316269044940  0.132309697301
CG3C31 OC3C61     1  0.316269044940  0.132309697301
CG3C31    OCA     1  0.293996576986  0.144938011577
CG3C31    OCL     1  0.320723538531  0.144938011577
CG3C31  OG2D1     1  0.293996576986  0.144938011577
CG3C31  OG2D2     1  0.320723538531  0.144938011577
CG3C31  OG2D3     1  0.293996576986  0.144938011577
CG3C31  OG2D4     1  0.320723538531  0.144938011577
CG3C31  OG2D5     1  0.320010819556  0.169954883425
CG3C31  OG2N1     1  0.320723538531  0.144938011577
CG3C31  OG2P1     1  0.320723538531  0.144938011577
CG3C31 OG2R50     1  0.320723538531  0.144938011577
CG3C31  OG2S1     1  0.318906105146  0.157831660601
CG3C31  OG301     1  0.316269044940  0.132309697301
CG3C31  OG302     1  0.316269044940  0.132309697301
CG3C31  OG303     1  0.316269044940  0.132309697301
CG3C31  OG304     1  0.316269044940  0.132309697301
CG3C31  OG311     1  0.326514380198  0.183381431383
CG3C31  OG312     1  0.325178032121  0.144938011577
CG3C31 OG3C31     1  0.316269044940  0.132309697301
CG3C31 OG3C51     1  0.316269044940  0.132309697301
CG3C31 OG3C61     1  0.316269044940  0.132309697301
CG3C31 OG3R60     1  0.316269044940  0.132309697301
CG3C31    OH1     1  0.326959829558  0.163176000000
CG3C31    OHL     1  0.326959829558  0.163176000000
CG3C31   OLG1     1  0.293996576986  0.144938011577
CG3C31   OLG2     1  0.320723538531  0.144938011577
CG3C31   OLG3     1  0.320723538531  0.144938011577
CG3C31   OLG4     1  0.316269044940  0.132309697301
CG3C31   OLG5     1  0.316269044940  0.132309697301
CG3C31   OLG6     1  0.326514380198  0.183381431383
CG3C31   OLG7     1  0.316269044940  0.132309697301
CG3C31   OLG8     1  0.316269044940  0.132309697301
CG3C31     OM     1  0.320723538531  0.144938011577
CG3C31    ON1     1  0.320723538531  0.144938011577
CG3C31   ON1C     1  0.320723538531  0.144938011577
CG3C31    ON2     1  0.326959829558  0.163176000000
CG3C31   ON2B     1  0.326959829558  0.163176000000
CG3C31   ON2M     1  0.316269044940  0.132309697301
CG3C31    ON3     1  0.320723538531  0.144938011577
CG3C31    ON4     1  0.326959829558  0.163176000000
CG3C31    ON5     1  0.326959829558  0.163176000000
CG3C31    ON6     1  0.326959829558  0.163176000000
CG3C31   ON6B     1  0.326959829558  0.163176000000
CG3C31   OPER     1  0.318427692534  0.188901923946
CG3C31     OS     1  0.326959829558  0.163176000000
CG3C31   OSIA     1  0.326959829558  0.163176000000
CG3C31   OSIE     1  0.326959829558  0.163176000000
CG3C31   OSIH     1  0.326959829558  0.163176000000
CG3C31    OSL     1  0.316269044940  0.132309697301
CG3C31   OSLP     1  0.316269044940  0.132309697301
CG3C31    OST     1  0.320010819556  0.169954883425
CG3C31     OT     1  0.326799467788  0.163176000000
CG3C31     OX     1  0.320723538531  0.144938011577
CG3C31      P     1  0.360813980847  0.320014464673
CG3C31     P2     1  0.360813980847  0.320014464673
CG3C31     P3     1  0.360813980847  0.320014464673
CG3C31     P4     1  0.360813980847  0.320014464673
CG3C31     PB     1  0.328073452955  0.716185437439
CG3C31   PB2P     1  0.325890751096  0.204716924713
CG3C31     PC     1  0.360813980847  0.320014464673
CG3C31     PD     1  0.294842930769  1.037598257516
CG3C31   PD2P     1  0.251865976605  0.174628752363
CG3C31    PG0     1  0.360813980847  0.320014464673
CG3C31    PG1     1  0.360813980847  0.320014464673
CG3C31    PG2     1  0.360813980847  0.320014464673
CG3C31     PL     1  0.360813980847  0.320014464673
CG3C31   PM3P     1  0.316910492017  0.176275053255
CG3C31    POT     1  0.326403017859  0.123410269913
CG3C31   PR3P     1  0.317079762773  0.178642591472
CG3C31     PT     1  0.296001099102  1.168527606863
CG3C31   PT2P     1  0.240284293270  0.168973521997
CG3C31   PU3P     1  0.318024115415  0.179522368790
CG3C31   RA2P     1  0.355459679551  0.229891668540
CG3C31   RH3P     1  0.210367914314  0.149983415617
CG3C31    RUB     1  0.338541512893  0.162045623205
CG3C31      S     1  0.347450500075  0.280671252536
CG3C31     SC     1  0.356359487256  0.286840588481
CG3C31   SC3P     1  0.266993436839  0.157109060719
CG3C31  SEGD1     1  0.363041227642  0.330244580395
CG3C31  SG2D1     1  0.351904993665  0.314496560236
CG3C31  SG2P1     1  0.355798221064  0.332305491450
CG3C31  SG2P2     1  0.352314807076  0.329421919951
CG3C31 SG2R50     1  0.347450500075  0.280671252536
CG3C31  SG301     1  0.345223253279  0.257919081884
CG3C31  SG302     1  0.365268474438  0.286840588481
CG3C31  SG311     1  0.347450500075  0.280671252536
CG3C31  SG3O1     1  0.356359487256  0.286840588481
CG3C31  SG3O2     1  0.347450500075  0.247528778125
CG3C31  SG3O3     1  0.347450500075  0.247528778125
CG3C31     SI     1  0.365268474438  0.324091246411
CG3C31   SIH3     1  0.365268474438  0.324091246411
CG3C31     SL     1  0.356359487256  0.286840588481
CG3C31     SM     1  0.345223253279  0.257919081884
CG3C31   SM2P     1  0.334666103469  0.207012887251
CG3C31   SM3P     1  0.308847858618  0.175378986746
CG3C31   SN2P     1  0.316981763914  0.181365662197
CG3C31    SOD     1  0.294954293108  0.090610410351
CG3C31     SP     1  0.365268474438  0.280671252536
CG3C31   SR2P     1  0.334612649546  0.200133451797
CG3C31     SS     1  0.365268474438  0.286840588481
CG3C31   TB3P     1  0.300678317372  0.172155203837
CG3C31   TI1P     1  0.341276571958  0.266826378666
CG3C31   TI3P     1  0.243117351193  0.149983415617
CG3C31   TL3P     1  0.246716582015  0.168869889039
CG3C31   TM3P     1  0.289417357575  0.168402751521
CG3C31    U3P     1  0.320830446377  0.182184255566
CG3C31    V2P     1  0.267599247968  0.167830039933
CG3C31    V3P     1  0.223989755715  0.147096016316
CG3C31    Y3P     1  0.295190381269  0.170263611896
CG3C31   YB2P     1  0.312616360195  0.189623385225
CG3C31   YB3P     1  0.284659958420  0.167569069413
CG3C31     ZN     1  0.266378716724  0.209200000000
CG3C41 CG3C41     1  0.338541512893  0.041840000000
CG3C41 CG3C50     1  0.338541512893  0.041840000000
CG3C41 CG3C51     1  0.338541512893  0.041840000000
CG3C41 CG3C52     1  0.338541512893  0.041840000000
CG3C41 CG3C53     1  0.338541512893  0.041840000000
CG3C41 CG3C54     1  0.338541512893  0.041840000000
CG3C41 CG3RC1     1  0.338541512893  0.041840000000
CG3C41     CL     1  0.347450500075  0.110698234855
CG3C41    CLA     1  0.371504765465  0.162045623205
CG3C41   CLAL     1  0.339272049842  0.072469005789
CG3C41  CLG01     1  0.355468588538  0.109105371453
CG3C41  CLG02     1  0.355468588538  0.109105371453
CG3C41  CLG03     1  0.320723538531  0.130979917850
CG3C41  CLG04     1  0.347450500075  0.110698234855
CG3C41  CLG05     1  0.329632525712  0.102486650838
CG3C41  CLG06     1  0.346773417049  0.110698234855
CG3C41 CLG06A     1  0.346773417049  0.110698234855
CG3C41 CLG06B     1  0.346773417049  0.110698234855
CG3C41  CLG07     1  0.338541512893  0.125520000000
CG3C41  CLG08     1  0.338541512893  0.132309697301
CG3C41  CLG09     1  0.346773417049  0.110698234855
CG3C41  CLG10     1  0.334977918021  0.131646486622
CG3C41  CLG11     1  0.338541512893  0.041840000000
CG3C41  CLG12     1  0.338541512893  0.041840000000
CG3C41  CLG13     1  0.338541512893  0.041840000000
CG3C41  CLG14     1  0.338541512893  0.041840000000
CG3C41  CLG15     1  0.338541512893  0.041840000000
CG3C41  CLG16     1  0.338541512893  0.041840000000
CG3C41  CLGA1     1  0.339432411611  0.245040988571
CG3C41  CLGA3     1  0.339432411611  0.232955260941
CG3C41  CLGR1     1  0.334977918021  0.200657590935
CG3C41     CM     1  0.356359487256  0.138767581228
CG3C41     CN     1  0.325178032121  0.187114168357
CG3C41    CN1     1  0.338541512893  0.132309697301
CG3C41   CN1A     1  0.347450500075  0.110698234855
CG3C41   CN1T     1  0.338541512893  0.132309697301
CG3C41    CN2     1  0.338541512893  0.132309697301
CG3C41    CN3     1  0.338541512893  0.125520000000
CG3C41   CN3A     1  0.329632525712  0.177512086349
CG3C41   CN3B     1  0.329632525712  0.177512086349
CG3C41   CN3C     1  0.329632525712  0.177512086349
CG3C41   CN3D     1  0.338541512893  0.125520000000
CG3C41   CN3T     1  0.338541512893  0.125520000000
CG3C41    CN4     1  0.338541512893  0.114583559030
CG3C41    CN5     1  0.338541512893  0.114583559030
CG3C41   CN5G     1  0.338541512893  0.114583559030
CG3C41    CN6     1  0.338541512893  0.041840000000
CG3C41    CN7     1  0.338541512893  0.041840000000
CG3C41   CN7B     1  0.338541512893  0.041840000000
CG3C41   CN7E     1  0.338541512893  0.041840000000
CG3C41    CN8     1  0.338541512893  0.041840000000
CG3C41   CN8B     1  0.338541512893  0.041840000000
CG3C41    CN9     1  0.338541512893  0.041840000000
CG3C41    CNA     1  0.346773417049  0.110698234855
CG3C41   CNA2     1  0.338541512893  0.110698234855
CG3C41   CNE1     1  0.355468588538  0.109105371453
CG3C41   CNE2     1  0.354577689820  0.105847757841
CG3C41    CNG     1  0.347450500075  0.138767581228
CG3C41   CO2P     1  0.251910521541  0.164138698618
CG3C41   CO3P     1  0.192264852362  0.144393471099
CG3C41    COA     1  0.347450500075  0.138767581228
CG3C41    CP1     1  0.338541512893  0.041840000000
CG3C41    CP2     1  0.338541512893  0.041840000000
CG3C41    CP3     1  0.338541512893  0.041840000000
CG3C41    CPA     1  0.329632525712  0.125520000000
CG3C41    CPB     1  0.329632525712  0.125520000000
CG3C41   CPD1     1  0.338541512893  0.041840000000
CG3C41   CPH1     1  0.329632525712  0.093557084179
CG3C41   CPH2     1  0.329632525712  0.093557084179
CG3C41    CPM     1  0.329632525712  0.125520000000
CG3C41    CPT     1  0.334977918021  0.131646486622
CG3C41   CR2P     1  0.263634748672  0.170828164985
CG3C41   CR33     1  0.338541512893  0.041840000000
CG3C41   CR3P     1  0.244382427373  0.145299904804
CG3C41   CRL1     1  0.338541512893  0.041840000000
CG3C41   CRL2     1  0.338541512893  0.041840000000
CG3C41   CRN1     1  0.347450500075  0.138767581228
CG3C41     CS     1  0.365268474438  0.138767581228
CG3C41    CST     1  0.308518226092  0.100764063435
CG3C41     CT     1  0.338541512893  0.041840000000
CG3C41    CT1     1  0.338541512893  0.041840000000
CG3C41   CT1X     1  0.338541512893  0.041840000000
CG3C41    CT2     1  0.338541512893  0.041840000000
CG3C41   CT2A     1  0.338541512893  0.041840000000
CG3C41   CT2P     1  0.338541512893  0.041840000000
CG3C41   CT2X     1  0.338541512893  0.041840000000
CG3C41    CT3     1  0.338541512893  0.041840000000
CG3C41   CT3X     1  0.338541512893  0.041840000000
CG3C41   CTD1     1  0.338541512893  0.041840000000
CG3C41   CTL1     1  0.338541512893  0.041840000000
CG3C41   CTL2     1  0.338541512893  0.041840000000
CG3C41   CTL3     1  0.338541512893  0.041840000000
CG3C41   CTL5     1  0.338541512893  0.041840000000
CG3C41   CTO1     1  0.338541512893  0.041840000000
CG3C41   CTO2     1  0.338541512893  0.041840000000
CG3C41     CU     1  0.285800308779  0.908997471504
CG3C41   CU1P     1  0.246066225950  0.180057894334
CG3C41   CU2P     1  0.233869822499  0.162315474555
CG3C41     CY     1  0.346559601357  0.113045454929
CG3C41    DUM     1  0.169270756447  0.000000000000
CG3C41   DY3P     1  0.297952167295  0.171135318061
CG3C41   ER3P     1  0.291083338178  0.169232326746
CG3C41   EU2P     1  0.333231756533  0.203602227414
CG3C41   EU3P     1  0.304954631219  0.174528477447
CG3C41     F1     1  0.314487247504  0.153729976257
CG3C41     F2     1  0.314487247504  0.135577095411
CG3C41     F3     1  0.311814551349  0.130309939452
CG3C41     FA     1  0.320723538531  0.144938011577
CG3C41     FE     1  0.227179173126  0.000000000000
CG3C41   FE2P     1  0.265496726993  0.167098295383
CG3C41   FE3P     1  0.219722350855  0.148045032716
CG3C41   FGA1     1  0.314487247504  0.153729976257
CG3C41   FGA2     1  0.314487247504  0.135577095411
CG3C41   FGA3     1  0.311814551349  0.130309939452
CG3C41   FGP1     1  0.311814551349  0.130309939452
CG3C41   FGR1     1  0.320723538531  0.144938011577
CG3C41    FNA     1  0.320723538531  0.144938011577
CG3C41   GA3P     1  0.189485248361  0.145299904804
CG3C41   GD3P     1  0.303351013527  0.173673803114
CG3C41      H     1  0.189271432669  0.089736802707
CG3C41     HA     1  0.286869387241  0.062058748940
CG3C41    HA1     1  0.288651184677  0.088756043175
CG3C41    HA2     1  0.288651184677  0.077149148019
CG3C41    HA3     1  0.288651184677  0.064818249282
CG3C41    HAL     1  0.286869387241  0.062058748940
CG3C41   HAL1     1  0.286869387241  0.062058748940
CG3C41   HAL2     1  0.288651184677  0.070011711020
CG3C41   HAL3     1  0.288651184677  0.064818249282
CG3C41     HB     1  0.286869387241  0.062058748940
CG3C41    HB1     1  0.286869387241  0.062058748940
CG3C41    HB2     1  0.288651184677  0.070011711020
CG3C41    HBL     1  0.286869387241  0.062058748940
CG3C41     HC     1  0.189271432669  0.089736802707
CG3C41   HCA1     1  0.288651184677  0.088756043175
CG3C41  HCA1A     1  0.288651184677  0.088756043175
CG3C41 HCA1C2     1  0.288651184677  0.088756043175
CG3C41   HCA2     1  0.288651184677  0.078275472531
CG3C41 HCA25A     1  0.285087589805  0.078275472531
CG3C41  HCA2A     1  0.288651184677  0.078275472531
CG3C41 HCA2C2     1  0.285087589805  0.078275472531
CG3C41   HCA3     1  0.288651184677  0.064818249282
CG3C41  HCA3A     1  0.288651184677  0.064818249282
CG3C41  HCA3M     1  0.288651184677  0.064818249282
CG3C41    HCL     1  0.189271432669  0.089736802707
CG3C41   HCP1     1  0.189271432669  0.089736802707
CG3C41  HCP1M     1  0.189271432669  0.089736802707
CG3C41   HCR1     1  0.240542653898  0.089736802707
CG3C41     HE     1  0.301123766731  0.061020452073
CG3C41    HE1     1  0.280633096214  0.073666921749
CG3C41    HE2     1  0.281523994932  0.067464972838
CG3C41   HEL1     1  0.280633096214  0.073666921749
CG3C41   HEL2     1  0.281523994932  0.067464972838
CG3C41    HF1     1  0.286869387241  0.070011711020
CG3C41    HF2     1  0.285087589805  0.072469005789
CG3C41   HG2P     1  0.274557166956  0.189623385225
CG3C41   HGA1     1  0.288651184677  0.088756043175
CG3C41   HGA2     1  0.288651184677  0.078275472531
CG3C41   HGA3     1  0.288651184677  0.064818249282
CG3C41   HGA4     1  0.280633096214  0.073666921749
CG3C41   HGA5     1  0.281523994932  0.067464972838
CG3C41   HGA6     1  0.286869387241  0.070011711020
CG3C41   HGA7     1  0.285087589805  0.072469005789
CG3C41 HGAAM0     1  0.283305792369  0.070011711020
CG3C41 HGAAM1     1  0.283305792369  0.070011711020
CG3C41 HGAAM2     1  0.281523994932  0.083680000000
CG3C41   HGP1     1  0.189271432669  0.089736802707
CG3C41   HGP2     1  0.189271432669  0.089736802707
CG3C41   HGP3     1  0.209361198763  0.132309697301
CG3C41   HGP4     1  0.189271432669  0.089736802707
CG3C41   HGP5     1  0.231633666716  0.089736802707
CG3C41 HGPAM1     1  0.247224394284  0.039692909190
CG3C41 HGPAM2     1  0.247224394284  0.041840000000
CG3C41 HGPAM3     1  0.246778944925  0.045833423612
CG3C41  HGR51     1  0.290272620344  0.072469005789
CG3C41  HGR52     1  0.249451641079  0.089736802707
CG3C41  HGR53     1  0.231633666716  0.089736802707
CG3C41  HGR61     1  0.290272620344  0.072469005789
CG3C41  HGR62     1  0.267269615442  0.089736802707
CG3C41  HGR63     1  0.249451641079  0.089736802707
CG3C41  HGR71     1  0.290272620344  0.072469005789
CG3C41     HL     1  0.231633666716  0.089736802707
CG3C41  HLGA1     1  0.288651184677  0.088756043175
CG3C41  HLGA2     1  0.288651184677  0.078275472531
CG3C41  HLGA3     1  0.288651184677  0.064818249282
CG3C41  HLGA4     1  0.280633096214  0.073666921749
CG3C41  HLGP1     1  0.189271432669  0.089736802707
CG3C41 HLGR52     1  0.249451641079  0.089736802707
CG3C41 HLGR61     1  0.290272620344  0.072469005789
CG3C41 HLGR62     1  0.267269615442  0.089736802707
CG3C41    HN1     1  0.189271432669  0.089736802707
CG3C41    HN2     1  0.189271432669  0.089736802707
CG3C41    HN3     1  0.267269615442  0.089736802707
CG3C41   HN3B     1  0.249451641079  0.089736802707
CG3C41    HN4     1  0.189271432669  0.089736802707
CG3C41    HN5     1  0.189271432669  0.089736802707
CG3C41    HN6     1  0.286869387241  0.062058748940
CG3C41    HN7     1  0.286869387241  0.062058748940
CG3C41    HN8     1  0.288651184677  0.070011711020
CG3C41    HN9     1  0.288651184677  0.064818249282
CG3C41   HNE1     1  0.280633096214  0.073666921749
CG3C41   HNE2     1  0.281523994932  0.067464972838
CG3C41    HNP     1  0.290272620344  0.072469005789
CG3C41   HO3P     1  0.293168041178  0.170263611896
CG3C41    HOL     1  0.189271432669  0.089736802707
CG3C41     HP     1  0.290272620344  0.072469005789
CG3C41   HPER     1  0.189271432669  0.089736802707
CG3C41    HR1     1  0.249451641079  0.089736802707
CG3C41    HR2     1  0.231633666716  0.089736802707
CG3C41    HR3     1  0.300054688270  0.036952087465
CG3C41   HRA3     1  0.288651184677  0.064818249282
CG3C41   HRM1     1  0.247224394284  0.039692909190
CG3C41   HRM2     1  0.247224394284  0.041840000000
CG3C41   HRP2     1  0.189271432669  0.089736802707
CG3C41     HS     1  0.209361198763  0.132309697301
CG3C41   HSIA     1  0.286869387241  0.062058748940
CG3C41   HSIO     1  0.189271432669  0.089736802707
CG3C41     HT     1  0.189271432669  0.089736802707
CG3C41     HX     1  0.189271432669  0.089736802707
CG3C41   IGR1     1  0.368832069310  0.301712530731
CG3C41   IN3P     1  0.246449312399  0.160580590010
CG3C41   LA3P     1  0.327200372211  0.182184255566
CG3C41    LIT     1  0.284864865125  0.020196198771
CG3C41    LPH     1  0.169270756447  0.000000000000
CG3C41   LU3P     1  0.289648991242  0.166731218816
CG3C41     MG     1  0.274842254546  0.051243325419
CG3C41   MN2P     1  0.276508235149  0.171747976291
CG3C41   MN3P     1  0.203516903172  0.148045032716
CG3C41      N     1  0.334087019303  0.004184000000
CG3C41     NC     1  0.334087019303  0.324091246411
CG3C41    NC2     1  0.334087019303  0.187114168357
CG3C41  NC2D1     1  0.307360057758  0.187114168357
CG3C41  NC311     1  0.347450500075  0.088756043175
CG3C41   ND3P     1  0.313587439798  0.177117175768
CG3C41     NE     1  0.305578260322  0.122698965603
CG3C41  NG1T1     1  0.328741626994  0.177512086349
CG3C41  NG2D1     1  0.334087019303  0.187114168357
CG3C41  NG2O1     1  0.334087019303  0.187114168357
CG3C41  NG2P1     1  0.334087019303  0.187114168357
CG3C41 NG2R43     1  0.334087019303  0.187114168357
CG3C41 NG2R50     1  0.334087019303  0.187114168357
CG3C41 NG2R51     1  0.334087019303  0.187114168357
CG3C41 NG2R52     1  0.334087019303  0.187114168357
CG3C41 NG2R53     1  0.334087019303  0.187114168357
CG3C41 NG2R57     1  0.334087019303  0.187114168357
CG3C41 NG2R60     1  0.337650614175  0.102486650838
CG3C41 NG2R61     1  0.334087019303  0.187114168357
CG3C41 NG2R62     1  0.352795892384  0.093557084179
CG3C41 NG2R67     1  0.334087019303  0.187114168357
CG3C41 NG2RC0     1  0.334087019303  0.187114168357
CG3C41  NG2S0     1  0.334087019303  0.004184000000
CG3C41  NG2S1     1  0.307360057758  0.187114168357
CG3C41  NG2S2     1  0.334087019303  0.187114168357
CG3C41  NG2S3     1  0.334087019303  0.187114168357
CG3C41  NG301     1  0.347450500075  0.078275472531
CG3C41  NG311     1  0.347450500075  0.088756043175
CG3C41  NG321     1  0.346559601357  0.102486650838
CG3C41  NG331     1  0.345668702638  0.110698234855
CG3C41 NG3C51     1  0.334087019303  0.187114168357
CG3C41  NG3N1     1  0.351904993665  0.102486650838
CG3C41  NG3P0     1  0.334087019303  0.187114168357
CG3C41  NG3P1     1  0.334087019303  0.187114168357
CG3C41  NG3P2     1  0.334087019303  0.187114168357
CG3C41  NG3P3     1  0.334087019303  0.187114168357
CG3C41    NH1     1  0.307360057758  0.187114168357
CG3C41    NH2     1  0.334087019303  0.187114168357
CG3C41    NH3     1  0.334087019303  0.187114168357
CG3C41   NH3L     1  0.334087019303  0.187114168357
CG3C41    NHL     1  0.307360057758  0.187114168357
CG3C41     NI     1  0.282949432881  0.994525446633
CG3C41   NI2P     1  0.238787583423  0.158440517242
CG3C41    NN1     1  0.334087019303  0.187114168357
CG3C41   NN1C     1  0.334087019303  0.187114168357
CG3C41    NN2     1  0.334087019303  0.187114168357
CG3C41   NN2B     1  0.334087019303  0.187114168357
CG3C41   NN2C     1  0.334087019303  0.187114168357
CG3C41   NN2G     1  0.334087019303  0.187114168357
CG3C41   NN2U     1  0.334087019303  0.187114168357
CG3C41    NN3     1  0.334087019303  0.187114168357
CG3C41   NN3A     1  0.334087019303  0.187114168357
CG3C41   NN3G     1  0.334087019303  0.187114168357
CG3C41   NN3I     1  0.334087019303  0.187114168357
CG3C41    NN4     1  0.334087019303  0.187114168357
CG3C41    NN6     1  0.334087019303  0.187114168357
CG3C41    NNG     1  0.334087019303  0.187114168357
CG3C41     NP     1  0.334087019303  0.187114168357
CG3C41    NPH     1  0.334087019303  0.187114168357
CG3C41    NR1     1  0.334087019303  0.187114168357
CG3C41    NR2     1  0.334087019303  0.187114168357
CG3C41    NR3     1  0.334087019303  0.187114168357
CG3C41   NRC4     1  0.334087019303  0.187114168357
CG3C41   NRN1     1  0.347450500075  0.280671252536
CG3C41   NRN2     1  0.346559601357  0.102486650838
CG3C41    NS1     1  0.334087019303  0.187114168357
CG3C41    NS2     1  0.334087019303  0.187114168357
CG3C41    NTL     1  0.334087019303  0.187114168357
CG3C41     NY     1  0.334087019303  0.187114168357
CG3C41      O     1  0.293996576986  0.144938011577
CG3C41    O2L     1  0.320723538531  0.144938011577
CG3C41    OAL     1  0.326959829558  0.163176000000
CG3C41     OB     1  0.293996576986  0.144938011577
CG3C41    OBL     1  0.293996576986  0.144938011577
CG3C41     OC     1  0.320723538531  0.144938011577
CG3C41  OC2D1     1  0.293996576986  0.144938011577
CG3C41  OC2D2     1  0.320723538531  0.144938011577
CG3C41  OC2D3     1  0.293996576986  0.144938011577
CG3C41  OC2D4     1  0.293996576986  0.144938011577
CG3C41  OC2DP     1  0.320723538531  0.144938011577
CG3C41  OC301     1  0.316269044940  0.132309697301
CG3C41  OC302     1  0.316269044940  0.132309697301
CG3C41  OC303     1  0.316269044940  0.132309697301
CG3C41 OC305A     1  0.316269044940  0.132309697301
CG3C41  OC30A     1  0.316269044940  0.132309697301
CG3C41  OC30P     1  0.326959829558  0.163176000000
CG3C41  OC311     1  0.326514380198  0.183381431383
CG3C41 OC311M     1  0.326514380198  0.183381431383
CG3C41  OC312     1  0.326959829558  0.163176000000
CG3C41 OC3C51     1  0.316269044940  0.132309697301
CG3C41 OC3C5M     1  0.316269044940  0.132309697301
CG3C41 OC3C61     1  0.316269044940  0.132309697301
CG3C41    OCA     1  0.293996576986  0.144938011577
CG3C41    OCL     1  0.320723538531  0.144938011577
CG3C41  OG2D1     1  0.293996576986  0.144938011577
CG3C41  OG2D2     1  0.320723538531  0.144938011577
CG3C41  OG2D3     1  0.293996576986  0.144938011577
CG3C41  OG2D4     1  0.320723538531  0.144938011577
CG3C41  OG2D5     1  0.320010819556  0.169954883425
CG3C41  OG2N1     1  0.320723538531  0.144938011577
CG3C41  OG2P1     1  0.320723538531  0.144938011577
CG3C41 OG2R50     1  0.320723538531  0.144938011577
CG3C41  OG2S1     1  0.318906105146  0.157831660601
CG3C41  OG301     1  0.316269044940  0.132309697301
CG3C41  OG302     1  0.316269044940  0.132309697301
CG3C41  OG303     1  0.316269044940  0.132309697301
CG3C41  OG304     1  0.316269044940  0.132309697301
CG3C41  OG311     1  0.326514380198  0.183381431383
CG3C41  OG312     1  0.325178032121  0.144938011577
CG3C41 OG3C31     1  0.316269044940  0.132309697301
CG3C41 OG3C51     1  0.316269044940  0.132309697301
CG3C41 OG3C61     1  0.316269044940  0.132309697301
CG3C41 OG3R60     1  0.316269044940  0.132309697301
CG3C41    OH1     1  0.326959829558  0.163176000000
CG3C41    OHL     1  0.326959829558  0.163176000000
CG3C41   OLG1     1  0.293996576986  0.144938011577
CG3C41   OLG2     1  0.320723538531  0.144938011577
CG3C41   OLG3     1  0.320723538531  0.144938011577
CG3C41   OLG4     1  0.316269044940  0.132309697301
CG3C41   OLG5     1  0.316269044940  0.132309697301
CG3C41   OLG6     1  0.326514380198  0.183381431383
CG3C41   OLG7     1  0.316269044940  0.132309697301
CG3C41   OLG8     1  0.316269044940  0.132309697301
CG3C41     OM     1  0.320723538531  0.144938011577
CG3C41    ON1     1  0.320723538531  0.144938011577
CG3C41   ON1C     1  0.320723538531  0.144938011577
CG3C41    ON2     1  0.326959829558  0.163176000000
CG3C41   ON2B     1  0.326959829558  0.163176000000
CG3C41   ON2M     1  0.316269044940  0.132309697301
CG3C41    ON3     1  0.320723538531  0.144938011577
CG3C41    ON4     1  0.326959829558  0.163176000000
CG3C41    ON5     1  0.326959829558  0.163176000000
CG3C41    ON6     1  0.326959829558  0.163176000000
CG3C41   ON6B     1  0.326959829558  0.163176000000
CG3C41   OPER     1  0.318427692534  0.188901923946
CG3C41     OS     1  0.326959829558  0.163176000000
CG3C41   OSIA     1  0.326959829558  0.163176000000
CG3C41   OSIE     1  0.326959829558  0.163176000000
CG3C41   OSIH     1  0.326959829558  0.163176000000
CG3C41    OSL     1  0.316269044940  0.132309697301
CG3C41   OSLP     1  0.316269044940  0.132309697301
CG3C41    OST     1  0.320010819556  0.169954883425
CG3C41     OT     1  0.326799467788  0.163176000000
CG3C41     OX     1  0.320723538531  0.144938011577
CG3C41      P     1  0.360813980847  0.320014464673
CG3C41     P2     1  0.360813980847  0.320014464673
CG3C41     P3     1  0.360813980847  0.320014464673
CG3C41     P4     1  0.360813980847  0.320014464673
CG3C41     PB     1  0.328073452955  0.716185437439
CG3C41   PB2P     1  0.325890751096  0.204716924713
CG3C41     PC     1  0.360813980847  0.320014464673
CG3C41     PD     1  0.294842930769  1.037598257516
CG3C41   PD2P     1  0.251865976605  0.174628752363
CG3C41    PG0     1  0.360813980847  0.320014464673
CG3C41    PG1     1  0.360813980847  0.320014464673
CG3C41    PG2     1  0.360813980847  0.320014464673
CG3C41     PL     1  0.360813980847  0.320014464673
CG3C41   PM3P     1  0.316910492017  0.176275053255
CG3C41    POT     1  0.326403017859  0.123410269913
CG3C41   PR3P     1  0.317079762773  0.178642591472
CG3C41     PT     1  0.296001099102  1.168527606863
CG3C41   PT2P     1  0.240284293270  0.168973521997
CG3C41   PU3P     1  0.318024115415  0.179522368790
CG3C41   RA2P     1  0.355459679551  0.229891668540
CG3C41   RH3P     1  0.210367914314  0.149983415617
CG3C41    RUB     1  0.338541512893  0.162045623205
CG3C41      S     1  0.347450500075  0.280671252536
CG3C41     SC     1  0.356359487256  0.286840588481
CG3C41   SC3P     1  0.266993436839  0.157109060719
CG3C41  SEGD1     1  0.363041227642  0.330244580395
CG3C41  SG2D1     1  0.351904993665  0.314496560236
CG3C41  SG2P1     1  0.355798221064  0.332305491450
CG3C41  SG2P2     1  0.352314807076  0.329421919951
CG3C41 SG2R50     1  0.347450500075  0.280671252536
CG3C41  SG301     1  0.345223253279  0.257919081884
CG3C41  SG302     1  0.365268474438  0.286840588481
CG3C41  SG311     1  0.347450500075  0.280671252536
CG3C41  SG3O1     1  0.356359487256  0.286840588481
CG3C41  SG3O2     1  0.347450500075  0.247528778125
CG3C41  SG3O3     1  0.347450500075  0.247528778125
CG3C41     SI     1  0.365268474438  0.324091246411
CG3C41   SIH3     1  0.365268474438  0.324091246411
CG3C41     SL     1  0.356359487256  0.286840588481
CG3C41     SM     1  0.345223253279  0.257919081884
CG3C41   SM2P     1  0.334666103469  0.207012887251
CG3C41   SM3P     1  0.308847858618  0.175378986746
CG3C41   SN2P     1  0.316981763914  0.181365662197
CG3C41    SOD     1  0.294954293108  0.090610410351
CG3C41     SP     1  0.365268474438  0.280671252536
CG3C41   SR2P     1  0.334612649546  0.200133451797
CG3C41     SS     1  0.365268474438  0.286840588481
CG3C41   TB3P     1  0.300678317372  0.172155203837
CG3C41   TI1P     1  0.341276571958  0.266826378666
CG3C41   TI3P     1  0.243117351193  0.149983415617
CG3C41   TL3P     1  0.246716582015  0.168869889039
CG3C41   TM3P     1  0.289417357575  0.168402751521
CG3C41    U3P     1  0.320830446377  0.182184255566
CG3C41    V2P     1  0.267599247968  0.167830039933
CG3C41    V3P     1  0.223989755715  0.147096016316
CG3C41    Y3P     1  0.295190381269  0.170263611896
CG3C41   YB2P     1  0.312616360195  0.189623385225
CG3C41   YB3P     1  0.284659958420  0.167569069413
CG3C41     ZN     1  0.266378716724  0.209200000000
CG3C50 CG3C50     1  0.338541512893  0.041840000000
CG3C50 CG3C51     1  0.338541512893  0.041840000000
CG3C50 CG3C52     1  0.338541512893  0.041840000000
CG3C50 CG3C53     1  0.338541512893  0.041840000000
CG3C50 CG3C54     1  0.338541512893  0.041840000000
CG3C50 CG3RC1     1  0.338541512893  0.041840000000
CG3C50     CL     1  0.347450500075  0.110698234855
CG3C50    CLA     1  0.371504765465  0.162045623205
CG3C50   CLAL     1  0.339272049842  0.072469005789
CG3C50  CLG01     1  0.355468588538  0.109105371453
CG3C50  CLG02     1  0.355468588538  0.109105371453
CG3C50  CLG03     1  0.320723538531  0.130979917850
CG3C50  CLG04     1  0.347450500075  0.110698234855
CG3C50  CLG05     1  0.329632525712  0.102486650838
CG3C50  CLG06     1  0.346773417049  0.110698234855
CG3C50 CLG06A     1  0.346773417049  0.110698234855
CG3C50 CLG06B     1  0.346773417049  0.110698234855
CG3C50  CLG07     1  0.338541512893  0.125520000000
CG3C50  CLG08     1  0.338541512893  0.132309697301
CG3C50  CLG09     1  0.346773417049  0.110698234855
CG3C50  CLG10     1  0.334977918021  0.131646486622
CG3C50  CLG11     1  0.338541512893  0.041840000000
CG3C50  CLG12     1  0.338541512893  0.041840000000
CG3C50  CLG13     1  0.338541512893  0.041840000000
CG3C50  CLG14     1  0.338541512893  0.041840000000
CG3C50  CLG15     1  0.338541512893  0.041840000000
CG3C50  CLG16     1  0.338541512893  0.041840000000
CG3C50  CLGA1     1  0.339432411611  0.245040988571
CG3C50  CLGA3     1  0.339432411611  0.232955260941
CG3C50  CLGR1     1  0.334977918021  0.200657590935
CG3C50     CM     1  0.356359487256  0.138767581228
CG3C50     CN     1  0.325178032121  0.187114168357
CG3C50    CN1     1  0.338541512893  0.132309697301
CG3C50   CN1A     1  0.347450500075  0.110698234855
CG3C50   CN1T     1  0.338541512893  0.132309697301
CG3C50    CN2     1  0.338541512893  0.132309697301
CG3C50    CN3     1  0.338541512893  0.125520000000
CG3C50   CN3A     1  0.329632525712  0.177512086349
CG3C50   CN3B     1  0.329632525712  0.177512086349
CG3C50   CN3C     1  0.329632525712  0.177512086349
CG3C50   CN3D     1  0.338541512893  0.125520000000
CG3C50   CN3T     1  0.338541512893  0.125520000000
CG3C50    CN4     1  0.338541512893  0.114583559030
CG3C50    CN5     1  0.338541512893  0.114583559030
CG3C50   CN5G     1  0.338541512893  0.114583559030
CG3C50    CN6     1  0.338541512893  0.041840000000
CG3C50    CN7     1  0.338541512893  0.041840000000
CG3C50   CN7B     1  0.338541512893  0.041840000000
CG3C50   CN7E     1  0.338541512893  0.041840000000
CG3C50    CN8     1  0.338541512893  0.041840000000
CG3C50   CN8B     1  0.338541512893  0.041840000000
CG3C50    CN9     1  0.338541512893  0.041840000000
CG3C50    CNA     1  0.346773417049  0.110698234855
CG3C50   CNA2     1  0.338541512893  0.110698234855
CG3C50   CNE1     1  0.355468588538  0.109105371453
CG3C50   CNE2     1  0.354577689820  0.105847757841
CG3C50    CNG     1  0.347450500075  0.138767581228
CG3C50   CO2P     1  0.251910521541  0.164138698618
CG3C50   CO3P     1  0.192264852362  0.144393471099
CG3C50    COA     1  0.347450500075  0.138767581228
CG3C50    CP1     1  0.338541512893  0.041840000000
CG3C50    CP2     1  0.338541512893  0.041840000000
CG3C50    CP3     1  0.338541512893  0.041840000000
CG3C50    CPA     1  0.329632525712  0.125520000000
CG3C50    CPB     1  0.329632525712  0.125520000000
CG3C50   CPD1     1  0.338541512893  0.041840000000
CG3C50   CPH1     1  0.329632525712  0.093557084179
CG3C50   CPH2     1  0.329632525712  0.093557084179
CG3C50    CPM     1  0.329632525712  0.125520000000
CG3C50    CPT     1  0.334977918021  0.131646486622
CG3C50   CR2P     1  0.263634748672  0.170828164985
CG3C50   CR33     1  0.338541512893  0.041840000000
CG3C50   CR3P     1  0.244382427373  0.145299904804
CG3C50   CRL1     1  0.338541512893  0.041840000000
CG3C50   CRL2     1  0.338541512893  0.041840000000
CG3C50   CRN1     1  0.347450500075  0.138767581228
CG3C50     CS     1  0.365268474438  0.138767581228
CG3C50    CST     1  0.308518226092  0.100764063435
CG3C50     CT     1  0.338541512893  0.041840000000
CG3C50    CT1     1  0.338541512893  0.041840000000
CG3C50   CT1X     1  0.338541512893  0.041840000000
CG3C50    CT2     1  0.338541512893  0.041840000000
CG3C50   CT2A     1  0.338541512893  0.041840000000
CG3C50   CT2P     1  0.338541512893  0.041840000000
CG3C50   CT2X     1  0.338541512893  0.041840000000
CG3C50    CT3     1  0.338541512893  0.041840000000
CG3C50   CT3X     1  0.338541512893  0.041840000000
CG3C50   CTD1     1  0.338541512893  0.041840000000
CG3C50   CTL1     1  0.338541512893  0.041840000000
CG3C50   CTL2     1  0.338541512893  0.041840000000
CG3C50   CTL3     1  0.338541512893  0.041840000000
CG3C50   CTL5     1  0.338541512893  0.041840000000
CG3C50   CTO1     1  0.338541512893  0.041840000000
CG3C50   CTO2     1  0.338541512893  0.041840000000
CG3C50     CU     1  0.285800308779  0.908997471504
CG3C50   CU1P     1  0.246066225950  0.180057894334
CG3C50   CU2P     1  0.233869822499  0.162315474555
CG3C50     CY     1  0.346559601357  0.113045454929
CG3C50    DUM     1  0.169270756447  0.000000000000
CG3C50   DY3P     1  0.297952167295  0.171135318061
CG3C50   ER3P     1  0.291083338178  0.169232326746
CG3C50   EU2P     1  0.333231756533  0.203602227414
CG3C50   EU3P     1  0.304954631219  0.174528477447
CG3C50     F1     1  0.314487247504  0.153729976257
CG3C50     F2     1  0.314487247504  0.135577095411
CG3C50     F3     1  0.311814551349  0.130309939452
CG3C50     FA     1  0.320723538531  0.144938011577
CG3C50     FE     1  0.227179173126  0.000000000000
CG3C50   FE2P     1  0.265496726993  0.167098295383
CG3C50   FE3P     1  0.219722350855  0.148045032716
CG3C50   FGA1     1  0.314487247504  0.153729976257
CG3C50   FGA2     1  0.314487247504  0.135577095411
CG3C50   FGA3     1  0.311814551349  0.130309939452
CG3C50   FGP1     1  0.311814551349  0.130309939452
CG3C50   FGR1     1  0.320723538531  0.144938011577
CG3C50    FNA     1  0.320723538531  0.144938011577
CG3C50   GA3P     1  0.189485248361  0.145299904804
CG3C50   GD3P     1  0.303351013527  0.173673803114
CG3C50      H     1  0.189271432669  0.089736802707
CG3C50     HA     1  0.286869387241  0.062058748940
CG3C50    HA1     1  0.288651184677  0.088756043175
CG3C50    HA2     1  0.288651184677  0.077149148019
CG3C50    HA3     1  0.288651184677  0.064818249282
CG3C50    HAL     1  0.286869387241  0.062058748940
CG3C50   HAL1     1  0.286869387241  0.062058748940
CG3C50   HAL2     1  0.288651184677  0.070011711020
CG3C50   HAL3     1  0.288651184677  0.064818249282
CG3C50     HB     1  0.286869387241  0.062058748940
CG3C50    HB1     1  0.286869387241  0.062058748940
CG3C50    HB2     1  0.288651184677  0.070011711020
CG3C50    HBL     1  0.286869387241  0.062058748940
CG3C50     HC     1  0.189271432669  0.089736802707
CG3C50   HCA1     1  0.288651184677  0.088756043175
CG3C50  HCA1A     1  0.288651184677  0.088756043175
CG3C50 HCA1C2     1  0.288651184677  0.088756043175
CG3C50   HCA2     1  0.288651184677  0.078275472531
CG3C50 HCA25A     1  0.285087589805  0.078275472531
CG3C50  HCA2A     1  0.288651184677  0.078275472531
CG3C50 HCA2C2     1  0.285087589805  0.078275472531
CG3C50   HCA3     1  0.288651184677  0.064818249282
CG3C50  HCA3A     1  0.288651184677  0.064818249282
CG3C50  HCA3M     1  0.288651184677  0.064818249282
CG3C50    HCL     1  0.189271432669  0.089736802707
CG3C50   HCP1     1  0.189271432669  0.089736802707
CG3C50  HCP1M     1  0.189271432669  0.089736802707
CG3C50   HCR1     1  0.240542653898  0.089736802707
CG3C50     HE     1  0.301123766731  0.061020452073
CG3C50    HE1     1  0.280633096214  0.073666921749
CG3C50    HE2     1  0.281523994932  0.067464972838
CG3C50   HEL1     1  0.280633096214  0.073666921749
CG3C50   HEL2     1  0.281523994932  0.067464972838
CG3C50    HF1     1  0.286869387241  0.070011711020
CG3C50    HF2     1  0.285087589805  0.072469005789
CG3C50   HG2P     1  0.274557166956  0.189623385225
CG3C50   HGA1     1  0.288651184677  0.088756043175
CG3C50   HGA2     1  0.288651184677  0.078275472531
CG3C50   HGA3     1  0.288651184677  0.064818249282
CG3C50   HGA4     1  0.280633096214  0.073666921749
CG3C50   HGA5     1  0.281523994932  0.067464972838
CG3C50   HGA6     1  0.286869387241  0.070011711020
CG3C50   HGA7     1  0.285087589805  0.072469005789
CG3C50 HGAAM0     1  0.283305792369  0.070011711020
CG3C50 HGAAM1     1  0.283305792369  0.070011711020
CG3C50 HGAAM2     1  0.281523994932  0.083680000000
CG3C50   HGP1     1  0.189271432669  0.089736802707
CG3C50   HGP2     1  0.189271432669  0.089736802707
CG3C50   HGP3     1  0.209361198763  0.132309697301
CG3C50   HGP4     1  0.189271432669  0.089736802707
CG3C50   HGP5     1  0.231633666716  0.089736802707
CG3C50 HGPAM1     1  0.247224394284  0.039692909190
CG3C50 HGPAM2     1  0.247224394284  0.041840000000
CG3C50 HGPAM3     1  0.246778944925  0.045833423612
CG3C50  HGR51     1  0.290272620344  0.072469005789
CG3C50  HGR52     1  0.249451641079  0.089736802707
CG3C50  HGR53     1  0.231633666716  0.089736802707
CG3C50  HGR61     1  0.290272620344  0.072469005789
CG3C50  HGR62     1  0.267269615442  0.089736802707
CG3C50  HGR63     1  0.249451641079  0.089736802707
CG3C50  HGR71     1  0.290272620344  0.072469005789
CG3C50     HL     1  0.231633666716  0.089736802707
CG3C50  HLGA1     1  0.288651184677  0.088756043175
CG3C50  HLGA2     1  0.288651184677  0.078275472531
CG3C50  HLGA3     1  0.288651184677  0.064818249282
CG3C50  HLGA4     1  0.280633096214  0.073666921749
CG3C50  HLGP1     1  0.189271432669  0.089736802707
CG3C50 HLGR52     1  0.249451641079  0.089736802707
CG3C50 HLGR61     1  0.290272620344  0.072469005789
CG3C50 HLGR62     1  0.267269615442  0.089736802707
CG3C50    HN1     1  0.189271432669  0.089736802707
CG3C50    HN2     1  0.189271432669  0.089736802707
CG3C50    HN3     1  0.267269615442  0.089736802707
CG3C50   HN3B     1  0.249451641079  0.089736802707
CG3C50    HN4     1  0.189271432669  0.089736802707
CG3C50    HN5     1  0.189271432669  0.089736802707
CG3C50    HN6     1  0.286869387241  0.062058748940
CG3C50    HN7     1  0.286869387241  0.062058748940
CG3C50    HN8     1  0.288651184677  0.070011711020
CG3C50    HN9     1  0.288651184677  0.064818249282
CG3C50   HNE1     1  0.280633096214  0.073666921749
CG3C50   HNE2     1  0.281523994932  0.067464972838
CG3C50    HNP     1  0.290272620344  0.072469005789
CG3C50   HO3P     1  0.293168041178  0.170263611896
CG3C50    HOL     1  0.189271432669  0.089736802707
CG3C50     HP     1  0.290272620344  0.072469005789
CG3C50   HPER     1  0.189271432669  0.089736802707
CG3C50    HR1     1  0.249451641079  0.089736802707
CG3C50    HR2     1  0.231633666716  0.089736802707
CG3C50    HR3     1  0.300054688270  0.036952087465
CG3C50   HRA3     1  0.288651184677  0.064818249282
CG3C50   HRM1     1  0.247224394284  0.039692909190
CG3C50   HRM2     1  0.247224394284  0.041840000000
CG3C50   HRP2     1  0.189271432669  0.089736802707
CG3C50     HS     1  0.209361198763  0.132309697301
CG3C50   HSIA     1  0.286869387241  0.062058748940
CG3C50   HSIO     1  0.189271432669  0.089736802707
CG3C50     HT     1  0.189271432669  0.089736802707
CG3C50     HX     1  0.189271432669  0.089736802707
CG3C50   IGR1     1  0.368832069310  0.301712530731
CG3C50   IN3P     1  0.246449312399  0.160580590010
CG3C50   LA3P     1  0.327200372211  0.182184255566
CG3C50    LIT     1  0.284864865125  0.020196198771
CG3C50    LPH     1  0.169270756447  0.000000000000
CG3C50   LU3P     1  0.289648991242  0.166731218816
CG3C50     MG     1  0.274842254546  0.051243325419
CG3C50   MN2P     1  0.276508235149  0.171747976291
CG3C50   MN3P     1  0.203516903172  0.148045032716
CG3C50      N     1  0.334087019303  0.004184000000
CG3C50     NC     1  0.334087019303  0.324091246411
CG3C50    NC2     1  0.334087019303  0.187114168357
CG3C50  NC2D1     1  0.307360057758  0.187114168357
CG3C50  NC311     1  0.347450500075  0.088756043175
CG3C50   ND3P     1  0.313587439798  0.177117175768
CG3C50     NE     1  0.305578260322  0.122698965603
CG3C50  NG1T1     1  0.328741626994  0.177512086349
CG3C50  NG2D1     1  0.334087019303  0.187114168357
CG3C50  NG2O1     1  0.334087019303  0.187114168357
CG3C50  NG2P1     1  0.334087019303  0.187114168357
CG3C50 NG2R43     1  0.334087019303  0.187114168357
CG3C50 NG2R50     1  0.334087019303  0.187114168357
CG3C50 NG2R51     1  0.334087019303  0.187114168357
CG3C50 NG2R52     1  0.334087019303  0.187114168357
CG3C50 NG2R53     1  0.334087019303  0.187114168357
CG3C50 NG2R57     1  0.334087019303  0.187114168357
CG3C50 NG2R60     1  0.337650614175  0.102486650838
CG3C50 NG2R61     1  0.334087019303  0.187114168357
CG3C50 NG2R62     1  0.352795892384  0.093557084179
CG3C50 NG2R67     1  0.334087019303  0.187114168357
CG3C50 NG2RC0     1  0.334087019303  0.187114168357
CG3C50  NG2S0     1  0.334087019303  0.004184000000
CG3C50  NG2S1     1  0.307360057758  0.187114168357
CG3C50  NG2S2     1  0.334087019303  0.187114168357
CG3C50  NG2S3     1  0.334087019303  0.187114168357
CG3C50  NG301     1  0.347450500075  0.078275472531
CG3C50  NG311     1  0.347450500075  0.088756043175
CG3C50  NG321     1  0.346559601357  0.102486650838
CG3C50  NG331     1  0.345668702638  0.110698234855
CG3C50 NG3C51     1  0.334087019303  0.187114168357
CG3C50  NG3N1     1  0.351904993665  0.102486650838
CG3C50  NG3P0     1  0.334087019303  0.187114168357
CG3C50  NG3P1     1  0.334087019303  0.187114168357
CG3C50  NG3P2     1  0.334087019303  0.187114168357
CG3C50  NG3P3     1  0.334087019303  0.187114168357
CG3C50    NH1     1  0.307360057758  0.187114168357
CG3C50    NH2     1  0.334087019303  0.187114168357
CG3C50    NH3     1  0.334087019303  0.187114168357
CG3C50   NH3L     1  0.334087019303  0.187114168357
CG3C50    NHL     1  0.307360057758  0.187114168357
CG3C50     NI     1  0.282949432881  0.994525446633
CG3C50   NI2P     1  0.238787583423  0.158440517242
CG3C50    NN1     1  0.334087019303  0.187114168357
CG3C50   NN1C     1  0.334087019303  0.187114168357
CG3C50    NN2     1  0.334087019303  0.187114168357
CG3C50   NN2B     1  0.334087019303  0.187114168357
CG3C50   NN2C     1  0.334087019303  0.187114168357
CG3C50   NN2G     1  0.334087019303  0.187114168357
CG3C50   NN2U     1  0.334087019303  0.187114168357
CG3C50    NN3     1  0.334087019303  0.187114168357
CG3C50   NN3A     1  0.334087019303  0.187114168357
CG3C50   NN3G     1  0.334087019303  0.187114168357
CG3C50   NN3I     1  0.334087019303  0.187114168357
CG3C50    NN4     1  0.334087019303  0.187114168357
CG3C50    NN6     1  0.334087019303  0.187114168357
CG3C50    NNG     1  0.334087019303  0.187114168357
CG3C50     NP     1  0.334087019303  0.187114168357
CG3C50    NPH     1  0.334087019303  0.187114168357
CG3C50    NR1     1  0.334087019303  0.187114168357
CG3C50    NR2     1  0.334087019303  0.187114168357
CG3C50    NR3     1  0.334087019303  0.187114168357
CG3C50   NRC4     1  0.334087019303  0.187114168357
CG3C50   NRN1     1  0.347450500075  0.280671252536
CG3C50   NRN2     1  0.346559601357  0.102486650838
CG3C50    NS1     1  0.334087019303  0.187114168357
CG3C50    NS2     1  0.334087019303  0.187114168357
CG3C50    NTL     1  0.334087019303  0.187114168357
CG3C50     NY     1  0.334087019303  0.187114168357
CG3C50      O     1  0.293996576986  0.144938011577
CG3C50    O2L     1  0.320723538531  0.144938011577
CG3C50    OAL     1  0.326959829558  0.163176000000
CG3C50     OB     1  0.293996576986  0.144938011577
CG3C50    OBL     1  0.293996576986  0.144938011577
CG3C50     OC     1  0.320723538531  0.144938011577
CG3C50  OC2D1     1  0.293996576986  0.144938011577
CG3C50  OC2D2     1  0.320723538531  0.144938011577
CG3C50  OC2D3     1  0.293996576986  0.144938011577
CG3C50  OC2D4     1  0.293996576986  0.144938011577
CG3C50  OC2DP     1  0.320723538531  0.144938011577
CG3C50  OC301     1  0.316269044940  0.132309697301
CG3C50  OC302     1  0.316269044940  0.132309697301
CG3C50  OC303     1  0.316269044940  0.132309697301
CG3C50 OC305A     1  0.316269044940  0.132309697301
CG3C50  OC30A     1  0.316269044940  0.132309697301
CG3C50  OC30P     1  0.326959829558  0.163176000000
CG3C50  OC311     1  0.326514380198  0.183381431383
CG3C50 OC311M     1  0.326514380198  0.183381431383
CG3C50  OC312     1  0.326959829558  0.163176000000
CG3C50 OC3C51     1  0.316269044940  0.132309697301
CG3C50 OC3C5M     1  0.316269044940  0.132309697301
CG3C50 OC3C61     1  0.316269044940  0.132309697301
CG3C50    OCA     1  0.293996576986  0.144938011577
CG3C50    OCL     1  0.320723538531  0.144938011577
CG3C50  OG2D1     1  0.293996576986  0.144938011577
CG3C50  OG2D2     1  0.320723538531  0.144938011577
CG3C50  OG2D3     1  0.293996576986  0.144938011577
CG3C50  OG2D4     1  0.320723538531  0.144938011577
CG3C50  OG2D5     1  0.320010819556  0.169954883425
CG3C50  OG2N1     1  0.320723538531  0.144938011577
CG3C50  OG2P1     1  0.320723538531  0.144938011577
CG3C50 OG2R50     1  0.320723538531  0.144938011577
CG3C50  OG2S1     1  0.318906105146  0.157831660601
CG3C50  OG301     1  0.316269044940  0.132309697301
CG3C50  OG302     1  0.316269044940  0.132309697301
CG3C50  OG303     1  0.316269044940  0.132309697301
CG3C50  OG304     1  0.316269044940  0.132309697301
CG3C50  OG311     1  0.326514380198  0.183381431383
CG3C50  OG312     1  0.325178032121  0.144938011577
CG3C50 OG3C31     1  0.316269044940  0.132309697301
CG3C50 OG3C51     1  0.316269044940  0.132309697301
CG3C50 OG3C61     1  0.316269044940  0.132309697301
CG3C50 OG3R60     1  0.316269044940  0.132309697301
CG3C50    OH1     1  0.326959829558  0.163176000000
CG3C50    OHL     1  0.326959829558  0.163176000000
CG3C50   OLG1     1  0.293996576986  0.144938011577
CG3C50   OLG2     1  0.320723538531  0.144938011577
CG3C50   OLG3     1  0.320723538531  0.144938011577
CG3C50   OLG4     1  0.316269044940  0.132309697301
CG3C50   OLG5     1  0.316269044940  0.132309697301
CG3C50   OLG6     1  0.326514380198  0.183381431383
CG3C50   OLG7     1  0.316269044940  0.132309697301
CG3C50   OLG8     1  0.316269044940  0.132309697301
CG3C50     OM     1  0.320723538531  0.144938011577
CG3C50    ON1     1  0.320723538531  0.144938011577
CG3C50   ON1C     1  0.320723538531  0.144938011577
CG3C50    ON2     1  0.326959829558  0.163176000000
CG3C50   ON2B     1  0.326959829558  0.163176000000
CG3C50   ON2M     1  0.316269044940  0.132309697301
CG3C50    ON3     1  0.320723538531  0.144938011577
CG3C50    ON4     1  0.326959829558  0.163176000000
CG3C50    ON5     1  0.326959829558  0.163176000000
CG3C50    ON6     1  0.326959829558  0.163176000000
CG3C50   ON6B     1  0.326959829558  0.163176000000
CG3C50   OPER     1  0.318427692534  0.188901923946
CG3C50     OS     1  0.326959829558  0.163176000000
CG3C50   OSIA     1  0.326959829558  0.163176000000
CG3C50   OSIE     1  0.326959829558  0.163176000000
CG3C50   OSIH     1  0.326959829558  0.163176000000
CG3C50    OSL     1  0.316269044940  0.132309697301
CG3C50   OSLP     1  0.316269044940  0.132309697301
CG3C50    OST     1  0.320010819556  0.169954883425
CG3C50     OT     1  0.326799467788  0.163176000000
CG3C50     OX     1  0.320723538531  0.144938011577
CG3C50      P     1  0.360813980847  0.320014464673
CG3C50     P2     1  0.360813980847  0.320014464673
CG3C50     P3     1  0.360813980847  0.320014464673
CG3C50     P4     1  0.360813980847  0.320014464673
CG3C50     PB     1  0.328073452955  0.716185437439
CG3C50   PB2P     1  0.325890751096  0.204716924713
CG3C50     PC     1  0.360813980847  0.320014464673
CG3C50     PD     1  0.294842930769  1.037598257516
CG3C50   PD2P     1  0.251865976605  0.174628752363
CG3C50    PG0     1  0.360813980847  0.320014464673
CG3C50    PG1     1  0.360813980847  0.320014464673
CG3C50    PG2     1  0.360813980847  0.320014464673
CG3C50     PL     1  0.360813980847  0.320014464673
CG3C50   PM3P     1  0.316910492017  0.176275053255
CG3C50    POT     1  0.326403017859  0.123410269913
CG3C50   PR3P     1  0.317079762773  0.178642591472
CG3C50     PT     1  0.296001099102  1.168527606863
CG3C50   PT2P     1  0.240284293270  0.168973521997
CG3C50   PU3P     1  0.318024115415  0.179522368790
CG3C50   RA2P     1  0.355459679551  0.229891668540
CG3C50   RH3P     1  0.210367914314  0.149983415617
CG3C50    RUB     1  0.338541512893  0.162045623205
CG3C50      S     1  0.347450500075  0.280671252536
CG3C50     SC     1  0.356359487256  0.286840588481
CG3C50   SC3P     1  0.266993436839  0.157109060719
CG3C50  SEGD1     1  0.363041227642  0.330244580395
CG3C50  SG2D1     1  0.351904993665  0.314496560236
CG3C50  SG2P1     1  0.355798221064  0.332305491450
CG3C50  SG2P2     1  0.352314807076  0.329421919951
CG3C50 SG2R50     1  0.347450500075  0.280671252536
CG3C50  SG301     1  0.345223253279  0.257919081884
CG3C50  SG302     1  0.365268474438  0.286840588481
CG3C50  SG311     1  0.347450500075  0.280671252536
CG3C50  SG3O1     1  0.356359487256  0.286840588481
CG3C50  SG3O2     1  0.347450500075  0.247528778125
CG3C50  SG3O3     1  0.347450500075  0.247528778125
CG3C50     SI     1  0.365268474438  0.324091246411
CG3C50   SIH3     1  0.365268474438  0.324091246411
CG3C50     SL     1  0.356359487256  0.286840588481
CG3C50     SM     1  0.345223253279  0.257919081884
CG3C50   SM2P     1  0.334666103469  0.207012887251
CG3C50   SM3P     1  0.308847858618  0.175378986746
CG3C50   SN2P     1  0.316981763914  0.181365662197
CG3C50    SOD     1  0.294954293108  0.090610410351
CG3C50     SP     1  0.365268474438  0.280671252536
CG3C50   SR2P     1  0.334612649546  0.200133451797
CG3C50     SS     1  0.365268474438  0.286840588481
CG3C50   TB3P     1  0.300678317372  0.172155203837
CG3C50   TI1P     1  0.341276571958  0.266826378666
CG3C50   TI3P     1  0.243117351193  0.149983415617
CG3C50   TL3P     1  0.246716582015  0.168869889039
CG3C50   TM3P     1  0.289417357575  0.168402751521
CG3C50    U3P     1  0.320830446377  0.182184255566
CG3C50    V2P     1  0.267599247968  0.167830039933
CG3C50    V3P     1  0.223989755715  0.147096016316
CG3C50    Y3P     1  0.295190381269  0.170263611896
CG3C50   YB2P     1  0.312616360195  0.189623385225
CG3C50   YB3P     1  0.284659958420  0.167569069413
CG3C50     ZN     1  0.266378716724  0.209200000000
CG3C51 CG3C51     1  0.338541512893  0.041840000000
CG3C51 CG3C52     1  0.338541512893  0.041840000000
CG3C51 CG3C53     1  0.338541512893  0.041840000000
CG3C51 CG3C54     1  0.338541512893  0.041840000000
CG3C51 CG3RC1     1  0.338541512893  0.041840000000
CG3C51     CL     1  0.347450500075  0.110698234855
CG3C51    CLA     1  0.371504765465  0.162045623205
CG3C51   CLAL     1  0.339272049842  0.072469005789
CG3C51  CLG01     1  0.355468588538  0.109105371453
CG3C51  CLG02     1  0.355468588538  0.109105371453
CG3C51  CLG03     1  0.320723538531  0.130979917850
CG3C51  CLG04     1  0.347450500075  0.110698234855
CG3C51  CLG05     1  0.329632525712  0.102486650838
CG3C51  CLG06     1  0.346773417049  0.110698234855
CG3C51 CLG06A     1  0.346773417049  0.110698234855
CG3C51 CLG06B     1  0.346773417049  0.110698234855
CG3C51  CLG07     1  0.338541512893  0.125520000000
CG3C51  CLG08     1  0.338541512893  0.132309697301
CG3C51  CLG09     1  0.346773417049  0.110698234855
CG3C51  CLG10     1  0.334977918021  0.131646486622
CG3C51  CLG11     1  0.338541512893  0.041840000000
CG3C51  CLG12     1  0.338541512893  0.041840000000
CG3C51  CLG13     1  0.338541512893  0.041840000000
CG3C51  CLG14     1  0.338541512893  0.041840000000
CG3C51  CLG15     1  0.338541512893  0.041840000000
CG3C51  CLG16     1  0.338541512893  0.041840000000
CG3C51  CLGA1     1  0.339432411611  0.245040988571
CG3C51  CLGA3     1  0.339432411611  0.232955260941
CG3C51  CLGR1     1  0.334977918021  0.200657590935
CG3C51     CM     1  0.356359487256  0.138767581228
CG3C51     CN     1  0.325178032121  0.187114168357
CG3C51    CN1     1  0.338541512893  0.132309697301
CG3C51   CN1A     1  0.347450500075  0.110698234855
CG3C51   CN1T     1  0.338541512893  0.132309697301
CG3C51    CN2     1  0.338541512893  0.132309697301
CG3C51    CN3     1  0.338541512893  0.125520000000
CG3C51   CN3A     1  0.329632525712  0.177512086349
CG3C51   CN3B     1  0.329632525712  0.177512086349
CG3C51   CN3C     1  0.329632525712  0.177512086349
CG3C51   CN3D     1  0.338541512893  0.125520000000
CG3C51   CN3T     1  0.338541512893  0.125520000000
CG3C51    CN4     1  0.338541512893  0.114583559030
CG3C51    CN5     1  0.338541512893  0.114583559030
CG3C51   CN5G     1  0.338541512893  0.114583559030
CG3C51    CN6     1  0.338541512893  0.041840000000
CG3C51    CN7     1  0.338541512893  0.041840000000
CG3C51   CN7B     1  0.338541512893  0.041840000000
CG3C51   CN7E     1  0.338541512893  0.041840000000
CG3C51    CN8     1  0.338541512893  0.041840000000
CG3C51   CN8B     1  0.338541512893  0.041840000000
CG3C51    CN9     1  0.338541512893  0.041840000000
CG3C51    CNA     1  0.346773417049  0.110698234855
CG3C51   CNA2     1  0.338541512893  0.110698234855
CG3C51   CNE1     1  0.355468588538  0.109105371453
CG3C51   CNE2     1  0.354577689820  0.105847757841
CG3C51    CNG     1  0.347450500075  0.138767581228
CG3C51   CO2P     1  0.251910521541  0.164138698618
CG3C51   CO3P     1  0.192264852362  0.144393471099
CG3C51    COA     1  0.347450500075  0.138767581228
CG3C51    CP1     1  0.338541512893  0.041840000000
CG3C51    CP2     1  0.338541512893  0.041840000000
CG3C51    CP3     1  0.338541512893  0.041840000000
CG3C51    CPA     1  0.329632525712  0.125520000000
CG3C51    CPB     1  0.329632525712  0.125520000000
CG3C51   CPD1     1  0.338541512893  0.041840000000
CG3C51   CPH1     1  0.329632525712  0.093557084179
CG3C51   CPH2     1  0.329632525712  0.093557084179
CG3C51    CPM     1  0.329632525712  0.125520000000
CG3C51    CPT     1  0.334977918021  0.131646486622
CG3C51   CR2P     1  0.263634748672  0.170828164985
CG3C51   CR33     1  0.338541512893  0.041840000000
CG3C51   CR3P     1  0.244382427373  0.145299904804
CG3C51   CRL1     1  0.338541512893  0.041840000000
CG3C51   CRL2     1  0.338541512893  0.041840000000
CG3C51   CRN1     1  0.347450500075  0.138767581228
CG3C51     CS     1  0.365268474438  0.138767581228
CG3C51    CST     1  0.308518226092  0.100764063435
CG3C51     CT     1  0.338541512893  0.041840000000
CG3C51    CT1     1  0.338541512893  0.041840000000
CG3C51   CT1X     1  0.338541512893  0.041840000000
CG3C51    CT2     1  0.338541512893  0.041840000000
CG3C51   CT2A     1  0.338541512893  0.041840000000
CG3C51   CT2P     1  0.338541512893  0.041840000000
CG3C51   CT2X     1  0.338541512893  0.041840000000
CG3C51    CT3     1  0.338541512893  0.041840000000
CG3C51   CT3X     1  0.338541512893  0.041840000000
CG3C51   CTD1     1  0.338541512893  0.041840000000
CG3C51   CTL1     1  0.338541512893  0.041840000000
CG3C51   CTL2     1  0.338541512893  0.041840000000
CG3C51   CTL3     1  0.338541512893  0.041840000000
CG3C51   CTL5     1  0.338541512893  0.041840000000
CG3C51   CTO1     1  0.338541512893  0.041840000000
CG3C51   CTO2     1  0.338541512893  0.041840000000
CG3C51     CU     1  0.285800308779  0.908997471504
CG3C51   CU1P     1  0.246066225950  0.180057894334
CG3C51   CU2P     1  0.233869822499  0.162315474555
CG3C51     CY     1  0.346559601357  0.113045454929
CG3C51    DUM     1  0.169270756447  0.000000000000
CG3C51   DY3P     1  0.297952167295  0.171135318061
CG3C51   ER3P     1  0.291083338178  0.169232326746
CG3C51   EU2P     1  0.333231756533  0.203602227414
CG3C51   EU3P     1  0.304954631219  0.174528477447
CG3C51     F1     1  0.314487247504  0.153729976257
CG3C51     F2     1  0.314487247504  0.135577095411
CG3C51     F3     1  0.311814551349  0.130309939452
CG3C51     FA     1  0.320723538531  0.144938011577
CG3C51     FE     1  0.227179173126  0.000000000000
CG3C51   FE2P     1  0.265496726993  0.167098295383
CG3C51   FE3P     1  0.219722350855  0.148045032716
CG3C51   FGA1     1  0.314487247504  0.153729976257
CG3C51   FGA2     1  0.314487247504  0.135577095411
CG3C51   FGA3     1  0.311814551349  0.130309939452
CG3C51   FGP1     1  0.311814551349  0.130309939452
CG3C51   FGR1     1  0.320723538531  0.144938011577
CG3C51    FNA     1  0.320723538531  0.144938011577
CG3C51   GA3P     1  0.189485248361  0.145299904804
CG3C51   GD3P     1  0.303351013527  0.173673803114
CG3C51      H     1  0.189271432669  0.089736802707
CG3C51     HA     1  0.286869387241  0.062058748940
CG3C51    HA1     1  0.288651184677  0.088756043175
CG3C51    HA2     1  0.288651184677  0.077149148019
CG3C51    HA3     1  0.288651184677  0.064818249282
CG3C51    HAL     1  0.286869387241  0.062058748940
CG3C51   HAL1     1  0.286869387241  0.062058748940
CG3C51   HAL2     1  0.288651184677  0.070011711020
CG3C51   HAL3     1  0.288651184677  0.064818249282
CG3C51     HB     1  0.286869387241  0.062058748940
CG3C51    HB1     1  0.286869387241  0.062058748940
CG3C51    HB2     1  0.288651184677  0.070011711020
CG3C51    HBL     1  0.286869387241  0.062058748940
CG3C51     HC     1  0.189271432669  0.089736802707
CG3C51   HCA1     1  0.288651184677  0.088756043175
CG3C51  HCA1A     1  0.288651184677  0.088756043175
CG3C51 HCA1C2     1  0.288651184677  0.088756043175
CG3C51   HCA2     1  0.288651184677  0.078275472531
CG3C51 HCA25A     1  0.285087589805  0.078275472531
CG3C51  HCA2A     1  0.288651184677  0.078275472531
CG3C51 HCA2C2     1  0.285087589805  0.078275472531
CG3C51   HCA3     1  0.288651184677  0.064818249282
CG3C51  HCA3A     1  0.288651184677  0.064818249282
CG3C51  HCA3M     1  0.288651184677  0.064818249282
CG3C51    HCL     1  0.189271432669  0.089736802707
CG3C51   HCP1     1  0.189271432669  0.089736802707
CG3C51  HCP1M     1  0.189271432669  0.089736802707
CG3C51   HCR1     1  0.240542653898  0.089736802707
CG3C51     HE     1  0.301123766731  0.061020452073
CG3C51    HE1     1  0.280633096214  0.073666921749
CG3C51    HE2     1  0.281523994932  0.067464972838
CG3C51   HEL1     1  0.280633096214  0.073666921749
CG3C51   HEL2     1  0.281523994932  0.067464972838
CG3C51    HF1     1  0.286869387241  0.070011711020
CG3C51    HF2     1  0.285087589805  0.072469005789
CG3C51   HG2P     1  0.274557166956  0.189623385225
CG3C51   HGA1     1  0.288651184677  0.088756043175
CG3C51   HGA2     1  0.288651184677  0.078275472531
CG3C51   HGA3     1  0.288651184677  0.064818249282
CG3C51   HGA4     1  0.280633096214  0.073666921749
CG3C51   HGA5     1  0.281523994932  0.067464972838
CG3C51   HGA6     1  0.286869387241  0.070011711020
CG3C51   HGA7     1  0.285087589805  0.072469005789
CG3C51 HGAAM0     1  0.283305792369  0.070011711020
CG3C51 HGAAM1     1  0.283305792369  0.070011711020
CG3C51 HGAAM2     1  0.281523994932  0.083680000000
CG3C51   HGP1     1  0.189271432669  0.089736802707
CG3C51   HGP2     1  0.189271432669  0.089736802707
CG3C51   HGP3     1  0.209361198763  0.132309697301
CG3C51   HGP4     1  0.189271432669  0.089736802707
CG3C51   HGP5     1  0.231633666716  0.089736802707
CG3C51 HGPAM1     1  0.247224394284  0.039692909190
CG3C51 HGPAM2     1  0.247224394284  0.041840000000
CG3C51 HGPAM3     1  0.246778944925  0.045833423612
CG3C51  HGR51     1  0.290272620344  0.072469005789
CG3C51  HGR52     1  0.249451641079  0.089736802707
CG3C51  HGR53     1  0.231633666716  0.089736802707
CG3C51  HGR61     1  0.290272620344  0.072469005789
CG3C51  HGR62     1  0.267269615442  0.089736802707
CG3C51  HGR63     1  0.249451641079  0.089736802707
CG3C51  HGR71     1  0.290272620344  0.072469005789
CG3C51     HL     1  0.231633666716  0.089736802707
CG3C51  HLGA1     1  0.288651184677  0.088756043175
CG3C51  HLGA2     1  0.288651184677  0.078275472531
CG3C51  HLGA3     1  0.288651184677  0.064818249282
CG3C51  HLGA4     1  0.280633096214  0.073666921749
CG3C51  HLGP1     1  0.189271432669  0.089736802707
CG3C51 HLGR52     1  0.249451641079  0.089736802707
CG3C51 HLGR61     1  0.290272620344  0.072469005789
CG3C51 HLGR62     1  0.267269615442  0.089736802707
CG3C51    HN1     1  0.189271432669  0.089736802707
CG3C51    HN2     1  0.189271432669  0.089736802707
CG3C51    HN3     1  0.267269615442  0.089736802707
CG3C51   HN3B     1  0.249451641079  0.089736802707
CG3C51    HN4     1  0.189271432669  0.089736802707
CG3C51    HN5     1  0.189271432669  0.089736802707
CG3C51    HN6     1  0.286869387241  0.062058748940
CG3C51    HN7     1  0.286869387241  0.062058748940
CG3C51    HN8     1  0.288651184677  0.070011711020
CG3C51    HN9     1  0.288651184677  0.064818249282
CG3C51   HNE1     1  0.280633096214  0.073666921749
CG3C51   HNE2     1  0.281523994932  0.067464972838
CG3C51    HNP     1  0.290272620344  0.072469005789
CG3C51   HO3P     1  0.293168041178  0.170263611896
CG3C51    HOL     1  0.189271432669  0.089736802707
CG3C51     HP     1  0.290272620344  0.072469005789
CG3C51   HPER     1  0.189271432669  0.089736802707
CG3C51    HR1     1  0.249451641079  0.089736802707
CG3C51    HR2     1  0.231633666716  0.089736802707
CG3C51    HR3     1  0.300054688270  0.036952087465
CG3C51   HRA3     1  0.288651184677  0.064818249282
CG3C51   HRM1     1  0.247224394284  0.039692909190
CG3C51   HRM2     1  0.247224394284  0.041840000000
CG3C51   HRP2     1  0.189271432669  0.089736802707
CG3C51     HS     1  0.209361198763  0.132309697301
CG3C51   HSIA     1  0.286869387241  0.062058748940
CG3C51   HSIO     1  0.189271432669  0.089736802707
CG3C51     HT     1  0.189271432669  0.089736802707
CG3C51     HX     1  0.189271432669  0.089736802707
CG3C51   IGR1     1  0.368832069310  0.301712530731
CG3C51   IN3P     1  0.246449312399  0.160580590010
CG3C51   LA3P     1  0.327200372211  0.182184255566
CG3C51    LIT     1  0.284864865125  0.020196198771
CG3C51    LPH     1  0.169270756447  0.000000000000
CG3C51   LU3P     1  0.289648991242  0.166731218816
CG3C51     MG     1  0.274842254546  0.051243325419
CG3C51   MN2P     1  0.276508235149  0.171747976291
CG3C51   MN3P     1  0.203516903172  0.148045032716
CG3C51      N     1  0.334087019303  0.004184000000
CG3C51     NC     1  0.334087019303  0.324091246411
CG3C51    NC2     1  0.334087019303  0.187114168357
CG3C51  NC2D1     1  0.307360057758  0.187114168357
CG3C51  NC311     1  0.347450500075  0.088756043175
CG3C51   ND3P     1  0.313587439798  0.177117175768
CG3C51     NE     1  0.305578260322  0.122698965603
CG3C51  NG1T1     1  0.328741626994  0.177512086349
CG3C51  NG2D1     1  0.334087019303  0.187114168357
CG3C51  NG2O1     1  0.334087019303  0.187114168357
CG3C51  NG2P1     1  0.334087019303  0.187114168357
CG3C51 NG2R43     1  0.334087019303  0.187114168357
CG3C51 NG2R50     1  0.334087019303  0.187114168357
CG3C51 NG2R51     1  0.334087019303  0.187114168357
CG3C51 NG2R52     1  0.334087019303  0.187114168357
CG3C51 NG2R53     1  0.334087019303  0.187114168357
CG3C51 NG2R57     1  0.334087019303  0.187114168357
CG3C51 NG2R60     1  0.337650614175  0.102486650838
CG3C51 NG2R61     1  0.334087019303  0.187114168357
CG3C51 NG2R62     1  0.352795892384  0.093557084179
CG3C51 NG2R67     1  0.334087019303  0.187114168357
CG3C51 NG2RC0     1  0.334087019303  0.187114168357
CG3C51  NG2S0     1  0.334087019303  0.004184000000
CG3C51  NG2S1     1  0.307360057758  0.187114168357
CG3C51  NG2S2     1  0.334087019303  0.187114168357
CG3C51  NG2S3     1  0.334087019303  0.187114168357
CG3C51  NG301     1  0.347450500075  0.078275472531
CG3C51  NG311     1  0.347450500075  0.088756043175
CG3C51  NG321     1  0.346559601357  0.102486650838
CG3C51  NG331     1  0.345668702638  0.110698234855
CG3C51 NG3C51     1  0.334087019303  0.187114168357
CG3C51  NG3N1     1  0.351904993665  0.102486650838
CG3C51  NG3P0     1  0.334087019303  0.187114168357
CG3C51  NG3P1     1  0.334087019303  0.187114168357
CG3C51  NG3P2     1  0.334087019303  0.187114168357
CG3C51  NG3P3     1  0.334087019303  0.187114168357
CG3C51    NH1     1  0.307360057758  0.187114168357
CG3C51    NH2     1  0.334087019303  0.187114168357
CG3C51    NH3     1  0.334087019303  0.187114168357
CG3C51   NH3L     1  0.334087019303  0.187114168357
CG3C51    NHL     1  0.307360057758  0.187114168357
CG3C51     NI     1  0.282949432881  0.994525446633
CG3C51   NI2P     1  0.238787583423  0.158440517242
CG3C51    NN1     1  0.334087019303  0.187114168357
CG3C51   NN1C     1  0.334087019303  0.187114168357
CG3C51    NN2     1  0.334087019303  0.187114168357
CG3C51   NN2B     1  0.334087019303  0.187114168357
CG3C51   NN2C     1  0.334087019303  0.187114168357
CG3C51   NN2G     1  0.334087019303  0.187114168357
CG3C51   NN2U     1  0.334087019303  0.187114168357
CG3C51    NN3     1  0.334087019303  0.187114168357
CG3C51   NN3A     1  0.334087019303  0.187114168357
CG3C51   NN3G     1  0.334087019303  0.187114168357
CG3C51   NN3I     1  0.334087019303  0.187114168357
CG3C51    NN4     1  0.334087019303  0.187114168357
CG3C51    NN6     1  0.334087019303  0.187114168357
CG3C51    NNG     1  0.334087019303  0.187114168357
CG3C51     NP     1  0.334087019303  0.187114168357
CG3C51    NPH     1  0.334087019303  0.187114168357
CG3C51    NR1     1  0.334087019303  0.187114168357
CG3C51    NR2     1  0.334087019303  0.187114168357
CG3C51    NR3     1  0.334087019303  0.187114168357
CG3C51   NRC4     1  0.334087019303  0.187114168357
CG3C51   NRN1     1  0.347450500075  0.280671252536
CG3C51   NRN2     1  0.346559601357  0.102486650838
CG3C51    NS1     1  0.334087019303  0.187114168357
CG3C51    NS2     1  0.334087019303  0.187114168357
CG3C51    NTL     1  0.334087019303  0.187114168357
CG3C51     NY     1  0.334087019303  0.187114168357
CG3C51      O     1  0.293996576986  0.144938011577
CG3C51    O2L     1  0.320723538531  0.144938011577
CG3C51    OAL     1  0.326959829558  0.163176000000
CG3C51     OB     1  0.293996576986  0.144938011577
CG3C51    OBL     1  0.293996576986  0.144938011577
CG3C51     OC     1  0.320723538531  0.144938011577
CG3C51  OC2D1     1  0.293996576986  0.144938011577
CG3C51  OC2D2     1  0.320723538531  0.144938011577
CG3C51  OC2D3     1  0.293996576986  0.144938011577
CG3C51  OC2D4     1  0.293996576986  0.144938011577
CG3C51  OC2DP     1  0.320723538531  0.144938011577
CG3C51  OC301     1  0.316269044940  0.132309697301
CG3C51  OC302     1  0.316269044940  0.132309697301
CG3C51  OC303     1  0.316269044940  0.132309697301
CG3C51 OC305A     1  0.316269044940  0.132309697301
CG3C51  OC30A     1  0.316269044940  0.132309697301
CG3C51  OC30P     1  0.326959829558  0.163176000000
CG3C51  OC311     1  0.326514380198  0.183381431383
CG3C51 OC311M     1  0.326514380198  0.183381431383
CG3C51  OC312     1  0.326959829558  0.163176000000
CG3C51 OC3C51     1  0.316269044940  0.132309697301
CG3C51 OC3C5M     1  0.316269044940  0.132309697301
CG3C51 OC3C61     1  0.316269044940  0.132309697301
CG3C51    OCA     1  0.293996576986  0.144938011577
CG3C51    OCL     1  0.320723538531  0.144938011577
CG3C51  OG2D1     1  0.293996576986  0.144938011577
CG3C51  OG2D2     1  0.320723538531  0.144938011577
CG3C51  OG2D3     1  0.293996576986  0.144938011577
CG3C51  OG2D4     1  0.320723538531  0.144938011577
CG3C51  OG2D5     1  0.320010819556  0.169954883425
CG3C51  OG2N1     1  0.320723538531  0.144938011577
CG3C51  OG2P1     1  0.320723538531  0.144938011577
CG3C51 OG2R50     1  0.320723538531  0.144938011577
CG3C51  OG2S1     1  0.318906105146  0.157831660601
CG3C51  OG301     1  0.316269044940  0.132309697301
CG3C51  OG302     1  0.316269044940  0.132309697301
CG3C51  OG303     1  0.316269044940  0.132309697301
CG3C51  OG304     1  0.316269044940  0.132309697301
CG3C51  OG311     1  0.326514380198  0.183381431383
CG3C51  OG312     1  0.325178032121  0.144938011577
CG3C51 OG3C31     1  0.316269044940  0.132309697301
CG3C51 OG3C51     1  0.316269044940  0.132309697301
CG3C51 OG3C61     1  0.316269044940  0.132309697301
CG3C51 OG3R60     1  0.316269044940  0.132309697301
CG3C51    OH1     1  0.326959829558  0.163176000000
CG3C51    OHL     1  0.326959829558  0.163176000000
CG3C51   OLG1     1  0.293996576986  0.144938011577
CG3C51   OLG2     1  0.320723538531  0.144938011577
CG3C51   OLG3     1  0.320723538531  0.144938011577
CG3C51   OLG4     1  0.316269044940  0.132309697301
CG3C51   OLG5     1  0.316269044940  0.132309697301
CG3C51   OLG6     1  0.326514380198  0.183381431383
CG3C51   OLG7     1  0.316269044940  0.132309697301
CG3C51   OLG8     1  0.316269044940  0.132309697301
CG3C51     OM     1  0.320723538531  0.144938011577
CG3C51    ON1     1  0.320723538531  0.144938011577
CG3C51   ON1C     1  0.320723538531  0.144938011577
CG3C51    ON2     1  0.326959829558  0.163176000000
CG3C51   ON2B     1  0.326959829558  0.163176000000
CG3C51   ON2M     1  0.316269044940  0.132309697301
CG3C51    ON3     1  0.320723538531  0.144938011577
CG3C51    ON4     1  0.326959829558  0.163176000000
CG3C51    ON5     1  0.326959829558  0.163176000000
CG3C51    ON6     1  0.326959829558  0.163176000000
CG3C51   ON6B     1  0.326959829558  0.163176000000
CG3C51   OPER     1  0.318427692534  0.188901923946
CG3C51     OS     1  0.326959829558  0.163176000000
CG3C51   OSIA     1  0.326959829558  0.163176000000
CG3C51   OSIE     1  0.326959829558  0.163176000000
CG3C51   OSIH     1  0.326959829558  0.163176000000
CG3C51    OSL     1  0.316269044940  0.132309697301
CG3C51   OSLP     1  0.316269044940  0.132309697301
CG3C51    OST     1  0.320010819556  0.169954883425
CG3C51     OT     1  0.326799467788  0.163176000000
CG3C51     OX     1  0.320723538531  0.144938011577
CG3C51      P     1  0.360813980847  0.320014464673
CG3C51     P2     1  0.360813980847  0.320014464673
CG3C51     P3     1  0.360813980847  0.320014464673
CG3C51     P4     1  0.360813980847  0.320014464673
CG3C51     PB     1  0.328073452955  0.716185437439
CG3C51   PB2P     1  0.325890751096  0.204716924713
CG3C51     PC     1  0.360813980847  0.320014464673
CG3C51     PD     1  0.294842930769  1.037598257516
CG3C51   PD2P     1  0.251865976605  0.174628752363
CG3C51    PG0     1  0.360813980847  0.320014464673
CG3C51    PG1     1  0.360813980847  0.320014464673
CG3C51    PG2     1  0.360813980847  0.320014464673
CG3C51     PL     1  0.360813980847  0.320014464673
CG3C51   PM3P     1  0.316910492017  0.176275053255
CG3C51    POT     1  0.326403017859  0.123410269913
CG3C51   PR3P     1  0.317079762773  0.178642591472
CG3C51     PT     1  0.296001099102  1.168527606863
CG3C51   PT2P     1  0.240284293270  0.168973521997
CG3C51   PU3P     1  0.318024115415  0.179522368790
CG3C51   RA2P     1  0.355459679551  0.229891668540
CG3C51   RH3P     1  0.210367914314  0.149983415617
CG3C51    RUB     1  0.338541512893  0.162045623205
CG3C51      S     1  0.347450500075  0.280671252536
CG3C51     SC     1  0.356359487256  0.286840588481
CG3C51   SC3P     1  0.266993436839  0.157109060719
CG3C51  SEGD1     1  0.363041227642  0.330244580395
CG3C51  SG2D1     1  0.351904993665  0.314496560236
CG3C51  SG2P1     1  0.355798221064  0.332305491450
CG3C51  SG2P2     1  0.352314807076  0.329421919951
CG3C51 SG2R50     1  0.347450500075  0.280671252536
CG3C51  SG301     1  0.345223253279  0.257919081884
CG3C51  SG302     1  0.365268474438  0.286840588481
CG3C51  SG311     1  0.347450500075  0.280671252536
CG3C51  SG3O1     1  0.356359487256  0.286840588481
CG3C51  SG3O2     1  0.347450500075  0.247528778125
CG3C51  SG3O3     1  0.347450500075  0.247528778125
CG3C51     SI     1  0.365268474438  0.324091246411
CG3C51   SIH3     1  0.365268474438  0.324091246411
CG3C51     SL     1  0.356359487256  0.286840588481
CG3C51     SM     1  0.345223253279  0.257919081884
CG3C51   SM2P     1  0.334666103469  0.207012887251
CG3C51   SM3P     1  0.308847858618  0.175378986746
CG3C51   SN2P     1  0.316981763914  0.181365662197
CG3C51    SOD     1  0.294954293108  0.090610410351
CG3C51     SP     1  0.365268474438  0.280671252536
CG3C51   SR2P     1  0.334612649546  0.200133451797
CG3C51     SS     1  0.365268474438  0.286840588481
CG3C51   TB3P     1  0.300678317372  0.172155203837
CG3C51   TI1P     1  0.341276571958  0.266826378666
CG3C51   TI3P     1  0.243117351193  0.149983415617
CG3C51   TL3P     1  0.246716582015  0.168869889039
CG3C51   TM3P     1  0.289417357575  0.168402751521
CG3C51    U3P     1  0.320830446377  0.182184255566
CG3C51    V2P     1  0.267599247968  0.167830039933
CG3C51    V3P     1  0.223989755715  0.147096016316
CG3C51    Y3P     1  0.295190381269  0.170263611896
CG3C51   YB2P     1  0.312616360195  0.189623385225
CG3C51   YB3P     1  0.284659958420  0.167569069413
CG3C51     ZN     1  0.266378716724  0.209200000000
CG3C52 CG3C52     1  0.338541512893  0.041840000000
CG3C52 CG3C53     1  0.338541512893  0.041840000000
CG3C52 CG3C54     1  0.338541512893  0.041840000000
CG3C52 CG3RC1     1  0.338541512893  0.041840000000
CG3C52     CL     1  0.347450500075  0.110698234855
CG3C52    CLA     1  0.371504765465  0.162045623205
CG3C52   CLAL     1  0.339272049842  0.072469005789
CG3C52  CLG01     1  0.355468588538  0.109105371453
CG3C52  CLG02     1  0.355468588538  0.109105371453
CG3C52  CLG03     1  0.320723538531  0.130979917850
CG3C52  CLG04     1  0.347450500075  0.110698234855
CG3C52  CLG05     1  0.329632525712  0.102486650838
CG3C52  CLG06     1  0.346773417049  0.110698234855
CG3C52 CLG06A     1  0.346773417049  0.110698234855
CG3C52 CLG06B     1  0.346773417049  0.110698234855
CG3C52  CLG07     1  0.338541512893  0.125520000000
CG3C52  CLG08     1  0.338541512893  0.132309697301
CG3C52  CLG09     1  0.346773417049  0.110698234855
CG3C52  CLG10     1  0.334977918021  0.131646486622
CG3C52  CLG11     1  0.338541512893  0.041840000000
CG3C52  CLG12     1  0.338541512893  0.041840000000
CG3C52  CLG13     1  0.338541512893  0.041840000000
CG3C52  CLG14     1  0.338541512893  0.041840000000
CG3C52  CLG15     1  0.338541512893  0.041840000000
CG3C52  CLG16     1  0.338541512893  0.041840000000
CG3C52  CLGA1     1  0.339432411611  0.245040988571
CG3C52  CLGA3     1  0.339432411611  0.232955260941
CG3C52  CLGR1     1  0.334977918021  0.200657590935
CG3C52     CM     1  0.356359487256  0.138767581228
CG3C52     CN     1  0.325178032121  0.187114168357
CG3C52    CN1     1  0.338541512893  0.132309697301
CG3C52   CN1A     1  0.347450500075  0.110698234855
CG3C52   CN1T     1  0.338541512893  0.132309697301
CG3C52    CN2     1  0.338541512893  0.132309697301
CG3C52    CN3     1  0.338541512893  0.125520000000
CG3C52   CN3A     1  0.329632525712  0.177512086349
CG3C52   CN3B     1  0.329632525712  0.177512086349
CG3C52   CN3C     1  0.329632525712  0.177512086349
CG3C52   CN3D     1  0.338541512893  0.125520000000
CG3C52   CN3T     1  0.338541512893  0.125520000000
CG3C52    CN4     1  0.338541512893  0.114583559030
CG3C52    CN5     1  0.338541512893  0.114583559030
CG3C52   CN5G     1  0.338541512893  0.114583559030
CG3C52    CN6     1  0.338541512893  0.041840000000
CG3C52    CN7     1  0.338541512893  0.041840000000
CG3C52   CN7B     1  0.338541512893  0.041840000000
CG3C52   CN7E     1  0.338541512893  0.041840000000
CG3C52    CN8     1  0.338541512893  0.041840000000
CG3C52   CN8B     1  0.338541512893  0.041840000000
CG3C52    CN9     1  0.338541512893  0.041840000000
CG3C52    CNA     1  0.346773417049  0.110698234855
CG3C52   CNA2     1  0.338541512893  0.110698234855
CG3C52   CNE1     1  0.355468588538  0.109105371453
CG3C52   CNE2     1  0.354577689820  0.105847757841
CG3C52    CNG     1  0.347450500075  0.138767581228
CG3C52   CO2P     1  0.251910521541  0.164138698618
CG3C52   CO3P     1  0.192264852362  0.144393471099
CG3C52    COA     1  0.347450500075  0.138767581228
CG3C52    CP1     1  0.338541512893  0.041840000000
CG3C52    CP2     1  0.338541512893  0.041840000000
CG3C52    CP3     1  0.338541512893  0.041840000000
CG3C52    CPA     1  0.329632525712  0.125520000000
CG3C52    CPB     1  0.329632525712  0.125520000000
CG3C52   CPD1     1  0.338541512893  0.041840000000
CG3C52   CPH1     1  0.329632525712  0.093557084179
CG3C52   CPH2     1  0.329632525712  0.093557084179
CG3C52    CPM     1  0.329632525712  0.125520000000
CG3C52    CPT     1  0.334977918021  0.131646486622
CG3C52   CR2P     1  0.263634748672  0.170828164985
CG3C52   CR33     1  0.338541512893  0.041840000000
CG3C52   CR3P     1  0.244382427373  0.145299904804
CG3C52   CRL1     1  0.338541512893  0.041840000000
CG3C52   CRL2     1  0.338541512893  0.041840000000
CG3C52   CRN1     1  0.347450500075  0.138767581228
CG3C52     CS     1  0.365268474438  0.138767581228
CG3C52    CST     1  0.308518226092  0.100764063435
CG3C52     CT     1  0.338541512893  0.041840000000
CG3C52    CT1     1  0.338541512893  0.041840000000
CG3C52   CT1X     1  0.338541512893  0.041840000000
CG3C52    CT2     1  0.338541512893  0.041840000000
CG3C52   CT2A     1  0.338541512893  0.041840000000
CG3C52   CT2P     1  0.338541512893  0.041840000000
CG3C52   CT2X     1  0.338541512893  0.041840000000
CG3C52    CT3     1  0.338541512893  0.041840000000
CG3C52   CT3X     1  0.338541512893  0.041840000000
CG3C52   CTD1     1  0.338541512893  0.041840000000
CG3C52   CTL1     1  0.338541512893  0.041840000000
CG3C52   CTL2     1  0.338541512893  0.041840000000
CG3C52   CTL3     1  0.338541512893  0.041840000000
CG3C52   CTL5     1  0.338541512893  0.041840000000
CG3C52   CTO1     1  0.338541512893  0.041840000000
CG3C52   CTO2     1  0.338541512893  0.041840000000
CG3C52     CU     1  0.285800308779  0.908997471504
CG3C52   CU1P     1  0.246066225950  0.180057894334
CG3C52   CU2P     1  0.233869822499  0.162315474555
CG3C52     CY     1  0.346559601357  0.113045454929
CG3C52    DUM     1  0.169270756447  0.000000000000
CG3C52   DY3P     1  0.297952167295  0.171135318061
CG3C52   ER3P     1  0.291083338178  0.169232326746
CG3C52   EU2P     1  0.333231756533  0.203602227414
CG3C52   EU3P     1  0.304954631219  0.174528477447
CG3C52     F1     1  0.314487247504  0.153729976257
CG3C52     F2     1  0.314487247504  0.135577095411
CG3C52     F3     1  0.311814551349  0.130309939452
CG3C52     FA     1  0.320723538531  0.144938011577
CG3C52     FE     1  0.227179173126  0.000000000000
CG3C52   FE2P     1  0.265496726993  0.167098295383
CG3C52   FE3P     1  0.219722350855  0.148045032716
CG3C52   FGA1     1  0.314487247504  0.153729976257
CG3C52   FGA2     1  0.314487247504  0.135577095411
CG3C52   FGA3     1  0.311814551349  0.130309939452
CG3C52   FGP1     1  0.311814551349  0.130309939452
CG3C52   FGR1     1  0.320723538531  0.144938011577
CG3C52    FNA     1  0.320723538531  0.144938011577
CG3C52   GA3P     1  0.189485248361  0.145299904804
CG3C52   GD3P     1  0.303351013527  0.173673803114
CG3C52      H     1  0.189271432669  0.089736802707
CG3C52     HA     1  0.286869387241  0.062058748940
CG3C52    HA1     1  0.288651184677  0.088756043175
CG3C52    HA2     1  0.288651184677  0.077149148019
CG3C52    HA3     1  0.288651184677  0.064818249282
CG3C52    HAL     1  0.286869387241  0.062058748940
CG3C52   HAL1     1  0.286869387241  0.062058748940
CG3C52   HAL2     1  0.288651184677  0.070011711020
CG3C52   HAL3     1  0.288651184677  0.064818249282
CG3C52     HB     1  0.286869387241  0.062058748940
CG3C52    HB1     1  0.286869387241  0.062058748940
CG3C52    HB2     1  0.288651184677  0.070011711020
CG3C52    HBL     1  0.286869387241  0.062058748940
CG3C52     HC     1  0.189271432669  0.089736802707
CG3C52   HCA1     1  0.288651184677  0.088756043175
CG3C52  HCA1A     1  0.288651184677  0.088756043175
CG3C52 HCA1C2     1  0.288651184677  0.088756043175
CG3C52   HCA2     1  0.288651184677  0.078275472531
CG3C52 HCA25A     1  0.285087589805  0.078275472531
CG3C52  HCA2A     1  0.288651184677  0.078275472531
CG3C52 HCA2C2     1  0.285087589805  0.078275472531
CG3C52   HCA3     1  0.288651184677  0.064818249282
CG3C52  HCA3A     1  0.288651184677  0.064818249282
CG3C52  HCA3M     1  0.288651184677  0.064818249282
CG3C52    HCL     1  0.189271432669  0.089736802707
CG3C52   HCP1     1  0.189271432669  0.089736802707
CG3C52  HCP1M     1  0.189271432669  0.089736802707
CG3C52   HCR1     1  0.240542653898  0.089736802707
CG3C52     HE     1  0.301123766731  0.061020452073
CG3C52    HE1     1  0.280633096214  0.073666921749
CG3C52    HE2     1  0.281523994932  0.067464972838
CG3C52   HEL1     1  0.280633096214  0.073666921749
CG3C52   HEL2     1  0.281523994932  0.067464972838
CG3C52    HF1     1  0.286869387241  0.070011711020
CG3C52    HF2     1  0.285087589805  0.072469005789
CG3C52   HG2P     1  0.274557166956  0.189623385225
CG3C52   HGA1     1  0.288651184677  0.088756043175
CG3C52   HGA2     1  0.288651184677  0.078275472531
CG3C52   HGA3     1  0.288651184677  0.064818249282
CG3C52   HGA4     1  0.280633096214  0.073666921749
CG3C52   HGA5     1  0.281523994932  0.067464972838
CG3C52   HGA6     1  0.286869387241  0.070011711020
CG3C52   HGA7     1  0.285087589805  0.072469005789
CG3C52 HGAAM0     1  0.283305792369  0.070011711020
CG3C52 HGAAM1     1  0.283305792369  0.070011711020
CG3C52 HGAAM2     1  0.281523994932  0.083680000000
CG3C52   HGP1     1  0.189271432669  0.089736802707
CG3C52   HGP2     1  0.189271432669  0.089736802707
CG3C52   HGP3     1  0.209361198763  0.132309697301
CG3C52   HGP4     1  0.189271432669  0.089736802707
CG3C52   HGP5     1  0.231633666716  0.089736802707
CG3C52 HGPAM1     1  0.247224394284  0.039692909190
CG3C52 HGPAM2     1  0.247224394284  0.041840000000
CG3C52 HGPAM3     1  0.246778944925  0.045833423612
CG3C52  HGR51     1  0.290272620344  0.072469005789
CG3C52  HGR52     1  0.249451641079  0.089736802707
CG3C52  HGR53     1  0.231633666716  0.089736802707
CG3C52  HGR61     1  0.290272620344  0.072469005789
CG3C52  HGR62     1  0.267269615442  0.089736802707
CG3C52  HGR63     1  0.249451641079  0.089736802707
CG3C52  HGR71     1  0.290272620344  0.072469005789
CG3C52     HL     1  0.231633666716  0.089736802707
CG3C52  HLGA1     1  0.288651184677  0.088756043175
CG3C52  HLGA2     1  0.288651184677  0.078275472531
CG3C52  HLGA3     1  0.288651184677  0.064818249282
CG3C52  HLGA4     1  0.280633096214  0.073666921749
CG3C52  HLGP1     1  0.189271432669  0.089736802707
CG3C52 HLGR52     1  0.249451641079  0.089736802707
CG3C52 HLGR61     1  0.290272620344  0.072469005789
CG3C52 HLGR62     1  0.267269615442  0.089736802707
CG3C52    HN1     1  0.189271432669  0.089736802707
CG3C52    HN2     1  0.189271432669  0.089736802707
CG3C52    HN3     1  0.267269615442  0.089736802707
CG3C52   HN3B     1  0.249451641079  0.089736802707
CG3C52    HN4     1  0.189271432669  0.089736802707
CG3C52    HN5     1  0.189271432669  0.089736802707
CG3C52    HN6     1  0.286869387241  0.062058748940
CG3C52    HN7     1  0.286869387241  0.062058748940
CG3C52    HN8     1  0.288651184677  0.070011711020
CG3C52    HN9     1  0.288651184677  0.064818249282
CG3C52   HNE1     1  0.280633096214  0.073666921749
CG3C52   HNE2     1  0.281523994932  0.067464972838
CG3C52    HNP     1  0.290272620344  0.072469005789
CG3C52   HO3P     1  0.293168041178  0.170263611896
CG3C52    HOL     1  0.189271432669  0.089736802707
CG3C52     HP     1  0.290272620344  0.072469005789
CG3C52   HPER     1  0.189271432669  0.089736802707
CG3C52    HR1     1  0.249451641079  0.089736802707
CG3C52    HR2     1  0.231633666716  0.089736802707
CG3C52    HR3     1  0.300054688270  0.036952087465
CG3C52   HRA3     1  0.288651184677  0.064818249282
CG3C52   HRM1     1  0.247224394284  0.039692909190
CG3C52   HRM2     1  0.247224394284  0.041840000000
CG3C52   HRP2     1  0.189271432669  0.089736802707
CG3C52     HS     1  0.209361198763  0.132309697301
CG3C52   HSIA     1  0.286869387241  0.062058748940
CG3C52   HSIO     1  0.189271432669  0.089736802707
CG3C52     HT     1  0.189271432669  0.089736802707
CG3C52     HX     1  0.189271432669  0.089736802707
CG3C52   IGR1     1  0.368832069310  0.301712530731
CG3C52   IN3P     1  0.246449312399  0.160580590010
CG3C52   LA3P     1  0.327200372211  0.182184255566
CG3C52    LIT     1  0.284864865125  0.020196198771
CG3C52    LPH     1  0.169270756447  0.000000000000
CG3C52   LU3P     1  0.289648991242  0.166731218816
CG3C52     MG     1  0.274842254546  0.051243325419
CG3C52   MN2P     1  0.276508235149  0.171747976291
CG3C52   MN3P     1  0.203516903172  0.148045032716
CG3C52      N     1  0.334087019303  0.004184000000
CG3C52     NC     1  0.334087019303  0.324091246411
CG3C52    NC2     1  0.334087019303  0.187114168357
CG3C52  NC2D1     1  0.307360057758  0.187114168357
CG3C52  NC311     1  0.347450500075  0.088756043175
CG3C52   ND3P     1  0.313587439798  0.177117175768
CG3C52     NE     1  0.305578260322  0.122698965603
CG3C52  NG1T1     1  0.328741626994  0.177512086349
CG3C52  NG2D1     1  0.334087019303  0.187114168357
CG3C52  NG2O1     1  0.334087019303  0.187114168357
CG3C52  NG2P1     1  0.334087019303  0.187114168357
CG3C52 NG2R43     1  0.334087019303  0.187114168357
CG3C52 NG2R50     1  0.334087019303  0.187114168357
CG3C52 NG2R51     1  0.334087019303  0.187114168357
CG3C52 NG2R52     1  0.334087019303  0.187114168357
CG3C52 NG2R53     1  0.334087019303  0.187114168357
CG3C52 NG2R57     1  0.334087019303  0.187114168357
CG3C52 NG2R60     1  0.337650614175  0.102486650838
CG3C52 NG2R61     1  0.334087019303  0.187114168357
CG3C52 NG2R62     1  0.352795892384  0.093557084179
CG3C52 NG2R67     1  0.334087019303  0.187114168357
CG3C52 NG2RC0     1  0.334087019303  0.187114168357
CG3C52  NG2S0     1  0.334087019303  0.004184000000
CG3C52  NG2S1     1  0.307360057758  0.187114168357
CG3C52  NG2S2     1  0.334087019303  0.187114168357
CG3C52  NG2S3     1  0.334087019303  0.187114168357
CG3C52  NG301     1  0.347450500075  0.078275472531
CG3C52  NG311     1  0.347450500075  0.088756043175
CG3C52  NG321     1  0.346559601357  0.102486650838
CG3C52  NG331     1  0.345668702638  0.110698234855
CG3C52 NG3C51     1  0.334087019303  0.187114168357
CG3C52  NG3N1     1  0.351904993665  0.102486650838
CG3C52  NG3P0     1  0.334087019303  0.187114168357
CG3C52  NG3P1     1  0.334087019303  0.187114168357
CG3C52  NG3P2     1  0.334087019303  0.187114168357
CG3C52  NG3P3     1  0.334087019303  0.187114168357
CG3C52    NH1     1  0.307360057758  0.187114168357
CG3C52    NH2     1  0.334087019303  0.187114168357
CG3C52    NH3     1  0.334087019303  0.187114168357
CG3C52   NH3L     1  0.334087019303  0.187114168357
CG3C52    NHL     1  0.307360057758  0.187114168357
CG3C52     NI     1  0.282949432881  0.994525446633
CG3C52   NI2P     1  0.238787583423  0.158440517242
CG3C52    NN1     1  0.334087019303  0.187114168357
CG3C52   NN1C     1  0.334087019303  0.187114168357
CG3C52    NN2     1  0.334087019303  0.187114168357
CG3C52   NN2B     1  0.334087019303  0.187114168357
CG3C52   NN2C     1  0.334087019303  0.187114168357
CG3C52   NN2G     1  0.334087019303  0.187114168357
CG3C52   NN2U     1  0.334087019303  0.187114168357
CG3C52    NN3     1  0.334087019303  0.187114168357
CG3C52   NN3A     1  0.334087019303  0.187114168357
CG3C52   NN3G     1  0.334087019303  0.187114168357
CG3C52   NN3I     1  0.334087019303  0.187114168357
CG3C52    NN4     1  0.334087019303  0.187114168357
CG3C52    NN6     1  0.334087019303  0.187114168357
CG3C52    NNG     1  0.334087019303  0.187114168357
CG3C52     NP     1  0.334087019303  0.187114168357
CG3C52    NPH     1  0.334087019303  0.187114168357
CG3C52    NR1     1  0.334087019303  0.187114168357
CG3C52    NR2     1  0.334087019303  0.187114168357
CG3C52    NR3     1  0.334087019303  0.187114168357
CG3C52   NRC4     1  0.334087019303  0.187114168357
CG3C52   NRN1     1  0.347450500075  0.280671252536
CG3C52   NRN2     1  0.346559601357  0.102486650838
CG3C52    NS1     1  0.334087019303  0.187114168357
CG3C52    NS2     1  0.334087019303  0.187114168357
CG3C52    NTL     1  0.334087019303  0.187114168357
CG3C52     NY     1  0.334087019303  0.187114168357
CG3C52      O     1  0.293996576986  0.144938011577
CG3C52    O2L     1  0.320723538531  0.144938011577
CG3C52    OAL     1  0.326959829558  0.163176000000
CG3C52     OB     1  0.293996576986  0.144938011577
CG3C52    OBL     1  0.293996576986  0.144938011577
CG3C52     OC     1  0.320723538531  0.144938011577
CG3C52  OC2D1     1  0.293996576986  0.144938011577
CG3C52  OC2D2     1  0.320723538531  0.144938011577
CG3C52  OC2D3     1  0.293996576986  0.144938011577
CG3C52  OC2D4     1  0.293996576986  0.144938011577
CG3C52  OC2DP     1  0.320723538531  0.144938011577
CG3C52  OC301     1  0.316269044940  0.132309697301
CG3C52  OC302     1  0.316269044940  0.132309697301
CG3C52  OC303     1  0.316269044940  0.132309697301
CG3C52 OC305A     1  0.316269044940  0.132309697301
CG3C52  OC30A     1  0.316269044940  0.132309697301
CG3C52  OC30P     1  0.326959829558  0.163176000000
CG3C52  OC311     1  0.326514380198  0.183381431383
CG3C52 OC311M     1  0.326514380198  0.183381431383
CG3C52  OC312     1  0.326959829558  0.163176000000
CG3C52 OC3C51     1  0.316269044940  0.132309697301
CG3C52 OC3C5M     1  0.316269044940  0.132309697301
CG3C52 OC3C61     1  0.316269044940  0.132309697301
CG3C52    OCA     1  0.293996576986  0.144938011577
CG3C52    OCL     1  0.320723538531  0.144938011577
CG3C52  OG2D1     1  0.293996576986  0.144938011577
CG3C52  OG2D2     1  0.320723538531  0.144938011577
CG3C52  OG2D3     1  0.293996576986  0.144938011577
CG3C52  OG2D4     1  0.320723538531  0.144938011577
CG3C52  OG2D5     1  0.320010819556  0.169954883425
CG3C52  OG2N1     1  0.320723538531  0.144938011577
CG3C52  OG2P1     1  0.320723538531  0.144938011577
CG3C52 OG2R50     1  0.320723538531  0.144938011577
CG3C52  OG2S1     1  0.318906105146  0.157831660601
CG3C52  OG301     1  0.316269044940  0.132309697301
CG3C52  OG302     1  0.316269044940  0.132309697301
CG3C52  OG303     1  0.316269044940  0.132309697301
CG3C52  OG304     1  0.316269044940  0.132309697301
CG3C52  OG311     1  0.326514380198  0.183381431383
CG3C52  OG312     1  0.325178032121  0.144938011577
CG3C52 OG3C31     1  0.316269044940  0.132309697301
CG3C52 OG3C51     1  0.316269044940  0.132309697301
CG3C52 OG3C61     1  0.316269044940  0.132309697301
CG3C52 OG3R60     1  0.316269044940  0.132309697301
CG3C52    OH1     1  0.326959829558  0.163176000000
CG3C52    OHL     1  0.326959829558  0.163176000000
CG3C52   OLG1     1  0.293996576986  0.144938011577
CG3C52   OLG2     1  0.320723538531  0.144938011577
CG3C52   OLG3     1  0.320723538531  0.144938011577
CG3C52   OLG4     1  0.316269044940  0.132309697301
CG3C52   OLG5     1  0.316269044940  0.132309697301
CG3C52   OLG6     1  0.326514380198  0.183381431383
CG3C52   OLG7     1  0.316269044940  0.132309697301
CG3C52   OLG8     1  0.316269044940  0.132309697301
CG3C52     OM     1  0.320723538531  0.144938011577
CG3C52    ON1     1  0.320723538531  0.144938011577
CG3C52   ON1C     1  0.320723538531  0.144938011577
CG3C52    ON2     1  0.326959829558  0.163176000000
CG3C52   ON2B     1  0.326959829558  0.163176000000
CG3C52   ON2M     1  0.316269044940  0.132309697301
CG3C52    ON3     1  0.320723538531  0.144938011577
CG3C52    ON4     1  0.326959829558  0.163176000000
CG3C52    ON5     1  0.326959829558  0.163176000000
CG3C52    ON6     1  0.326959829558  0.163176000000
CG3C52   ON6B     1  0.326959829558  0.163176000000
CG3C52   OPER     1  0.318427692534  0.188901923946
CG3C52     OS     1  0.326959829558  0.163176000000
CG3C52   OSIA     1  0.326959829558  0.163176000000
CG3C52   OSIE     1  0.326959829558  0.163176000000
CG3C52   OSIH     1  0.326959829558  0.163176000000
CG3C52    OSL     1  0.316269044940  0.132309697301
CG3C52   OSLP     1  0.316269044940  0.132309697301
CG3C52    OST     1  0.320010819556  0.169954883425
CG3C52     OT     1  0.326799467788  0.163176000000
CG3C52     OX     1  0.320723538531  0.144938011577
CG3C52      P     1  0.360813980847  0.320014464673
CG3C52     P2     1  0.360813980847  0.320014464673
CG3C52     P3     1  0.360813980847  0.320014464673
CG3C52     P4     1  0.360813980847  0.320014464673
CG3C52     PB     1  0.328073452955  0.716185437439
CG3C52   PB2P     1  0.325890751096  0.204716924713
CG3C52     PC     1  0.360813980847  0.320014464673
CG3C52     PD     1  0.294842930769  1.037598257516
CG3C52   PD2P     1  0.251865976605  0.174628752363
CG3C52    PG0     1  0.360813980847  0.320014464673
CG3C52    PG1     1  0.360813980847  0.320014464673
CG3C52    PG2     1  0.360813980847  0.320014464673
CG3C52     PL     1  0.360813980847  0.320014464673
CG3C52   PM3P     1  0.316910492017  0.176275053255
CG3C52    POT     1  0.326403017859  0.123410269913
CG3C52   PR3P     1  0.317079762773  0.178642591472
CG3C52     PT     1  0.296001099102  1.168527606863
CG3C52   PT2P     1  0.240284293270  0.168973521997
CG3C52   PU3P     1  0.318024115415  0.179522368790
CG3C52   RA2P     1  0.355459679551  0.229891668540
CG3C52   RH3P     1  0.210367914314  0.149983415617
CG3C52    RUB     1  0.338541512893  0.162045623205
CG3C52      S     1  0.347450500075  0.280671252536
CG3C52     SC     1  0.356359487256  0.286840588481
CG3C52   SC3P     1  0.266993436839  0.157109060719
CG3C52  SEGD1     1  0.363041227642  0.330244580395
CG3C52  SG2D1     1  0.351904993665  0.314496560236
CG3C52  SG2P1     1  0.355798221064  0.332305491450
CG3C52  SG2P2     1  0.352314807076  0.329421919951
CG3C52 SG2R50     1  0.347450500075  0.280671252536
CG3C52  SG301     1  0.345223253279  0.257919081884
CG3C52  SG302     1  0.365268474438  0.286840588481
CG3C52  SG311     1  0.347450500075  0.280671252536
CG3C52  SG3O1     1  0.356359487256  0.286840588481
CG3C52  SG3O2     1  0.347450500075  0.247528778125
CG3C52  SG3O3     1  0.347450500075  0.247528778125
CG3C52     SI     1  0.365268474438  0.324091246411
CG3C52   SIH3     1  0.365268474438  0.324091246411
CG3C52     SL     1  0.356359487256  0.286840588481
CG3C52     SM     1  0.345223253279  0.257919081884
CG3C52   SM2P     1  0.334666103469  0.207012887251
CG3C52   SM3P     1  0.308847858618  0.175378986746
CG3C52   SN2P     1  0.316981763914  0.181365662197
CG3C52    SOD     1  0.294954293108  0.090610410351
CG3C52     SP     1  0.365268474438  0.280671252536
CG3C52   SR2P     1  0.334612649546  0.200133451797
CG3C52     SS     1  0.365268474438  0.286840588481
CG3C52   TB3P     1  0.300678317372  0.172155203837
CG3C52   TI1P     1  0.341276571958  0.266826378666
CG3C52   TI3P     1  0.243117351193  0.149983415617
CG3C52   TL3P     1  0.246716582015  0.168869889039
CG3C52   TM3P     1  0.289417357575  0.168402751521
CG3C52    U3P     1  0.320830446377  0.182184255566
CG3C52    V2P     1  0.267599247968  0.167830039933
CG3C52    V3P     1  0.223989755715  0.147096016316
CG3C52    Y3P     1  0.295190381269  0.170263611896
CG3C52   YB2P     1  0.312616360195  0.189623385225
CG3C52   YB3P     1  0.284659958420  0.167569069413
CG3C52     ZN     1  0.266378716724  0.209200000000
CG3C53 CG3C53     1  0.338541512893  0.041840000000
CG3C53 CG3C54     1  0.338541512893  0.041840000000
CG3C53 CG3RC1     1  0.338541512893  0.041840000000
CG3C53     CL     1  0.347450500075  0.110698234855
CG3C53    CLA     1  0.371504765465  0.162045623205
CG3C53   CLAL     1  0.339272049842  0.072469005789
CG3C53  CLG01     1  0.355468588538  0.109105371453
CG3C53  CLG02     1  0.355468588538  0.109105371453
CG3C53  CLG03     1  0.320723538531  0.130979917850
CG3C53  CLG04     1  0.347450500075  0.110698234855
CG3C53  CLG05     1  0.329632525712  0.102486650838
CG3C53  CLG06     1  0.346773417049  0.110698234855
CG3C53 CLG06A     1  0.346773417049  0.110698234855
CG3C53 CLG06B     1  0.346773417049  0.110698234855
CG3C53  CLG07     1  0.338541512893  0.125520000000
CG3C53  CLG08     1  0.338541512893  0.132309697301
CG3C53  CLG09     1  0.346773417049  0.110698234855
CG3C53  CLG10     1  0.334977918021  0.131646486622
CG3C53  CLG11     1  0.338541512893  0.041840000000
CG3C53  CLG12     1  0.338541512893  0.041840000000
CG3C53  CLG13     1  0.338541512893  0.041840000000
CG3C53  CLG14     1  0.338541512893  0.041840000000
CG3C53  CLG15     1  0.338541512893  0.041840000000
CG3C53  CLG16     1  0.338541512893  0.041840000000
CG3C53  CLGA1     1  0.339432411611  0.245040988571
CG3C53  CLGA3     1  0.339432411611  0.232955260941
CG3C53  CLGR1     1  0.334977918021  0.200657590935
CG3C53     CM     1  0.356359487256  0.138767581228
CG3C53     CN     1  0.325178032121  0.187114168357
CG3C53    CN1     1  0.338541512893  0.132309697301
CG3C53   CN1A     1  0.347450500075  0.110698234855
CG3C53   CN1T     1  0.338541512893  0.132309697301
CG3C53    CN2     1  0.338541512893  0.132309697301
CG3C53    CN3     1  0.338541512893  0.125520000000
CG3C53   CN3A     1  0.329632525712  0.177512086349
CG3C53   CN3B     1  0.329632525712  0.177512086349
CG3C53   CN3C     1  0.329632525712  0.177512086349
CG3C53   CN3D     1  0.338541512893  0.125520000000
CG3C53   CN3T     1  0.338541512893  0.125520000000
CG3C53    CN4     1  0.338541512893  0.114583559030
CG3C53    CN5     1  0.338541512893  0.114583559030
CG3C53   CN5G     1  0.338541512893  0.114583559030
CG3C53    CN6     1  0.338541512893  0.041840000000
CG3C53    CN7     1  0.338541512893  0.041840000000
CG3C53   CN7B     1  0.338541512893  0.041840000000
CG3C53   CN7E     1  0.338541512893  0.041840000000
CG3C53    CN8     1  0.338541512893  0.041840000000
CG3C53   CN8B     1  0.338541512893  0.041840000000
CG3C53    CN9     1  0.338541512893  0.041840000000
CG3C53    CNA     1  0.346773417049  0.110698234855
CG3C53   CNA2     1  0.338541512893  0.110698234855
CG3C53   CNE1     1  0.355468588538  0.109105371453
CG3C53   CNE2     1  0.354577689820  0.105847757841
CG3C53    CNG     1  0.347450500075  0.138767581228
CG3C53   CO2P     1  0.251910521541  0.164138698618
CG3C53   CO3P     1  0.192264852362  0.144393471099
CG3C53    COA     1  0.347450500075  0.138767581228
CG3C53    CP1     1  0.338541512893  0.041840000000
CG3C53    CP2     1  0.338541512893  0.041840000000
CG3C53    CP3     1  0.338541512893  0.041840000000
CG3C53    CPA     1  0.329632525712  0.125520000000
CG3C53    CPB     1  0.329632525712  0.125520000000
CG3C53   CPD1     1  0.338541512893  0.041840000000
CG3C53   CPH1     1  0.329632525712  0.093557084179
CG3C53   CPH2     1  0.329632525712  0.093557084179
CG3C53    CPM     1  0.329632525712  0.125520000000
CG3C53    CPT     1  0.334977918021  0.131646486622
CG3C53   CR2P     1  0.263634748672  0.170828164985
CG3C53   CR33     1  0.338541512893  0.041840000000
CG3C53   CR3P     1  0.244382427373  0.145299904804
CG3C53   CRL1     1  0.338541512893  0.041840000000
CG3C53   CRL2     1  0.338541512893  0.041840000000
CG3C53   CRN1     1  0.347450500075  0.138767581228
CG3C53     CS     1  0.365268474438  0.138767581228
CG3C53    CST     1  0.308518226092  0.100764063435
CG3C53     CT     1  0.338541512893  0.041840000000
CG3C53    CT1     1  0.338541512893  0.041840000000
CG3C53   CT1X     1  0.338541512893  0.041840000000
CG3C53    CT2     1  0.338541512893  0.041840000000
CG3C53   CT2A     1  0.338541512893  0.041840000000
CG3C53   CT2P     1  0.338541512893  0.041840000000
CG3C53   CT2X     1  0.338541512893  0.041840000000
CG3C53    CT3     1  0.338541512893  0.041840000000
CG3C53   CT3X     1  0.338541512893  0.041840000000
CG3C53   CTD1     1  0.338541512893  0.041840000000
CG3C53   CTL1     1  0.338541512893  0.041840000000
CG3C53   CTL2     1  0.338541512893  0.041840000000
CG3C53   CTL3     1  0.338541512893  0.041840000000
CG3C53   CTL5     1  0.338541512893  0.041840000000
CG3C53   CTO1     1  0.338541512893  0.041840000000
CG3C53   CTO2     1  0.338541512893  0.041840000000
CG3C53     CU     1  0.285800308779  0.908997471504
CG3C53   CU1P     1  0.246066225950  0.180057894334
CG3C53   CU2P     1  0.233869822499  0.162315474555
CG3C53     CY     1  0.346559601357  0.113045454929
CG3C53    DUM     1  0.169270756447  0.000000000000
CG3C53   DY3P     1  0.297952167295  0.171135318061
CG3C53   ER3P     1  0.291083338178  0.169232326746
CG3C53   EU2P     1  0.333231756533  0.203602227414
CG3C53   EU3P     1  0.304954631219  0.174528477447
CG3C53     F1     1  0.314487247504  0.153729976257
CG3C53     F2     1  0.314487247504  0.135577095411
CG3C53     F3     1  0.311814551349  0.130309939452
CG3C53     FA     1  0.320723538531  0.144938011577
CG3C53     FE     1  0.227179173126  0.000000000000
CG3C53   FE2P     1  0.265496726993  0.167098295383
CG3C53   FE3P     1  0.219722350855  0.148045032716
CG3C53   FGA1     1  0.314487247504  0.153729976257
CG3C53   FGA2     1  0.314487247504  0.135577095411
CG3C53   FGA3     1  0.311814551349  0.130309939452
CG3C53   FGP1     1  0.311814551349  0.130309939452
CG3C53   FGR1     1  0.320723538531  0.144938011577
CG3C53    FNA     1  0.320723538531  0.144938011577
CG3C53   GA3P     1  0.189485248361  0.145299904804
CG3C53   GD3P     1  0.303351013527  0.173673803114
CG3C53      H     1  0.189271432669  0.089736802707
CG3C53     HA     1  0.286869387241  0.062058748940
CG3C53    HA1     1  0.288651184677  0.088756043175
CG3C53    HA2     1  0.288651184677  0.077149148019
CG3C53    HA3     1  0.288651184677  0.064818249282
CG3C53    HAL     1  0.286869387241  0.062058748940
CG3C53   HAL1     1  0.286869387241  0.062058748940
CG3C53   HAL2     1  0.288651184677  0.070011711020
CG3C53   HAL3     1  0.288651184677  0.064818249282
CG3C53     HB     1  0.286869387241  0.062058748940
CG3C53    HB1     1  0.286869387241  0.062058748940
CG3C53    HB2     1  0.288651184677  0.070011711020
CG3C53    HBL     1  0.286869387241  0.062058748940
CG3C53     HC     1  0.189271432669  0.089736802707
CG3C53   HCA1     1  0.288651184677  0.088756043175
CG3C53  HCA1A     1  0.288651184677  0.088756043175
CG3C53 HCA1C2     1  0.288651184677  0.088756043175
CG3C53   HCA2     1  0.288651184677  0.078275472531
CG3C53 HCA25A     1  0.285087589805  0.078275472531
CG3C53  HCA2A     1  0.288651184677  0.078275472531
CG3C53 HCA2C2     1  0.285087589805  0.078275472531
CG3C53   HCA3     1  0.288651184677  0.064818249282
CG3C53  HCA3A     1  0.288651184677  0.064818249282
CG3C53  HCA3M     1  0.288651184677  0.064818249282
CG3C53    HCL     1  0.189271432669  0.089736802707
CG3C53   HCP1     1  0.189271432669  0.089736802707
CG3C53  HCP1M     1  0.189271432669  0.089736802707
CG3C53   HCR1     1  0.240542653898  0.089736802707
CG3C53     HE     1  0.301123766731  0.061020452073
CG3C53    HE1     1  0.280633096214  0.073666921749
CG3C53    HE2     1  0.281523994932  0.067464972838
CG3C53   HEL1     1  0.280633096214  0.073666921749
CG3C53   HEL2     1  0.281523994932  0.067464972838
CG3C53    HF1     1  0.286869387241  0.070011711020
CG3C53    HF2     1  0.285087589805  0.072469005789
CG3C53   HG2P     1  0.274557166956  0.189623385225
CG3C53   HGA1     1  0.288651184677  0.088756043175
CG3C53   HGA2     1  0.288651184677  0.078275472531
CG3C53   HGA3     1  0.288651184677  0.064818249282
CG3C53   HGA4     1  0.280633096214  0.073666921749
CG3C53   HGA5     1  0.281523994932  0.067464972838
CG3C53   HGA6     1  0.286869387241  0.070011711020
CG3C53   HGA7     1  0.285087589805  0.072469005789
CG3C53 HGAAM0     1  0.283305792369  0.070011711020
CG3C53 HGAAM1     1  0.283305792369  0.070011711020
CG3C53 HGAAM2     1  0.281523994932  0.083680000000
CG3C53   HGP1     1  0.189271432669  0.089736802707
CG3C53   HGP2     1  0.189271432669  0.089736802707
CG3C53   HGP3     1  0.209361198763  0.132309697301
CG3C53   HGP4     1  0.189271432669  0.089736802707
CG3C53   HGP5     1  0.231633666716  0.089736802707
CG3C53 HGPAM1     1  0.247224394284  0.039692909190
CG3C53 HGPAM2     1  0.247224394284  0.041840000000
CG3C53 HGPAM3     1  0.246778944925  0.045833423612
CG3C53  HGR51     1  0.290272620344  0.072469005789
CG3C53  HGR52     1  0.249451641079  0.089736802707
CG3C53  HGR53     1  0.231633666716  0.089736802707
CG3C53  HGR61     1  0.290272620344  0.072469005789
CG3C53  HGR62     1  0.267269615442  0.089736802707
CG3C53  HGR63     1  0.249451641079  0.089736802707
CG3C53  HGR71     1  0.290272620344  0.072469005789
CG3C53     HL     1  0.231633666716  0.089736802707
CG3C53  HLGA1     1  0.288651184677  0.088756043175
CG3C53  HLGA2     1  0.288651184677  0.078275472531
CG3C53  HLGA3     1  0.288651184677  0.064818249282
CG3C53  HLGA4     1  0.280633096214  0.073666921749
CG3C53  HLGP1     1  0.189271432669  0.089736802707
CG3C53 HLGR52     1  0.249451641079  0.089736802707
CG3C53 HLGR61     1  0.290272620344  0.072469005789
CG3C53 HLGR62     1  0.267269615442  0.089736802707
CG3C53    HN1     1  0.189271432669  0.089736802707
CG3C53    HN2     1  0.189271432669  0.089736802707
CG3C53    HN3     1  0.267269615442  0.089736802707
CG3C53   HN3B     1  0.249451641079  0.089736802707
CG3C53    HN4     1  0.189271432669  0.089736802707
CG3C53    HN5     1  0.189271432669  0.089736802707
CG3C53    HN6     1  0.286869387241  0.062058748940
CG3C53    HN7     1  0.286869387241  0.062058748940
CG3C53    HN8     1  0.288651184677  0.070011711020
CG3C53    HN9     1  0.288651184677  0.064818249282
CG3C53   HNE1     1  0.280633096214  0.073666921749
CG3C53   HNE2     1  0.281523994932  0.067464972838
CG3C53    HNP     1  0.290272620344  0.072469005789
CG3C53   HO3P     1  0.293168041178  0.170263611896
CG3C53    HOL     1  0.189271432669  0.089736802707
CG3C53     HP     1  0.290272620344  0.072469005789
CG3C53   HPER     1  0.189271432669  0.089736802707
CG3C53    HR1     1  0.249451641079  0.089736802707
CG3C53    HR2     1  0.231633666716  0.089736802707
CG3C53    HR3     1  0.300054688270  0.036952087465
CG3C53   HRA3     1  0.288651184677  0.064818249282
CG3C53   HRM1     1  0.247224394284  0.039692909190
CG3C53   HRM2     1  0.247224394284  0.041840000000
CG3C53   HRP2     1  0.189271432669  0.089736802707
CG3C53     HS     1  0.209361198763  0.132309697301
CG3C53   HSIA     1  0.286869387241  0.062058748940
CG3C53   HSIO     1  0.189271432669  0.089736802707
CG3C53     HT     1  0.189271432669  0.089736802707
CG3C53     HX     1  0.189271432669  0.089736802707
CG3C53   IGR1     1  0.368832069310  0.301712530731
CG3C53   IN3P     1  0.246449312399  0.160580590010
CG3C53   LA3P     1  0.327200372211  0.182184255566
CG3C53    LIT     1  0.284864865125  0.020196198771
CG3C53    LPH     1  0.169270756447  0.000000000000
CG3C53   LU3P     1  0.289648991242  0.166731218816
CG3C53     MG     1  0.274842254546  0.051243325419
CG3C53   MN2P     1  0.276508235149  0.171747976291
CG3C53   MN3P     1  0.203516903172  0.148045032716
CG3C53      N     1  0.334087019303  0.004184000000
CG3C53     NC     1  0.334087019303  0.324091246411
CG3C53    NC2     1  0.334087019303  0.187114168357
CG3C53  NC2D1     1  0.307360057758  0.187114168357
CG3C53  NC311     1  0.347450500075  0.088756043175
CG3C53   ND3P     1  0.313587439798  0.177117175768
CG3C53     NE     1  0.305578260322  0.122698965603
CG3C53  NG1T1     1  0.328741626994  0.177512086349
CG3C53  NG2D1     1  0.334087019303  0.187114168357
CG3C53  NG2O1     1  0.334087019303  0.187114168357
CG3C53  NG2P1     1  0.334087019303  0.187114168357
CG3C53 NG2R43     1  0.334087019303  0.187114168357
CG3C53 NG2R50     1  0.334087019303  0.187114168357
CG3C53 NG2R51     1  0.334087019303  0.187114168357
CG3C53 NG2R52     1  0.334087019303  0.187114168357
CG3C53 NG2R53     1  0.334087019303  0.187114168357
CG3C53 NG2R57     1  0.334087019303  0.187114168357
CG3C53 NG2R60     1  0.337650614175  0.102486650838
CG3C53 NG2R61     1  0.334087019303  0.187114168357
CG3C53 NG2R62     1  0.352795892384  0.093557084179
CG3C53 NG2R67     1  0.334087019303  0.187114168357
CG3C53 NG2RC0     1  0.334087019303  0.187114168357
CG3C53  NG2S0     1  0.334087019303  0.004184000000
CG3C53  NG2S1     1  0.307360057758  0.187114168357
CG3C53  NG2S2     1  0.334087019303  0.187114168357
CG3C53  NG2S3     1  0.334087019303  0.187114168357
CG3C53  NG301     1  0.347450500075  0.078275472531
CG3C53  NG311     1  0.347450500075  0.088756043175
CG3C53  NG321     1  0.346559601357  0.102486650838
CG3C53  NG331     1  0.345668702638  0.110698234855
CG3C53 NG3C51     1  0.334087019303  0.187114168357
CG3C53  NG3N1     1  0.351904993665  0.102486650838
CG3C53  NG3P0     1  0.334087019303  0.187114168357
CG3C53  NG3P1     1  0.334087019303  0.187114168357
CG3C53  NG3P2     1  0.334087019303  0.187114168357
CG3C53  NG3P3     1  0.334087019303  0.187114168357
CG3C53    NH1     1  0.307360057758  0.187114168357
CG3C53    NH2     1  0.334087019303  0.187114168357
CG3C53    NH3     1  0.334087019303  0.187114168357
CG3C53   NH3L     1  0.334087019303  0.187114168357
CG3C53    NHL     1  0.307360057758  0.187114168357
CG3C53     NI     1  0.282949432881  0.994525446633
CG3C53   NI2P     1  0.238787583423  0.158440517242
CG3C53    NN1     1  0.334087019303  0.187114168357
CG3C53   NN1C     1  0.334087019303  0.187114168357
CG3C53    NN2     1  0.334087019303  0.187114168357
CG3C53   NN2B     1  0.334087019303  0.187114168357
CG3C53   NN2C     1  0.334087019303  0.187114168357
CG3C53   NN2G     1  0.334087019303  0.187114168357
CG3C53   NN2U     1  0.334087019303  0.187114168357
CG3C53    NN3     1  0.334087019303  0.187114168357
CG3C53   NN3A     1  0.334087019303  0.187114168357
CG3C53   NN3G     1  0.334087019303  0.187114168357
CG3C53   NN3I     1  0.334087019303  0.187114168357
CG3C53    NN4     1  0.334087019303  0.187114168357
CG3C53    NN6     1  0.334087019303  0.187114168357
CG3C53    NNG     1  0.334087019303  0.187114168357
CG3C53     NP     1  0.334087019303  0.187114168357
CG3C53    NPH     1  0.334087019303  0.187114168357
CG3C53    NR1     1  0.334087019303  0.187114168357
CG3C53    NR2     1  0.334087019303  0.187114168357
CG3C53    NR3     1  0.334087019303  0.187114168357
CG3C53   NRC4     1  0.334087019303  0.187114168357
CG3C53   NRN1     1  0.347450500075  0.280671252536
CG3C53   NRN2     1  0.346559601357  0.102486650838
CG3C53    NS1     1  0.334087019303  0.187114168357
CG3C53    NS2     1  0.334087019303  0.187114168357
CG3C53    NTL     1  0.334087019303  0.187114168357
CG3C53     NY     1  0.334087019303  0.187114168357
CG3C53      O     1  0.293996576986  0.144938011577
CG3C53    O2L     1  0.320723538531  0.144938011577
CG3C53    OAL     1  0.326959829558  0.163176000000
CG3C53     OB     1  0.293996576986  0.144938011577
CG3C53    OBL     1  0.293996576986  0.144938011577
CG3C53     OC     1  0.320723538531  0.144938011577
CG3C53  OC2D1     1  0.293996576986  0.144938011577
CG3C53  OC2D2     1  0.320723538531  0.144938011577
CG3C53  OC2D3     1  0.293996576986  0.144938011577
CG3C53  OC2D4     1  0.293996576986  0.144938011577
CG3C53  OC2DP     1  0.320723538531  0.144938011577
CG3C53  OC301     1  0.316269044940  0.132309697301
CG3C53  OC302     1  0.316269044940  0.132309697301
CG3C53  OC303     1  0.316269044940  0.132309697301
CG3C53 OC305A     1  0.316269044940  0.132309697301
CG3C53  OC30A     1  0.316269044940  0.132309697301
CG3C53  OC30P     1  0.326959829558  0.163176000000
CG3C53  OC311     1  0.326514380198  0.183381431383
CG3C53 OC311M     1  0.326514380198  0.183381431383
CG3C53  OC312     1  0.326959829558  0.163176000000
CG3C53 OC3C51     1  0.316269044940  0.132309697301
CG3C53 OC3C5M     1  0.316269044940  0.132309697301
CG3C53 OC3C61     1  0.316269044940  0.132309697301
CG3C53    OCA     1  0.293996576986  0.144938011577
CG3C53    OCL     1  0.320723538531  0.144938011577
CG3C53  OG2D1     1  0.293996576986  0.144938011577
CG3C53  OG2D2     1  0.320723538531  0.144938011577
CG3C53  OG2D3     1  0.293996576986  0.144938011577
CG3C53  OG2D4     1  0.320723538531  0.144938011577
CG3C53  OG2D5     1  0.320010819556  0.169954883425
CG3C53  OG2N1     1  0.320723538531  0.144938011577
CG3C53  OG2P1     1  0.320723538531  0.144938011577
CG3C53 OG2R50     1  0.320723538531  0.144938011577
CG3C53  OG2S1     1  0.318906105146  0.157831660601
CG3C53  OG301     1  0.316269044940  0.132309697301
CG3C53  OG302     1  0.316269044940  0.132309697301
CG3C53  OG303     1  0.316269044940  0.132309697301
CG3C53  OG304     1  0.316269044940  0.132309697301
CG3C53  OG311     1  0.326514380198  0.183381431383
CG3C53  OG312     1  0.325178032121  0.144938011577
CG3C53 OG3C31     1  0.316269044940  0.132309697301
CG3C53 OG3C51     1  0.316269044940  0.132309697301
CG3C53 OG3C61     1  0.316269044940  0.132309697301
CG3C53 OG3R60     1  0.316269044940  0.132309697301
CG3C53    OH1     1  0.326959829558  0.163176000000
CG3C53    OHL     1  0.326959829558  0.163176000000
CG3C53   OLG1     1  0.293996576986  0.144938011577
CG3C53   OLG2     1  0.320723538531  0.144938011577
CG3C53   OLG3     1  0.320723538531  0.144938011577
CG3C53   OLG4     1  0.316269044940  0.132309697301
CG3C53   OLG5     1  0.316269044940  0.132309697301
CG3C53   OLG6     1  0.326514380198  0.183381431383
CG3C53   OLG7     1  0.316269044940  0.132309697301
CG3C53   OLG8     1  0.316269044940  0.132309697301
CG3C53     OM     1  0.320723538531  0.144938011577
CG3C53    ON1     1  0.320723538531  0.144938011577
CG3C53   ON1C     1  0.320723538531  0.144938011577
CG3C53    ON2     1  0.326959829558  0.163176000000
CG3C53   ON2B     1  0.326959829558  0.163176000000
CG3C53   ON2M     1  0.316269044940  0.132309697301
CG3C53    ON3     1  0.320723538531  0.144938011577
CG3C53    ON4     1  0.326959829558  0.163176000000
CG3C53    ON5     1  0.326959829558  0.163176000000
CG3C53    ON6     1  0.326959829558  0.163176000000
CG3C53   ON6B     1  0.326959829558  0.163176000000
CG3C53   OPER     1  0.318427692534  0.188901923946
CG3C53     OS     1  0.326959829558  0.163176000000
CG3C53   OSIA     1  0.326959829558  0.163176000000
CG3C53   OSIE     1  0.326959829558  0.163176000000
CG3C53   OSIH     1  0.326959829558  0.163176000000
CG3C53    OSL     1  0.316269044940  0.132309697301
CG3C53   OSLP     1  0.316269044940  0.132309697301
CG3C53    OST     1  0.320010819556  0.169954883425
CG3C53     OT     1  0.326799467788  0.163176000000
CG3C53     OX     1  0.320723538531  0.144938011577
CG3C53      P     1  0.360813980847  0.320014464673
CG3C53     P2     1  0.360813980847  0.320014464673
CG3C53     P3     1  0.360813980847  0.320014464673
CG3C53     P4     1  0.360813980847  0.320014464673
CG3C53     PB     1  0.328073452955  0.716185437439
CG3C53   PB2P     1  0.325890751096  0.204716924713
CG3C53     PC     1  0.360813980847  0.320014464673
CG3C53     PD     1  0.294842930769  1.037598257516
CG3C53   PD2P     1  0.251865976605  0.174628752363
CG3C53    PG0     1  0.360813980847  0.320014464673
CG3C53    PG1     1  0.360813980847  0.320014464673
CG3C53    PG2     1  0.360813980847  0.320014464673
CG3C53     PL     1  0.360813980847  0.320014464673
CG3C53   PM3P     1  0.316910492017  0.176275053255
CG3C53    POT     1  0.326403017859  0.123410269913
CG3C53   PR3P     1  0.317079762773  0.178642591472
CG3C53     PT     1  0.296001099102  1.168527606863
CG3C53   PT2P     1  0.240284293270  0.168973521997
CG3C53   PU3P     1  0.318024115415  0.179522368790
CG3C53   RA2P     1  0.355459679551  0.229891668540
CG3C53   RH3P     1  0.210367914314  0.149983415617
CG3C53    RUB     1  0.338541512893  0.162045623205
CG3C53      S     1  0.347450500075  0.280671252536
CG3C53     SC     1  0.356359487256  0.286840588481
CG3C53   SC3P     1  0.266993436839  0.157109060719
CG3C53  SEGD1     1  0.363041227642  0.330244580395
CG3C53  SG2D1     1  0.351904993665  0.314496560236
CG3C53  SG2P1     1  0.355798221064  0.332305491450
CG3C53  SG2P2     1  0.352314807076  0.329421919951
CG3C53 SG2R50     1  0.347450500075  0.280671252536
CG3C53  SG301     1  0.345223253279  0.257919081884
CG3C53  SG302     1  0.365268474438  0.286840588481
CG3C53  SG311     1  0.347450500075  0.280671252536
CG3C53  SG3O1     1  0.356359487256  0.286840588481
CG3C53  SG3O2     1  0.347450500075  0.247528778125
CG3C53  SG3O3     1  0.347450500075  0.247528778125
CG3C53     SI     1  0.365268474438  0.324091246411
CG3C53   SIH3     1  0.365268474438  0.324091246411
CG3C53     SL     1  0.356359487256  0.286840588481
CG3C53     SM     1  0.345223253279  0.257919081884
CG3C53   SM2P     1  0.334666103469  0.207012887251
CG3C53   SM3P     1  0.308847858618  0.175378986746
CG3C53   SN2P     1  0.316981763914  0.181365662197
CG3C53    SOD     1  0.294954293108  0.090610410351
CG3C53     SP     1  0.365268474438  0.280671252536
CG3C53   SR2P     1  0.334612649546  0.200133451797
CG3C53     SS     1  0.365268474438  0.286840588481
CG3C53   TB3P     1  0.300678317372  0.172155203837
CG3C53   TI1P     1  0.341276571958  0.266826378666
CG3C53   TI3P     1  0.243117351193  0.149983415617
CG3C53   TL3P     1  0.246716582015  0.168869889039
CG3C53   TM3P     1  0.289417357575  0.168402751521
CG3C53    U3P     1  0.320830446377  0.182184255566
CG3C53    V2P     1  0.267599247968  0.167830039933
CG3C53    V3P     1  0.223989755715  0.147096016316
CG3C53    Y3P     1  0.295190381269  0.170263611896
CG3C53   YB2P     1  0.312616360195  0.189623385225
CG3C53   YB3P     1  0.284659958420  0.167569069413
CG3C53     ZN     1  0.266378716724  0.209200000000
CG3C54 CG3C54     1  0.338541512893  0.041840000000
CG3C54 CG3RC1     1  0.338541512893  0.041840000000
CG3C54     CL     1  0.347450500075  0.110698234855
CG3C54    CLA     1  0.371504765465  0.162045623205
CG3C54   CLAL     1  0.339272049842  0.072469005789
CG3C54  CLG01     1  0.355468588538  0.109105371453
CG3C54  CLG02     1  0.355468588538  0.109105371453
CG3C54  CLG03     1  0.320723538531  0.130979917850
CG3C54  CLG04     1  0.347450500075  0.110698234855
CG3C54  CLG05     1  0.329632525712  0.102486650838
CG3C54  CLG06     1  0.346773417049  0.110698234855
CG3C54 CLG06A     1  0.346773417049  0.110698234855
CG3C54 CLG06B     1  0.346773417049  0.110698234855
CG3C54  CLG07     1  0.338541512893  0.125520000000
CG3C54  CLG08     1  0.338541512893  0.132309697301
CG3C54  CLG09     1  0.346773417049  0.110698234855
CG3C54  CLG10     1  0.334977918021  0.131646486622
CG3C54  CLG11     1  0.338541512893  0.041840000000
CG3C54  CLG12     1  0.338541512893  0.041840000000
CG3C54  CLG13     1  0.338541512893  0.041840000000
CG3C54  CLG14     1  0.338541512893  0.041840000000
CG3C54  CLG15     1  0.338541512893  0.041840000000
CG3C54  CLG16     1  0.338541512893  0.041840000000
CG3C54  CLGA1     1  0.339432411611  0.245040988571
CG3C54  CLGA3     1  0.339432411611  0.232955260941
CG3C54  CLGR1     1  0.334977918021  0.200657590935
CG3C54     CM     1  0.356359487256  0.138767581228
CG3C54     CN     1  0.325178032121  0.187114168357
CG3C54    CN1     1  0.338541512893  0.132309697301
CG3C54   CN1A     1  0.347450500075  0.110698234855
CG3C54   CN1T     1  0.338541512893  0.132309697301
CG3C54    CN2     1  0.338541512893  0.132309697301
CG3C54    CN3     1  0.338541512893  0.125520000000
CG3C54   CN3A     1  0.329632525712  0.177512086349
CG3C54   CN3B     1  0.329632525712  0.177512086349
CG3C54   CN3C     1  0.329632525712  0.177512086349
CG3C54   CN3D     1  0.338541512893  0.125520000000
CG3C54   CN3T     1  0.338541512893  0.125520000000
CG3C54    CN4     1  0.338541512893  0.114583559030
CG3C54    CN5     1  0.338541512893  0.114583559030
CG3C54   CN5G     1  0.338541512893  0.114583559030
CG3C54    CN6     1  0.338541512893  0.041840000000
CG3C54    CN7     1  0.338541512893  0.041840000000
CG3C54   CN7B     1  0.338541512893  0.041840000000
CG3C54   CN7E     1  0.338541512893  0.041840000000
CG3C54    CN8     1  0.338541512893  0.041840000000
CG3C54   CN8B     1  0.338541512893  0.041840000000
CG3C54    CN9     1  0.338541512893  0.041840000000
CG3C54    CNA     1  0.346773417049  0.110698234855
CG3C54   CNA2     1  0.338541512893  0.110698234855
CG3C54   CNE1     1  0.355468588538  0.109105371453
CG3C54   CNE2     1  0.354577689820  0.105847757841
CG3C54    CNG     1  0.347450500075  0.138767581228
CG3C54   CO2P     1  0.251910521541  0.164138698618
CG3C54   CO3P     1  0.192264852362  0.144393471099
CG3C54    COA     1  0.347450500075  0.138767581228
CG3C54    CP1     1  0.338541512893  0.041840000000
CG3C54    CP2     1  0.338541512893  0.041840000000
CG3C54    CP3     1  0.338541512893  0.041840000000
CG3C54    CPA     1  0.329632525712  0.125520000000
CG3C54    CPB     1  0.329632525712  0.125520000000
CG3C54   CPD1     1  0.338541512893  0.041840000000
CG3C54   CPH1     1  0.329632525712  0.093557084179
CG3C54   CPH2     1  0.329632525712  0.093557084179
CG3C54    CPM     1  0.329632525712  0.125520000000
CG3C54    CPT     1  0.334977918021  0.131646486622
CG3C54   CR2P     1  0.263634748672  0.170828164985
CG3C54   CR33     1  0.338541512893  0.041840000000
CG3C54   CR3P     1  0.244382427373  0.145299904804
CG3C54   CRL1     1  0.338541512893  0.041840000000
CG3C54   CRL2     1  0.338541512893  0.041840000000
CG3C54   CRN1     1  0.347450500075  0.138767581228
CG3C54     CS     1  0.365268474438  0.138767581228
CG3C54    CST     1  0.308518226092  0.100764063435
CG3C54     CT     1  0.338541512893  0.041840000000
CG3C54    CT1     1  0.338541512893  0.041840000000
CG3C54   CT1X     1  0.338541512893  0.041840000000
CG3C54    CT2     1  0.338541512893  0.041840000000
CG3C54   CT2A     1  0.338541512893  0.041840000000
CG3C54   CT2P     1  0.338541512893  0.041840000000
CG3C54   CT2X     1  0.338541512893  0.041840000000
CG3C54    CT3     1  0.338541512893  0.041840000000
CG3C54   CT3X     1  0.338541512893  0.041840000000
CG3C54   CTD1     1  0.338541512893  0.041840000000
CG3C54   CTL1     1  0.338541512893  0.041840000000
CG3C54   CTL2     1  0.338541512893  0.041840000000
CG3C54   CTL3     1  0.338541512893  0.041840000000
CG3C54   CTL5     1  0.338541512893  0.041840000000
CG3C54   CTO1     1  0.338541512893  0.041840000000
CG3C54   CTO2     1  0.338541512893  0.041840000000
CG3C54     CU     1  0.285800308779  0.908997471504
CG3C54   CU1P     1  0.246066225950  0.180057894334
CG3C54   CU2P     1  0.233869822499  0.162315474555
CG3C54     CY     1  0.346559601357  0.113045454929
CG3C54    DUM     1  0.169270756447  0.000000000000
CG3C54   DY3P     1  0.297952167295  0.171135318061
CG3C54   ER3P     1  0.291083338178  0.169232326746
CG3C54   EU2P     1  0.333231756533  0.203602227414
CG3C54   EU3P     1  0.304954631219  0.174528477447
CG3C54     F1     1  0.314487247504  0.153729976257
CG3C54     F2     1  0.314487247504  0.135577095411
CG3C54     F3     1  0.311814551349  0.130309939452
CG3C54     FA     1  0.320723538531  0.144938011577
CG3C54     FE     1  0.227179173126  0.000000000000
CG3C54   FE2P     1  0.265496726993  0.167098295383
CG3C54   FE3P     1  0.219722350855  0.148045032716
CG3C54   FGA1     1  0.314487247504  0.153729976257
CG3C54   FGA2     1  0.314487247504  0.135577095411
CG3C54   FGA3     1  0.311814551349  0.130309939452
CG3C54   FGP1     1  0.311814551349  0.130309939452
CG3C54   FGR1     1  0.320723538531  0.144938011577
CG3C54    FNA     1  0.320723538531  0.144938011577
CG3C54   GA3P     1  0.189485248361  0.145299904804
CG3C54   GD3P     1  0.303351013527  0.173673803114
CG3C54      H     1  0.189271432669  0.089736802707
CG3C54     HA     1  0.286869387241  0.062058748940
CG3C54    HA1     1  0.288651184677  0.088756043175
CG3C54    HA2     1  0.288651184677  0.077149148019
CG3C54    HA3     1  0.288651184677  0.064818249282
CG3C54    HAL     1  0.286869387241  0.062058748940
CG3C54   HAL1     1  0.286869387241  0.062058748940
CG3C54   HAL2     1  0.288651184677  0.070011711020
CG3C54   HAL3     1  0.288651184677  0.064818249282
CG3C54     HB     1  0.286869387241  0.062058748940
CG3C54    HB1     1  0.286869387241  0.062058748940
CG3C54    HB2     1  0.288651184677  0.070011711020
CG3C54    HBL     1  0.286869387241  0.062058748940
CG3C54     HC     1  0.189271432669  0.089736802707
CG3C54   HCA1     1  0.288651184677  0.088756043175
CG3C54  HCA1A     1  0.288651184677  0.088756043175
CG3C54 HCA1C2     1  0.288651184677  0.088756043175
CG3C54   HCA2     1  0.288651184677  0.078275472531
CG3C54 HCA25A     1  0.285087589805  0.078275472531
CG3C54  HCA2A     1  0.288651184677  0.078275472531
CG3C54 HCA2C2     1  0.285087589805  0.078275472531
CG3C54   HCA3     1  0.288651184677  0.064818249282
CG3C54  HCA3A     1  0.288651184677  0.064818249282
CG3C54  HCA3M     1  0.288651184677  0.064818249282
CG3C54    HCL     1  0.189271432669  0.089736802707
CG3C54   HCP1     1  0.189271432669  0.089736802707
CG3C54  HCP1M     1  0.189271432669  0.089736802707
CG3C54   HCR1     1  0.240542653898  0.089736802707
CG3C54     HE     1  0.301123766731  0.061020452073
CG3C54    HE1     1  0.280633096214  0.073666921749
CG3C54    HE2     1  0.281523994932  0.067464972838
CG3C54   HEL1     1  0.280633096214  0.073666921749
CG3C54   HEL2     1  0.281523994932  0.067464972838
CG3C54    HF1     1  0.286869387241  0.070011711020
CG3C54    HF2     1  0.285087589805  0.072469005789
CG3C54   HG2P     1  0.274557166956  0.189623385225
CG3C54   HGA1     1  0.288651184677  0.088756043175
CG3C54   HGA2     1  0.288651184677  0.078275472531
CG3C54   HGA3     1  0.288651184677  0.064818249282
CG3C54   HGA4     1  0.280633096214  0.073666921749
CG3C54   HGA5     1  0.281523994932  0.067464972838
CG3C54   HGA6     1  0.286869387241  0.070011711020
CG3C54   HGA7     1  0.285087589805  0.072469005789
CG3C54 HGAAM0     1  0.283305792369  0.070011711020
CG3C54 HGAAM1     1  0.283305792369  0.070011711020
CG3C54 HGAAM2     1  0.281523994932  0.083680000000
CG3C54   HGP1     1  0.189271432669  0.089736802707
CG3C54   HGP2     1  0.189271432669  0.089736802707
CG3C54   HGP3     1  0.209361198763  0.132309697301
CG3C54   HGP4     1  0.189271432669  0.089736802707
CG3C54   HGP5     1  0.231633666716  0.089736802707
CG3C54 HGPAM1     1  0.247224394284  0.039692909190
CG3C54 HGPAM2     1  0.247224394284  0.041840000000
CG3C54 HGPAM3     1  0.246778944925  0.045833423612
CG3C54  HGR51     1  0.290272620344  0.072469005789
CG3C54  HGR52     1  0.249451641079  0.089736802707
CG3C54  HGR53     1  0.231633666716  0.089736802707
CG3C54  HGR61     1  0.290272620344  0.072469005789
CG3C54  HGR62     1  0.267269615442  0.089736802707
CG3C54  HGR63     1  0.249451641079  0.089736802707
CG3C54  HGR71     1  0.290272620344  0.072469005789
CG3C54     HL     1  0.231633666716  0.089736802707
CG3C54  HLGA1     1  0.288651184677  0.088756043175
CG3C54  HLGA2     1  0.288651184677  0.078275472531
CG3C54  HLGA3     1  0.288651184677  0.064818249282
CG3C54  HLGA4     1  0.280633096214  0.073666921749
CG3C54  HLGP1     1  0.189271432669  0.089736802707
CG3C54 HLGR52     1  0.249451641079  0.089736802707
CG3C54 HLGR61     1  0.290272620344  0.072469005789
CG3C54 HLGR62     1  0.267269615442  0.089736802707
CG3C54    HN1     1  0.189271432669  0.089736802707
CG3C54    HN2     1  0.189271432669  0.089736802707
CG3C54    HN3     1  0.267269615442  0.089736802707
CG3C54   HN3B     1  0.249451641079  0.089736802707
CG3C54    HN4     1  0.189271432669  0.089736802707
CG3C54    HN5     1  0.189271432669  0.089736802707
CG3C54    HN6     1  0.286869387241  0.062058748940
CG3C54    HN7     1  0.286869387241  0.062058748940
CG3C54    HN8     1  0.288651184677  0.070011711020
CG3C54    HN9     1  0.288651184677  0.064818249282
CG3C54   HNE1     1  0.280633096214  0.073666921749
CG3C54   HNE2     1  0.281523994932  0.067464972838
CG3C54    HNP     1  0.290272620344  0.072469005789
CG3C54   HO3P     1  0.293168041178  0.170263611896
CG3C54    HOL     1  0.189271432669  0.089736802707
CG3C54     HP     1  0.290272620344  0.072469005789
CG3C54   HPER     1  0.189271432669  0.089736802707
CG3C54    HR1     1  0.249451641079  0.089736802707
CG3C54    HR2     1  0.231633666716  0.089736802707
CG3C54    HR3     1  0.300054688270  0.036952087465
CG3C54   HRA3     1  0.288651184677  0.064818249282
CG3C54   HRM1     1  0.247224394284  0.039692909190
CG3C54   HRM2     1  0.247224394284  0.041840000000
CG3C54   HRP2     1  0.189271432669  0.089736802707
CG3C54     HS     1  0.209361198763  0.132309697301
CG3C54   HSIA     1  0.286869387241  0.062058748940
CG3C54   HSIO     1  0.189271432669  0.089736802707
CG3C54     HT     1  0.189271432669  0.089736802707
CG3C54     HX     1  0.189271432669  0.089736802707
CG3C54   IGR1     1  0.368832069310  0.301712530731
CG3C54   IN3P     1  0.246449312399  0.160580590010
CG3C54   LA3P     1  0.327200372211  0.182184255566
CG3C54    LIT     1  0.284864865125  0.020196198771
CG3C54    LPH     1  0.169270756447  0.000000000000
CG3C54   LU3P     1  0.289648991242  0.166731218816
CG3C54     MG     1  0.274842254546  0.051243325419
CG3C54   MN2P     1  0.276508235149  0.171747976291
CG3C54   MN3P     1  0.203516903172  0.148045032716
CG3C54      N     1  0.334087019303  0.004184000000
CG3C54     NC     1  0.334087019303  0.324091246411
CG3C54    NC2     1  0.334087019303  0.187114168357
CG3C54  NC2D1     1  0.307360057758  0.187114168357
CG3C54  NC311     1  0.347450500075  0.088756043175
CG3C54   ND3P     1  0.313587439798  0.177117175768
CG3C54     NE     1  0.305578260322  0.122698965603
CG3C54  NG1T1     1  0.328741626994  0.177512086349
CG3C54  NG2D1     1  0.334087019303  0.187114168357
CG3C54  NG2O1     1  0.334087019303  0.187114168357
CG3C54  NG2P1     1  0.334087019303  0.187114168357
CG3C54 NG2R43     1  0.334087019303  0.187114168357
CG3C54 NG2R50     1  0.334087019303  0.187114168357
CG3C54 NG2R51     1  0.334087019303  0.187114168357
CG3C54 NG2R52     1  0.334087019303  0.187114168357
CG3C54 NG2R53     1  0.334087019303  0.187114168357
CG3C54 NG2R57     1  0.334087019303  0.187114168357
CG3C54 NG2R60     1  0.337650614175  0.102486650838
CG3C54 NG2R61     1  0.334087019303  0.187114168357
CG3C54 NG2R62     1  0.352795892384  0.093557084179
CG3C54 NG2R67     1  0.334087019303  0.187114168357
CG3C54 NG2RC0     1  0.334087019303  0.187114168357
CG3C54  NG2S0     1  0.334087019303  0.004184000000
CG3C54  NG2S1     1  0.307360057758  0.187114168357
CG3C54  NG2S2     1  0.334087019303  0.187114168357
CG3C54  NG2S3     1  0.334087019303  0.187114168357
CG3C54  NG301     1  0.347450500075  0.078275472531
CG3C54  NG311     1  0.347450500075  0.088756043175
CG3C54  NG321     1  0.346559601357  0.102486650838
CG3C54  NG331     1  0.345668702638  0.110698234855
CG3C54 NG3C51     1  0.334087019303  0.187114168357
CG3C54  NG3N1     1  0.351904993665  0.102486650838
CG3C54  NG3P0     1  0.334087019303  0.187114168357
CG3C54  NG3P1     1  0.334087019303  0.187114168357
CG3C54  NG3P2     1  0.334087019303  0.187114168357
CG3C54  NG3P3     1  0.334087019303  0.187114168357
CG3C54    NH1     1  0.307360057758  0.187114168357
CG3C54    NH2     1  0.334087019303  0.187114168357
CG3C54    NH3     1  0.334087019303  0.187114168357
CG3C54   NH3L     1  0.334087019303  0.187114168357
CG3C54    NHL     1  0.307360057758  0.187114168357
CG3C54     NI     1  0.282949432881  0.994525446633
CG3C54   NI2P     1  0.238787583423  0.158440517242
CG3C54    NN1     1  0.334087019303  0.187114168357
CG3C54   NN1C     1  0.334087019303  0.187114168357
CG3C54    NN2     1  0.334087019303  0.187114168357
CG3C54   NN2B     1  0.334087019303  0.187114168357
CG3C54   NN2C     1  0.334087019303  0.187114168357
CG3C54   NN2G     1  0.334087019303  0.187114168357
CG3C54   NN2U     1  0.334087019303  0.187114168357
CG3C54    NN3     1  0.334087019303  0.187114168357
CG3C54   NN3A     1  0.334087019303  0.187114168357
CG3C54   NN3G     1  0.334087019303  0.187114168357
CG3C54   NN3I     1  0.334087019303  0.187114168357
CG3C54    NN4     1  0.334087019303  0.187114168357
CG3C54    NN6     1  0.334087019303  0.187114168357
CG3C54    NNG     1  0.334087019303  0.187114168357
CG3C54     NP     1  0.334087019303  0.187114168357
CG3C54    NPH     1  0.334087019303  0.187114168357
CG3C54    NR1     1  0.334087019303  0.187114168357
CG3C54    NR2     1  0.334087019303  0.187114168357
CG3C54    NR3     1  0.334087019303  0.187114168357
CG3C54   NRC4     1  0.334087019303  0.187114168357
CG3C54   NRN1     1  0.347450500075  0.280671252536
CG3C54   NRN2     1  0.346559601357  0.102486650838
CG3C54    NS1     1  0.334087019303  0.187114168357
CG3C54    NS2     1  0.334087019303  0.187114168357
CG3C54    NTL     1  0.334087019303  0.187114168357
CG3C54     NY     1  0.334087019303  0.187114168357
CG3C54      O     1  0.293996576986  0.144938011577
CG3C54    O2L     1  0.320723538531  0.144938011577
CG3C54    OAL     1  0.326959829558  0.163176000000
CG3C54     OB     1  0.293996576986  0.144938011577
CG3C54    OBL     1  0.293996576986  0.144938011577
CG3C54     OC     1  0.320723538531  0.144938011577
CG3C54  OC2D1     1  0.293996576986  0.144938011577
CG3C54  OC2D2     1  0.320723538531  0.144938011577
CG3C54  OC2D3     1  0.293996576986  0.144938011577
CG3C54  OC2D4     1  0.293996576986  0.144938011577
CG3C54  OC2DP     1  0.320723538531  0.144938011577
CG3C54  OC301     1  0.316269044940  0.132309697301
CG3C54  OC302     1  0.316269044940  0.132309697301
CG3C54  OC303     1  0.316269044940  0.132309697301
CG3C54 OC305A     1  0.316269044940  0.132309697301
CG3C54  OC30A     1  0.316269044940  0.132309697301
CG3C54  OC30P     1  0.326959829558  0.163176000000
CG3C54  OC311     1  0.326514380198  0.183381431383
CG3C54 OC311M     1  0.326514380198  0.183381431383
CG3C54  OC312     1  0.326959829558  0.163176000000
CG3C54 OC3C51     1  0.316269044940  0.132309697301
CG3C54 OC3C5M     1  0.316269044940  0.132309697301
CG3C54 OC3C61     1  0.316269044940  0.132309697301
CG3C54    OCA     1  0.293996576986  0.144938011577
CG3C54    OCL     1  0.320723538531  0.144938011577
CG3C54  OG2D1     1  0.293996576986  0.144938011577
CG3C54  OG2D2     1  0.320723538531  0.144938011577
CG3C54  OG2D3     1  0.293996576986  0.144938011577
CG3C54  OG2D4     1  0.320723538531  0.144938011577
CG3C54  OG2D5     1  0.320010819556  0.169954883425
CG3C54  OG2N1     1  0.320723538531  0.144938011577
CG3C54  OG2P1     1  0.320723538531  0.144938011577
CG3C54 OG2R50     1  0.320723538531  0.144938011577
CG3C54  OG2S1     1  0.318906105146  0.157831660601
CG3C54  OG301     1  0.316269044940  0.132309697301
CG3C54  OG302     1  0.316269044940  0.132309697301
CG3C54  OG303     1  0.316269044940  0.132309697301
CG3C54  OG304     1  0.316269044940  0.132309697301
CG3C54  OG311     1  0.326514380198  0.183381431383
CG3C54  OG312     1  0.325178032121  0.144938011577
CG3C54 OG3C31     1  0.316269044940  0.132309697301
CG3C54 OG3C51     1  0.316269044940  0.132309697301
CG3C54 OG3C61     1  0.316269044940  0.132309697301
CG3C54 OG3R60     1  0.316269044940  0.132309697301
CG3C54    OH1     1  0.326959829558  0.163176000000
CG3C54    OHL     1  0.326959829558  0.163176000000
CG3C54   OLG1     1  0.293996576986  0.144938011577
CG3C54   OLG2     1  0.320723538531  0.144938011577
CG3C54   OLG3     1  0.320723538531  0.144938011577
CG3C54   OLG4     1  0.316269044940  0.132309697301
CG3C54   OLG5     1  0.316269044940  0.132309697301
CG3C54   OLG6     1  0.326514380198  0.183381431383
CG3C54   OLG7     1  0.316269044940  0.132309697301
CG3C54   OLG8     1  0.316269044940  0.132309697301
CG3C54     OM     1  0.320723538531  0.144938011577
CG3C54    ON1     1  0.320723538531  0.144938011577
CG3C54   ON1C     1  0.320723538531  0.144938011577
CG3C54    ON2     1  0.326959829558  0.163176000000
CG3C54   ON2B     1  0.326959829558  0.163176000000
CG3C54   ON2M     1  0.316269044940  0.132309697301
CG3C54    ON3     1  0.320723538531  0.144938011577
CG3C54    ON4     1  0.326959829558  0.163176000000
CG3C54    ON5     1  0.326959829558  0.163176000000
CG3C54    ON6     1  0.326959829558  0.163176000000
CG3C54   ON6B     1  0.326959829558  0.163176000000
CG3C54   OPER     1  0.318427692534  0.188901923946
CG3C54     OS     1  0.326959829558  0.163176000000
CG3C54   OSIA     1  0.326959829558  0.163176000000
CG3C54   OSIE     1  0.326959829558  0.163176000000
CG3C54   OSIH     1  0.326959829558  0.163176000000
CG3C54    OSL     1  0.316269044940  0.132309697301
CG3C54   OSLP     1  0.316269044940  0.132309697301
CG3C54    OST     1  0.320010819556  0.169954883425
CG3C54     OT     1  0.326799467788  0.163176000000
CG3C54     OX     1  0.320723538531  0.144938011577
CG3C54      P     1  0.360813980847  0.320014464673
CG3C54     P2     1  0.360813980847  0.320014464673
CG3C54     P3     1  0.360813980847  0.320014464673
CG3C54     P4     1  0.360813980847  0.320014464673
CG3C54     PB     1  0.328073452955  0.716185437439
CG3C54   PB2P     1  0.325890751096  0.204716924713
CG3C54     PC     1  0.360813980847  0.320014464673
CG3C54     PD     1  0.294842930769  1.037598257516
CG3C54   PD2P     1  0.251865976605  0.174628752363
CG3C54    PG0     1  0.360813980847  0.320014464673
CG3C54    PG1     1  0.360813980847  0.320014464673
CG3C54    PG2     1  0.360813980847  0.320014464673
CG3C54     PL     1  0.360813980847  0.320014464673
CG3C54   PM3P     1  0.316910492017  0.176275053255
CG3C54    POT     1  0.326403017859  0.123410269913
CG3C54   PR3P     1  0.317079762773  0.178642591472
CG3C54     PT     1  0.296001099102  1.168527606863
CG3C54   PT2P     1  0.240284293270  0.168973521997
CG3C54   PU3P     1  0.318024115415  0.179522368790
CG3C54   RA2P     1  0.355459679551  0.229891668540
CG3C54   RH3P     1  0.210367914314  0.149983415617
CG3C54    RUB     1  0.338541512893  0.162045623205
CG3C54      S     1  0.347450500075  0.280671252536
CG3C54     SC     1  0.356359487256  0.286840588481
CG3C54   SC3P     1  0.266993436839  0.157109060719
CG3C54  SEGD1     1  0.363041227642  0.330244580395
CG3C54  SG2D1     1  0.351904993665  0.314496560236
CG3C54  SG2P1     1  0.355798221064  0.332305491450
CG3C54  SG2P2     1  0.352314807076  0.329421919951
CG3C54 SG2R50     1  0.347450500075  0.280671252536
CG3C54  SG301     1  0.345223253279  0.257919081884
CG3C54  SG302     1  0.365268474438  0.286840588481
CG3C54  SG311     1  0.347450500075  0.280671252536
CG3C54  SG3O1     1  0.356359487256  0.286840588481
CG3C54  SG3O2     1  0.347450500075  0.247528778125
CG3C54  SG3O3     1  0.347450500075  0.247528778125
CG3C54     SI     1  0.365268474438  0.324091246411
CG3C54   SIH3     1  0.365268474438  0.324091246411
CG3C54     SL     1  0.356359487256  0.286840588481
CG3C54     SM     1  0.345223253279  0.257919081884
CG3C54   SM2P     1  0.334666103469  0.207012887251
CG3C54   SM3P     1  0.308847858618  0.175378986746
CG3C54   SN2P     1  0.316981763914  0.181365662197
CG3C54    SOD     1  0.294954293108  0.090610410351
CG3C54     SP     1  0.365268474438  0.280671252536
CG3C54   SR2P     1  0.334612649546  0.200133451797
CG3C54     SS     1  0.365268474438  0.286840588481
CG3C54   TB3P     1  0.300678317372  0.172155203837
CG3C54   TI1P     1  0.341276571958  0.266826378666
CG3C54   TI3P     1  0.243117351193  0.149983415617
CG3C54   TL3P     1  0.246716582015  0.168869889039
CG3C54   TM3P     1  0.289417357575  0.168402751521
CG3C54    U3P     1  0.320830446377  0.182184255566
CG3C54    V2P     1  0.267599247968  0.167830039933
CG3C54    V3P     1  0.223989755715  0.147096016316
CG3C54    Y3P     1  0.295190381269  0.170263611896
CG3C54   YB2P     1  0.312616360195  0.189623385225
CG3C54   YB3P     1  0.284659958420  0.167569069413
CG3C54     ZN     1  0.266378716724  0.209200000000
CG3RC1 CG3RC1     1  0.338541512893  0.041840000000
CG3RC1     CL     1  0.347450500075  0.110698234855
CG3RC1    CLA     1  0.371504765465  0.162045623205
CG3RC1   CLAL     1  0.339272049842  0.072469005789
CG3RC1  CLG01     1  0.355468588538  0.109105371453
CG3RC1  CLG02     1  0.355468588538  0.109105371453
CG3RC1  CLG03     1  0.320723538531  0.130979917850
CG3RC1  CLG04     1  0.347450500075  0.110698234855
CG3RC1  CLG05     1  0.329632525712  0.102486650838
CG3RC1  CLG06     1  0.346773417049  0.110698234855
CG3RC1 CLG06A     1  0.346773417049  0.110698234855
CG3RC1 CLG06B     1  0.346773417049  0.110698234855
CG3RC1  CLG07     1  0.338541512893  0.125520000000
CG3RC1  CLG08     1  0.338541512893  0.132309697301
CG3RC1  CLG09     1  0.346773417049  0.110698234855
CG3RC1  CLG10     1  0.334977918021  0.131646486622
CG3RC1  CLG11     1  0.338541512893  0.041840000000
CG3RC1  CLG12     1  0.338541512893  0.041840000000
CG3RC1  CLG13     1  0.338541512893  0.041840000000
CG3RC1  CLG14     1  0.338541512893  0.041840000000
CG3RC1  CLG15     1  0.338541512893  0.041840000000
CG3RC1  CLG16     1  0.338541512893  0.041840000000
CG3RC1  CLGA1     1  0.339432411611  0.245040988571
CG3RC1  CLGA3     1  0.339432411611  0.232955260941
CG3RC1  CLGR1     1  0.334977918021  0.200657590935
CG3RC1     CM     1  0.356359487256  0.138767581228
CG3RC1     CN     1  0.325178032121  0.187114168357
CG3RC1    CN1     1  0.338541512893  0.132309697301
CG3RC1   CN1A     1  0.347450500075  0.110698234855
CG3RC1   CN1T     1  0.338541512893  0.132309697301
CG3RC1    CN2     1  0.338541512893  0.132309697301
CG3RC1    CN3     1  0.338541512893  0.125520000000
CG3RC1   CN3A     1  0.329632525712  0.177512086349
CG3RC1   CN3B     1  0.329632525712  0.177512086349
CG3RC1   CN3C     1  0.329632525712  0.177512086349
CG3RC1   CN3D     1  0.338541512893  0.125520000000
CG3RC1   CN3T     1  0.338541512893  0.125520000000
CG3RC1    CN4     1  0.338541512893  0.114583559030
CG3RC1    CN5     1  0.338541512893  0.114583559030
CG3RC1   CN5G     1  0.338541512893  0.114583559030
CG3RC1    CN6     1  0.338541512893  0.041840000000
CG3RC1    CN7     1  0.338541512893  0.041840000000
CG3RC1   CN7B     1  0.338541512893  0.041840000000
CG3RC1   CN7E     1  0.338541512893  0.041840000000
CG3RC1    CN8     1  0.338541512893  0.041840000000
CG3RC1   CN8B     1  0.338541512893  0.041840000000
CG3RC1    CN9     1  0.338541512893  0.041840000000
CG3RC1    CNA     1  0.346773417049  0.110698234855
CG3RC1   CNA2     1  0.338541512893  0.110698234855
CG3RC1   CNE1     1  0.355468588538  0.109105371453
CG3RC1   CNE2     1  0.354577689820  0.105847757841
CG3RC1    CNG     1  0.347450500075  0.138767581228
CG3RC1   CO2P     1  0.251910521541  0.164138698618
CG3RC1   CO3P     1  0.192264852362  0.144393471099
CG3RC1    COA     1  0.347450500075  0.138767581228
CG3RC1    CP1     1  0.338541512893  0.041840000000
CG3RC1    CP2     1  0.338541512893  0.041840000000
CG3RC1    CP3     1  0.338541512893  0.041840000000
CG3RC1    CPA     1  0.329632525712  0.125520000000
CG3RC1    CPB     1  0.329632525712  0.125520000000
CG3RC1   CPD1     1  0.338541512893  0.041840000000
CG3RC1   CPH1     1  0.329632525712  0.093557084179
CG3RC1   CPH2     1  0.329632525712  0.093557084179
CG3RC1    CPM     1  0.329632525712  0.125520000000
CG3RC1    CPT     1  0.334977918021  0.131646486622
CG3RC1   CR2P     1  0.263634748672  0.170828164985
CG3RC1   CR33     1  0.338541512893  0.041840000000
CG3RC1   CR3P     1  0.244382427373  0.145299904804
CG3RC1   CRL1     1  0.338541512893  0.041840000000
CG3RC1   CRL2     1  0.338541512893  0.041840000000
CG3RC1   CRN1     1  0.347450500075  0.138767581228
CG3RC1     CS     1  0.365268474438  0.138767581228
CG3RC1    CST     1  0.308518226092  0.100764063435
CG3RC1     CT     1  0.338541512893  0.041840000000
CG3RC1    CT1     1  0.338541512893  0.041840000000
CG3RC1   CT1X     1  0.338541512893  0.041840000000
CG3RC1    CT2     1  0.338541512893  0.041840000000
CG3RC1   CT2A     1  0.338541512893  0.041840000000
CG3RC1   CT2P     1  0.338541512893  0.041840000000
CG3RC1   CT2X     1  0.338541512893  0.041840000000
CG3RC1    CT3     1  0.338541512893  0.041840000000
CG3RC1   CT3X     1  0.338541512893  0.041840000000
CG3RC1   CTD1     1  0.338541512893  0.041840000000
CG3RC1   CTL1     1  0.338541512893  0.041840000000
CG3RC1   CTL2     1  0.338541512893  0.041840000000
CG3RC1   CTL3     1  0.338541512893  0.041840000000
CG3RC1   CTL5     1  0.338541512893  0.041840000000
CG3RC1   CTO1     1  0.338541512893  0.041840000000
CG3RC1   CTO2     1  0.338541512893  0.041840000000
CG3RC1     CU     1  0.285800308779  0.908997471504
CG3RC1   CU1P     1  0.246066225950  0.180057894334
CG3RC1   CU2P     1  0.233869822499  0.162315474555
CG3RC1     CY     1  0.346559601357  0.113045454929
CG3RC1    DUM     1  0.169270756447  0.000000000000
CG3RC1   DY3P     1  0.297952167295  0.171135318061
CG3RC1   ER3P     1  0.291083338178  0.169232326746
CG3RC1   EU2P     1  0.333231756533  0.203602227414
CG3RC1   EU3P     1  0.304954631219  0.174528477447
CG3RC1     F1     1  0.314487247504  0.153729976257
CG3RC1     F2     1  0.314487247504  0.135577095411
CG3RC1     F3     1  0.311814551349  0.130309939452
CG3RC1     FA     1  0.320723538531  0.144938011577
CG3RC1     FE     1  0.227179173126  0.000000000000
CG3RC1   FE2P     1  0.265496726993  0.167098295383
CG3RC1   FE3P     1  0.219722350855  0.148045032716
CG3RC1   FGA1     1  0.314487247504  0.153729976257
CG3RC1   FGA2     1  0.314487247504  0.135577095411
CG3RC1   FGA3     1  0.311814551349  0.130309939452
CG3RC1   FGP1     1  0.311814551349  0.130309939452
CG3RC1   FGR1     1  0.320723538531  0.144938011577
CG3RC1    FNA     1  0.320723538531  0.144938011577
CG3RC1   GA3P     1  0.189485248361  0.145299904804
CG3RC1   GD3P     1  0.303351013527  0.173673803114
CG3RC1      H     1  0.189271432669  0.089736802707
CG3RC1     HA     1  0.286869387241  0.062058748940
CG3RC1    HA1     1  0.288651184677  0.088756043175
CG3RC1    HA2     1  0.288651184677  0.077149148019
CG3RC1    HA3     1  0.288651184677  0.064818249282
CG3RC1    HAL     1  0.286869387241  0.062058748940
CG3RC1   HAL1     1  0.286869387241  0.062058748940
CG3RC1   HAL2     1  0.288651184677  0.070011711020
CG3RC1   HAL3     1  0.288651184677  0.064818249282
CG3RC1     HB     1  0.286869387241  0.062058748940
CG3RC1    HB1     1  0.286869387241  0.062058748940
CG3RC1    HB2     1  0.288651184677  0.070011711020
CG3RC1    HBL     1  0.286869387241  0.062058748940
CG3RC1     HC     1  0.189271432669  0.089736802707
CG3RC1   HCA1     1  0.288651184677  0.088756043175
CG3RC1  HCA1A     1  0.288651184677  0.088756043175
CG3RC1 HCA1C2     1  0.288651184677  0.088756043175
CG3RC1   HCA2     1  0.288651184677  0.078275472531
CG3RC1 HCA25A     1  0.285087589805  0.078275472531
CG3RC1  HCA2A     1  0.288651184677  0.078275472531
CG3RC1 HCA2C2     1  0.285087589805  0.078275472531
CG3RC1   HCA3     1  0.288651184677  0.064818249282
CG3RC1  HCA3A     1  0.288651184677  0.064818249282
CG3RC1  HCA3M     1  0.288651184677  0.064818249282
CG3RC1    HCL     1  0.189271432669  0.089736802707
CG3RC1   HCP1     1  0.189271432669  0.089736802707
CG3RC1  HCP1M     1  0.189271432669  0.089736802707
CG3RC1   HCR1     1  0.240542653898  0.089736802707
CG3RC1     HE     1  0.301123766731  0.061020452073
CG3RC1    HE1     1  0.280633096214  0.073666921749
CG3RC1    HE2     1  0.281523994932  0.067464972838
CG3RC1   HEL1     1  0.280633096214  0.073666921749
CG3RC1   HEL2     1  0.281523994932  0.067464972838
CG3RC1    HF1     1  0.286869387241  0.070011711020
CG3RC1    HF2     1  0.285087589805  0.072469005789
CG3RC1   HG2P     1  0.274557166956  0.189623385225
CG3RC1   HGA1     1  0.288651184677  0.088756043175
CG3RC1   HGA2     1  0.288651184677  0.078275472531
CG3RC1   HGA3     1  0.288651184677  0.064818249282
CG3RC1   HGA4     1  0.280633096214  0.073666921749
CG3RC1   HGA5     1  0.281523994932  0.067464972838
CG3RC1   HGA6     1  0.286869387241  0.070011711020
CG3RC1   HGA7     1  0.285087589805  0.072469005789
CG3RC1 HGAAM0     1  0.283305792369  0.070011711020
CG3RC1 HGAAM1     1  0.283305792369  0.070011711020
CG3RC1 HGAAM2     1  0.281523994932  0.083680000000
CG3RC1   HGP1     1  0.189271432669  0.089736802707
CG3RC1   HGP2     1  0.189271432669  0.089736802707
CG3RC1   HGP3     1  0.209361198763  0.132309697301
CG3RC1   HGP4     1  0.189271432669  0.089736802707
CG3RC1   HGP5     1  0.231633666716  0.089736802707
CG3RC1 HGPAM1     1  0.247224394284  0.039692909190
CG3RC1 HGPAM2     1  0.247224394284  0.041840000000
CG3RC1 HGPAM3     1  0.246778944925  0.045833423612
CG3RC1  HGR51     1  0.290272620344  0.072469005789
CG3RC1  HGR52     1  0.249451641079  0.089736802707
CG3RC1  HGR53     1  0.231633666716  0.089736802707
CG3RC1  HGR61     1  0.290272620344  0.072469005789
CG3RC1  HGR62     1  0.267269615442  0.089736802707
CG3RC1  HGR63     1  0.249451641079  0.089736802707
CG3RC1  HGR71     1  0.290272620344  0.072469005789
CG3RC1     HL     1  0.231633666716  0.089736802707
CG3RC1  HLGA1     1  0.288651184677  0.088756043175
CG3RC1  HLGA2     1  0.288651184677  0.078275472531
CG3RC1  HLGA3     1  0.288651184677  0.064818249282
CG3RC1  HLGA4     1  0.280633096214  0.073666921749
CG3RC1  HLGP1     1  0.189271432669  0.089736802707
CG3RC1 HLGR52     1  0.249451641079  0.089736802707
CG3RC1 HLGR61     1  0.290272620344  0.072469005789
CG3RC1 HLGR62     1  0.267269615442  0.089736802707
CG3RC1    HN1     1  0.189271432669  0.089736802707
CG3RC1    HN2     1  0.189271432669  0.089736802707
CG3RC1    HN3     1  0.267269615442  0.089736802707
CG3RC1   HN3B     1  0.249451641079  0.089736802707
CG3RC1    HN4     1  0.189271432669  0.089736802707
CG3RC1    HN5     1  0.189271432669  0.089736802707
CG3RC1    HN6     1  0.286869387241  0.062058748940
CG3RC1    HN7     1  0.286869387241  0.062058748940
CG3RC1    HN8     1  0.288651184677  0.070011711020
CG3RC1    HN9     1  0.288651184677  0.064818249282
CG3RC1   HNE1     1  0.280633096214  0.073666921749
CG3RC1   HNE2     1  0.281523994932  0.067464972838
CG3RC1    HNP     1  0.290272620344  0.072469005789
CG3RC1   HO3P     1  0.293168041178  0.170263611896
CG3RC1    HOL     1  0.189271432669  0.089736802707
CG3RC1     HP     1  0.290272620344  0.072469005789
CG3RC1   HPER     1  0.189271432669  0.089736802707
CG3RC1    HR1     1  0.249451641079  0.089736802707
CG3RC1    HR2     1  0.231633666716  0.089736802707
CG3RC1    HR3     1  0.300054688270  0.036952087465
CG3RC1   HRA3     1  0.288651184677  0.064818249282
CG3RC1   HRM1     1  0.247224394284  0.039692909190
CG3RC1   HRM2     1  0.247224394284  0.041840000000
CG3RC1   HRP2     1  0.189271432669  0.089736802707
CG3RC1     HS     1  0.209361198763  0.132309697301
CG3RC1   HSIA     1  0.286869387241  0.062058748940
CG3RC1   HSIO     1  0.189271432669  0.089736802707
CG3RC1     HT     1  0.189271432669  0.089736802707
CG3RC1     HX     1  0.189271432669  0.089736802707
CG3RC1   IGR1     1  0.368832069310  0.301712530731
CG3RC1   IN3P     1  0.246449312399  0.160580590010
CG3RC1   LA3P     1  0.327200372211  0.182184255566
CG3RC1    LIT     1  0.284864865125  0.020196198771
CG3RC1    LPH     1  0.169270756447  0.000000000000
CG3RC1   LU3P     1  0.289648991242  0.166731218816
CG3RC1     MG     1  0.274842254546  0.051243325419
CG3RC1   MN2P     1  0.276508235149  0.171747976291
CG3RC1   MN3P     1  0.203516903172  0.148045032716
CG3RC1      N     1  0.334087019303  0.004184000000
CG3RC1     NC     1  0.334087019303  0.324091246411
CG3RC1    NC2     1  0.334087019303  0.187114168357
CG3RC1  NC2D1     1  0.307360057758  0.187114168357
CG3RC1  NC311     1  0.347450500075  0.088756043175
CG3RC1   ND3P     1  0.313587439798  0.177117175768
CG3RC1     NE     1  0.305578260322  0.122698965603
CG3RC1  NG1T1     1  0.328741626994  0.177512086349
CG3RC1  NG2D1     1  0.334087019303  0.187114168357
CG3RC1  NG2O1     1  0.334087019303  0.187114168357
CG3RC1  NG2P1     1  0.334087019303  0.187114168357
CG3RC1 NG2R43     1  0.334087019303  0.187114168357
CG3RC1 NG2R50     1  0.334087019303  0.187114168357
CG3RC1 NG2R51     1  0.334087019303  0.187114168357
CG3RC1 NG2R52     1  0.334087019303  0.187114168357
CG3RC1 NG2R53     1  0.334087019303  0.187114168357
CG3RC1 NG2R57     1  0.334087019303  0.187114168357
CG3RC1 NG2R60     1  0.337650614175  0.102486650838
CG3RC1 NG2R61     1  0.334087019303  0.187114168357
CG3RC1 NG2R62     1  0.352795892384  0.093557084179
CG3RC1 NG2R67     1  0.334087019303  0.187114168357
CG3RC1 NG2RC0     1  0.334087019303  0.187114168357
CG3RC1  NG2S0     1  0.334087019303  0.004184000000
CG3RC1  NG2S1     1  0.307360057758  0.187114168357
CG3RC1  NG2S2     1  0.334087019303  0.187114168357
CG3RC1  NG2S3     1  0.334087019303  0.187114168357
CG3RC1  NG301     1  0.347450500075  0.078275472531
CG3RC1  NG311     1  0.347450500075  0.088756043175
CG3RC1  NG321     1  0.346559601357  0.102486650838
CG3RC1  NG331     1  0.345668702638  0.110698234855
CG3RC1 NG3C51     1  0.334087019303  0.187114168357
CG3RC1  NG3N1     1  0.351904993665  0.102486650838
CG3RC1  NG3P0     1  0.334087019303  0.187114168357
CG3RC1  NG3P1     1  0.334087019303  0.187114168357
CG3RC1  NG3P2     1  0.334087019303  0.187114168357
CG3RC1  NG3P3     1  0.334087019303  0.187114168357
CG3RC1    NH1     1  0.307360057758  0.187114168357
CG3RC1    NH2     1  0.334087019303  0.187114168357
CG3RC1    NH3     1  0.334087019303  0.187114168357
CG3RC1   NH3L     1  0.334087019303  0.187114168357
CG3RC1    NHL     1  0.307360057758  0.187114168357
CG3RC1     NI     1  0.282949432881  0.994525446633
CG3RC1   NI2P     1  0.238787583423  0.158440517242
CG3RC1    NN1     1  0.334087019303  0.187114168357
CG3RC1   NN1C     1  0.334087019303  0.187114168357
CG3RC1    NN2     1  0.334087019303  0.187114168357
CG3RC1   NN2B     1  0.334087019303  0.187114168357
CG3RC1   NN2C     1  0.334087019303  0.187114168357
CG3RC1   NN2G     1  0.334087019303  0.187114168357
CG3RC1   NN2U     1  0.334087019303  0.187114168357
CG3RC1    NN3     1  0.334087019303  0.187114168357
CG3RC1   NN3A     1  0.334087019303  0.187114168357
CG3RC1   NN3G     1  0.334087019303  0.187114168357
CG3RC1   NN3I     1  0.334087019303  0.187114168357
CG3RC1    NN4     1  0.334087019303  0.187114168357
CG3RC1    NN6     1  0.334087019303  0.187114168357
CG3RC1    NNG     1  0.334087019303  0.187114168357
CG3RC1     NP     1  0.334087019303  0.187114168357
CG3RC1    NPH     1  0.334087019303  0.187114168357
CG3RC1    NR1     1  0.334087019303  0.187114168357
CG3RC1    NR2     1  0.334087019303  0.187114168357
CG3RC1    NR3     1  0.334087019303  0.187114168357
CG3RC1   NRC4     1  0.334087019303  0.187114168357
CG3RC1   NRN1     1  0.347450500075  0.280671252536
CG3RC1   NRN2     1  0.346559601357  0.102486650838
CG3RC1    NS1     1  0.334087019303  0.187114168357
CG3RC1    NS2     1  0.334087019303  0.187114168357
CG3RC1    NTL     1  0.334087019303  0.187114168357
CG3RC1     NY     1  0.334087019303  0.187114168357
CG3RC1      O     1  0.293996576986  0.144938011577
CG3RC1    O2L     1  0.320723538531  0.144938011577
CG3RC1    OAL     1  0.326959829558  0.163176000000
CG3RC1     OB     1  0.293996576986  0.144938011577
CG3RC1    OBL     1  0.293996576986  0.144938011577
CG3RC1     OC     1  0.320723538531  0.144938011577
CG3RC1  OC2D1     1  0.293996576986  0.144938011577
CG3RC1  OC2D2     1  0.320723538531  0.144938011577
CG3RC1  OC2D3     1  0.293996576986  0.144938011577
CG3RC1  OC2D4     1  0.293996576986  0.144938011577
CG3RC1  OC2DP     1  0.320723538531  0.144938011577
CG3RC1  OC301     1  0.316269044940  0.132309697301
CG3RC1  OC302     1  0.316269044940  0.132309697301
CG3RC1  OC303     1  0.316269044940  0.132309697301
CG3RC1 OC305A     1  0.316269044940  0.132309697301
CG3RC1  OC30A     1  0.316269044940  0.132309697301
CG3RC1  OC30P     1  0.326959829558  0.163176000000
CG3RC1  OC311     1  0.326514380198  0.183381431383
CG3RC1 OC311M     1  0.326514380198  0.183381431383
CG3RC1  OC312     1  0.326959829558  0.163176000000
CG3RC1 OC3C51     1  0.316269044940  0.132309697301
CG3RC1 OC3C5M     1  0.316269044940  0.132309697301
CG3RC1 OC3C61     1  0.316269044940  0.132309697301
CG3RC1    OCA     1  0.293996576986  0.144938011577
CG3RC1    OCL     1  0.320723538531  0.144938011577
CG3RC1  OG2D1     1  0.293996576986  0.144938011577
CG3RC1  OG2D2     1  0.320723538531  0.144938011577
CG3RC1  OG2D3     1  0.293996576986  0.144938011577
CG3RC1  OG2D4     1  0.320723538531  0.144938011577
CG3RC1  OG2D5     1  0.320010819556  0.169954883425
CG3RC1  OG2N1     1  0.320723538531  0.144938011577
CG3RC1  OG2P1     1  0.320723538531  0.144938011577
CG3RC1 OG2R50     1  0.320723538531  0.144938011577
CG3RC1  OG2S1     1  0.318906105146  0.157831660601
CG3RC1  OG301     1  0.316269044940  0.132309697301
CG3RC1  OG302     1  0.316269044940  0.132309697301
CG3RC1  OG303     1  0.316269044940  0.132309697301
CG3RC1  OG304     1  0.316269044940  0.132309697301
CG3RC1  OG311     1  0.326514380198  0.183381431383
CG3RC1  OG312     1  0.325178032121  0.144938011577
CG3RC1 OG3C31     1  0.316269044940  0.132309697301
CG3RC1 OG3C51     1  0.316269044940  0.132309697301
CG3RC1 OG3C61     1  0.316269044940  0.132309697301
CG3RC1 OG3R60     1  0.316269044940  0.132309697301
CG3RC1    OH1     1  0.326959829558  0.163176000000
CG3RC1    OHL     1  0.326959829558  0.163176000000
CG3RC1   OLG1     1  0.293996576986  0.144938011577
CG3RC1   OLG2     1  0.320723538531  0.144938011577
CG3RC1   OLG3     1  0.320723538531  0.144938011577
CG3RC1   OLG4     1  0.316269044940  0.132309697301
CG3RC1   OLG5     1  0.316269044940  0.132309697301
CG3RC1   OLG6     1  0.326514380198  0.183381431383
CG3RC1   OLG7     1  0.316269044940  0.132309697301
CG3RC1   OLG8     1  0.316269044940  0.132309697301
CG3RC1     OM     1  0.320723538531  0.144938011577
CG3RC1    ON1     1  0.320723538531  0.144938011577
CG3RC1   ON1C     1  0.320723538531  0.144938011577
CG3RC1    ON2     1  0.326959829558  0.163176000000
CG3RC1   ON2B     1  0.326959829558  0.163176000000
CG3RC1   ON2M     1  0.316269044940  0.132309697301
CG3RC1    ON3     1  0.320723538531  0.144938011577
CG3RC1    ON4     1  0.326959829558  0.163176000000
CG3RC1    ON5     1  0.326959829558  0.163176000000
CG3RC1    ON6     1  0.326959829558  0.163176000000
CG3RC1   ON6B     1  0.326959829558  0.163176000000
CG3RC1   OPER     1  0.318427692534  0.188901923946
CG3RC1     OS     1  0.326959829558  0.163176000000
CG3RC1   OSIA     1  0.326959829558  0.163176000000
CG3RC1   OSIE     1  0.326959829558  0.163176000000
CG3RC1   OSIH     1  0.326959829558  0.163176000000
CG3RC1    OSL     1  0.316269044940  0.132309697301
CG3RC1   OSLP     1  0.316269044940  0.132309697301
CG3RC1    OST     1  0.320010819556  0.169954883425
CG3RC1     OT     1  0.326799467788  0.163176000000
CG3RC1     OX     1  0.320723538531  0.144938011577
CG3RC1      P     1  0.360813980847  0.320014464673
CG3RC1     P2     1  0.360813980847  0.320014464673
CG3RC1     P3     1  0.360813980847  0.320014464673
CG3RC1     P4     1  0.360813980847  0.320014464673
CG3RC1     PB     1  0.328073452955  0.716185437439
CG3RC1   PB2P     1  0.325890751096  0.204716924713
CG3RC1     PC     1  0.360813980847  0.320014464673
CG3RC1     PD     1  0.294842930769  1.037598257516
CG3RC1   PD2P     1  0.251865976605  0.174628752363
CG3RC1    PG0     1  0.360813980847  0.320014464673
CG3RC1    PG1     1  0.360813980847  0.320014464673
CG3RC1    PG2     1  0.360813980847  0.320014464673
CG3RC1     PL     1  0.360813980847  0.320014464673
CG3RC1   PM3P     1  0.316910492017  0.176275053255
CG3RC1    POT     1  0.326403017859  0.123410269913
CG3RC1   PR3P     1  0.317079762773  0.178642591472
CG3RC1     PT     1  0.296001099102  1.168527606863
CG3RC1   PT2P     1  0.240284293270  0.168973521997
CG3RC1   PU3P     1  0.318024115415  0.179522368790
CG3RC1   RA2P     1  0.355459679551  0.229891668540
CG3RC1   RH3P     1  0.210367914314  0.149983415617
CG3RC1    RUB     1  0.338541512893  0.162045623205
CG3RC1      S     1  0.347450500075  0.280671252536
CG3RC1     SC     1  0.356359487256  0.286840588481
CG3RC1   SC3P     1  0.266993436839  0.157109060719
CG3RC1  SEGD1     1  0.363041227642  0.330244580395
CG3RC1  SG2D1     1  0.351904993665  0.314496560236
CG3RC1  SG2P1     1  0.355798221064  0.332305491450
CG3RC1  SG2P2     1  0.352314807076  0.329421919951
CG3RC1 SG2R50     1  0.347450500075  0.280671252536
CG3RC1  SG301     1  0.345223253279  0.257919081884
CG3RC1  SG302     1  0.365268474438  0.286840588481
CG3RC1  SG311     1  0.347450500075  0.280671252536
CG3RC1  SG3O1     1  0.356359487256  0.286840588481
CG3RC1  SG3O2     1  0.347450500075  0.247528778125
CG3RC1  SG3O3     1  0.347450500075  0.247528778125
CG3RC1     SI     1  0.365268474438  0.324091246411
CG3RC1   SIH3     1  0.365268474438  0.324091246411
CG3RC1     SL     1  0.356359487256  0.286840588481
CG3RC1     SM     1  0.345223253279  0.257919081884
CG3RC1   SM2P     1  0.334666103469  0.207012887251
CG3RC1   SM3P     1  0.308847858618  0.175378986746
CG3RC1   SN2P     1  0.316981763914  0.181365662197
CG3RC1    SOD     1  0.294954293108  0.090610410351
CG3RC1     SP     1  0.365268474438  0.280671252536
CG3RC1   SR2P     1  0.334612649546  0.200133451797
CG3RC1     SS     1  0.365268474438  0.286840588481
CG3RC1   TB3P     1  0.300678317372  0.172155203837
CG3RC1   TI1P     1  0.341276571958  0.266826378666
CG3RC1   TI3P     1  0.243117351193  0.149983415617
CG3RC1   TL3P     1  0.246716582015  0.168869889039
CG3RC1   TM3P     1  0.289417357575  0.168402751521
CG3RC1    U3P     1  0.320830446377  0.182184255566
CG3RC1    V2P     1  0.267599247968  0.167830039933
CG3RC1    V3P     1  0.223989755715  0.147096016316
CG3RC1    Y3P     1  0.295190381269  0.170263611896
CG3RC1   YB2P     1  0.312616360195  0.189623385225
CG3RC1   YB3P     1  0.284659958420  0.167569069413
CG3RC1     ZN     1  0.266378716724  0.209200000000
    CL  CLG11     1  0.347450500075  0.110698234855
    CL  CLG12     1  0.347450500075  0.110698234855
    CL  CLG13     1  0.347450500075  0.110698234855
    CL  CLG14     1  0.347450500075  0.110698234855
    CL  CLG15     1  0.347450500075  0.110698234855
    CL  CLG16     1  0.347450500075  0.110698234855
    CL    CN6     1  0.347450500075  0.110698234855
    CL    CN7     1  0.347450500075  0.110698234855
    CL   CN7B     1  0.347450500075  0.110698234855
    CL   CN7E     1  0.347450500075  0.110698234855
    CL    CN8     1  0.347450500075  0.110698234855
    CL   CN8B     1  0.347450500075  0.110698234855
    CL    CN9     1  0.347450500075  0.110698234855
    CL    CP1     1  0.347450500075  0.110698234855
    CL    CP2     1  0.347450500075  0.110698234855
    CL    CP3     1  0.347450500075  0.110698234855
    CL   CPD1     1  0.347450500075  0.110698234855
    CL   CR33     1  0.347450500075  0.110698234855
    CL   CRL1     1  0.347450500075  0.110698234855
    CL   CRL2     1  0.347450500075  0.110698234855
    CL     CT     1  0.347450500075  0.110698234855
    CL    CT1     1  0.347450500075  0.110698234855
    CL   CT1X     1  0.347450500075  0.110698234855
    CL    CT2     1  0.347450500075  0.110698234855
    CL   CT2A     1  0.347450500075  0.110698234855
    CL   CT2P     1  0.347450500075  0.110698234855
    CL   CT2X     1  0.347450500075  0.110698234855
    CL    CT3     1  0.347450500075  0.110698234855
    CL   CT3X     1  0.347450500075  0.110698234855
    CL   CTD1     1  0.347450500075  0.110698234855
    CL   CTL1     1  0.347450500075  0.110698234855
    CL   CTL2     1  0.347450500075  0.110698234855
    CL   CTL3     1  0.347450500075  0.110698234855
    CL   CTL5     1  0.347450500075  0.110698234855
    CL   CTO1     1  0.347450500075  0.110698234855
    CL   CTO2     1  0.347450500075  0.110698234855
    CL     HP     1  0.299181607526  0.191734967077
    CL      N     1  0.342996006484  0.011069823485
    CL  NC2D1     1  0.316269044940  0.495057556250
    CL  NG2S0     1  0.342996006484  0.011069823485
    CL  NG2S1     1  0.316269044940  0.495057556250
    CL    NH1     1  0.316269044940  0.495057556250
    CL    NHL     1  0.316269044940  0.495057556250
    CL      O     1  0.302905564168  0.383469934154
    CL     OB     1  0.302905564168  0.383469934154
    CL    OBL     1  0.302905564168  0.383469934154
    CL  OC2D1     1  0.302905564168  0.383469934154
    CL  OC2D3     1  0.302905564168  0.383469934154
    CL  OC2D4     1  0.302905564168  0.383469934154
    CL    OCA     1  0.302905564168  0.383469934154
    CL  OG2D1     1  0.302905564168  0.383469934154
    CL  OG2D3     1  0.302905564168  0.383469934154
    CL   OLG1     1  0.302905564168  0.383469934154
   CLA  CLG11     1  0.371504765465  0.162045623205
   CLA  CLG12     1  0.371504765465  0.162045623205
   CLA  CLG13     1  0.371504765465  0.162045623205
   CLA  CLG14     1  0.371504765465  0.162045623205
   CLA  CLG15     1  0.371504765465  0.162045623205
   CLA  CLG16     1  0.371504765465  0.162045623205
   CLA    CN6     1  0.371504765465  0.162045623205
   CLA    CN7     1  0.371504765465  0.162045623205
   CLA   CN7B     1  0.371504765465  0.162045623205
   CLA   CN7E     1  0.371504765465  0.162045623205
   CLA    CN8     1  0.371504765465  0.162045623205
   CLA   CN8B     1  0.371504765465  0.162045623205
   CLA    CN9     1  0.371504765465  0.162045623205
   CLA    CP1     1  0.371504765465  0.162045623205
   CLA    CP2     1  0.371504765465  0.162045623205
   CLA    CP3     1  0.371504765465  0.162045623205
   CLA   CPD1     1  0.371504765465  0.162045623205
   CLA   CR33     1  0.371504765465  0.162045623205
   CLA   CRL1     1  0.371504765465  0.162045623205
   CLA   CRL2     1  0.371504765465  0.162045623205
   CLA     CT     1  0.371504765465  0.162045623205
   CLA    CT1     1  0.371504765465  0.162045623205
   CLA   CT1X     1  0.371504765465  0.162045623205
   CLA    CT2     1  0.371504765465  0.162045623205
   CLA   CT2A     1  0.371504765465  0.162045623205
   CLA   CT2P     1  0.371504765465  0.162045623205
   CLA   CT2X     1  0.371504765465  0.162045623205
   CLA    CT3     1  0.371504765465  0.162045623205
   CLA   CT3X     1  0.371504765465  0.162045623205
   CLA   CTD1     1  0.371504765465  0.162045623205
   CLA   CTL1     1  0.371504765465  0.162045623205
   CLA   CTL2     1  0.371504765465  0.162045623205
   CLA   CTL3     1  0.371504765465  0.162045623205
   CLA   CTL5     1  0.371504765465  0.162045623205
   CLA   CTO1     1  0.371504765465  0.162045623205
   CLA   CTO2     1  0.371504765465  0.162045623205
   CLA     HP     1  0.323235872916  0.280671252536
   CLA    LIT     1  0.328518902314  0.078240800000
   CLA      N     1  0.367050271874  0.016204562321
   CLA  NC2D1     1  0.340323310330  0.724690057887
   CLA  NG2S0     1  0.367050271874  0.016204562321
   CLA  NG2S1     1  0.340323310330  0.724690057887
   CLA    NH1     1  0.340323310330  0.724690057887
   CLA    NHL     1  0.340323310330  0.724690057887
   CLA      O     1  0.326959829558  0.561342505072
   CLA     OB     1  0.326959829558  0.561342505072
   CLA    OBL     1  0.326959829558  0.561342505072
   CLA  OC2D1     1  0.326959829558  0.561342505072
   CLA  OC2D3     1  0.326959829558  0.561342505072
   CLA  OC2D4     1  0.326959829558  0.561342505072
   CLA    OCA     1  0.326959829558  0.561342505072
   CLA  OG2D1     1  0.326959829558  0.561342505072
   CLA  OG2D3     1  0.326959829558  0.561342505072
   CLA   OLG1     1  0.326959829558  0.561342505072
   CLA    POT     1  0.363575766873  0.477812800000
   CLA    SOD     1  0.332394311738  0.351037600000
  CLAL  CLG11     1  0.339272049842  0.072469005789
  CLAL  CLG12     1  0.339272049842  0.072469005789
  CLAL  CLG13     1  0.339272049842  0.072469005789
  CLAL  CLG14     1  0.339272049842  0.072469005789
  CLAL  CLG15     1  0.339272049842  0.072469005789
  CLAL  CLG16     1  0.339272049842  0.072469005789
  CLAL    CN6     1  0.339272049842  0.072469005789
  CLAL    CN7     1  0.339272049842  0.072469005789
  CLAL   CN7B     1  0.339272049842  0.072469005789
  CLAL   CN7E     1  0.339272049842  0.072469005789
  CLAL    CN8     1  0.339272049842  0.072469005789
  CLAL   CN8B     1  0.339272049842  0.072469005789
  CLAL    CN9     1  0.339272049842  0.072469005789
  CLAL    CP1     1  0.339272049842  0.072469005789
  CLAL    CP2     1  0.339272049842  0.072469005789
  CLAL    CP3     1  0.339272049842  0.072469005789
  CLAL   CPD1     1  0.339272049842  0.072469005789
  CLAL   CR33     1  0.339272049842  0.072469005789
  CLAL   CRL1     1  0.339272049842  0.072469005789
  CLAL   CRL2     1  0.339272049842  0.072469005789
  CLAL     CT     1  0.339272049842  0.072469005789
  CLAL    CT1     1  0.339272049842  0.072469005789
  CLAL   CT1X     1  0.339272049842  0.072469005789
  CLAL    CT2     1  0.339272049842  0.072469005789
  CLAL   CT2A     1  0.339272049842  0.072469005789
  CLAL   CT2P     1  0.339272049842  0.072469005789
  CLAL   CT2X     1  0.339272049842  0.072469005789
  CLAL    CT3     1  0.339272049842  0.072469005789
  CLAL   CT3X     1  0.339272049842  0.072469005789
  CLAL   CTD1     1  0.339272049842  0.072469005789
  CLAL   CTL1     1  0.339272049842  0.072469005789
  CLAL   CTL2     1  0.339272049842  0.072469005789
  CLAL   CTL3     1  0.339272049842  0.072469005789
  CLAL   CTL5     1  0.339272049842  0.072469005789
  CLAL   CTO1     1  0.339272049842  0.072469005789
  CLAL   CTO2     1  0.339272049842  0.072469005789
  CLAL     HP     1  0.291003157293  0.125520000000
  CLAL      N     1  0.334817556252  0.007246900579
  CLAL  NC2D1     1  0.308090594707  0.324091246411
  CLAL  NG2S0     1  0.334817556252  0.007246900579
  CLAL  NG2S1     1  0.308090594707  0.324091246411
  CLAL    NH1     1  0.308090594707  0.324091246411
  CLAL    NHL     1  0.308090594707  0.324091246411
  CLAL      O     1  0.294727113935  0.251040000000
  CLAL     OB     1  0.294727113935  0.251040000000
  CLAL    OBL     1  0.294727113935  0.251040000000
  CLAL  OC2D1     1  0.294727113935  0.251040000000
  CLAL  OC2D3     1  0.294727113935  0.251040000000
  CLAL  OC2D4     1  0.294727113935  0.251040000000
  CLAL    OCA     1  0.294727113935  0.251040000000
  CLAL  OG2D1     1  0.294727113935  0.251040000000
  CLAL  OG2D3     1  0.294727113935  0.251040000000
  CLAL   OLG1     1  0.294727113935  0.251040000000
 CLG01  CLG11     1  0.355468588538  0.109105371453
 CLG01  CLG12     1  0.355468588538  0.109105371453
 CLG01  CLG13     1  0.355468588538  0.109105371453
 CLG01  CLG14     1  0.355468588538  0.109105371453
 CLG01  CLG15     1  0.355468588538  0.109105371453
 CLG01  CLG16     1  0.355468588538  0.109105371453
 CLG01    CN6     1  0.355468588538  0.109105371453
 CLG01    CN7     1  0.355468588538  0.109105371453
 CLG01   CN7B     1  0.355468588538  0.109105371453
 CLG01   CN7E     1  0.355468588538  0.109105371453
 CLG01    CN8     1  0.355468588538  0.109105371453
 CLG01   CN8B     1  0.355468588538  0.109105371453
 CLG01    CN9     1  0.355468588538  0.109105371453
 CLG01    CP1     1  0.355468588538  0.109105371453
 CLG01    CP2     1  0.355468588538  0.109105371453
 CLG01    CP3     1  0.355468588538  0.109105371453
 CLG01   CPD1     1  0.355468588538  0.109105371453
 CLG01   CR33     1  0.355468588538  0.109105371453
 CLG01   CRL1     1  0.355468588538  0.109105371453
 CLG01   CRL2     1  0.355468588538  0.109105371453
 CLG01     CT     1  0.355468588538  0.109105371453
 CLG01    CT1     1  0.355468588538  0.109105371453
 CLG01   CT1X     1  0.355468588538  0.109105371453
 CLG01    CT2     1  0.355468588538  0.109105371453
 CLG01   CT2A     1  0.355468588538  0.109105371453
 CLG01   CT2P     1  0.355468588538  0.109105371453
 CLG01   CT2X     1  0.355468588538  0.109105371453
 CLG01    CT3     1  0.355468588538  0.109105371453
 CLG01   CT3X     1  0.355468588538  0.109105371453
 CLG01   CTD1     1  0.355468588538  0.109105371453
 CLG01   CTL1     1  0.355468588538  0.109105371453
 CLG01   CTL2     1  0.355468588538  0.109105371453
 CLG01   CTL3     1  0.355468588538  0.109105371453
 CLG01   CTL5     1  0.355468588538  0.109105371453
 CLG01   CTO1     1  0.355468588538  0.109105371453
 CLG01   CTO2     1  0.355468588538  0.109105371453
 CLG01     HP     1  0.307199695989  0.188976046736
 CLG01      N     1  0.351014094947  0.010910537145
 CLG01  NC2D1     1  0.324287133403  0.487934054561
 CLG01  NG2S0     1  0.351014094947  0.010910537145
 CLG01  NG2S1     1  0.324287133403  0.487934054561
 CLG01    NH1     1  0.324287133403  0.487934054561
 CLG01    NHL     1  0.324287133403  0.487934054561
 CLG01      O     1  0.310923652631  0.377952093472
 CLG01     OB     1  0.310923652631  0.377952093472
 CLG01    OBL     1  0.310923652631  0.377952093472
 CLG01  OC2D1     1  0.310923652631  0.377952093472
 CLG01  OC2D3     1  0.310923652631  0.377952093472
 CLG01  OC2D4     1  0.310923652631  0.377952093472
 CLG01    OCA     1  0.310923652631  0.377952093472
 CLG01  OG2D1     1  0.310923652631  0.377952093472
 CLG01  OG2D3     1  0.310923652631  0.377952093472
 CLG01   OLG1     1  0.310923652631  0.377952093472
 CLG02  CLG11     1  0.355468588538  0.109105371453
 CLG02  CLG12     1  0.355468588538  0.109105371453
 CLG02  CLG13     1  0.355468588538  0.109105371453
 CLG02  CLG14     1  0.355468588538  0.109105371453
 CLG02  CLG15     1  0.355468588538  0.109105371453
 CLG02  CLG16     1  0.355468588538  0.109105371453
 CLG02    CN6     1  0.355468588538  0.109105371453
 CLG02    CN7     1  0.355468588538  0.109105371453
 CLG02   CN7B     1  0.355468588538  0.109105371453
 CLG02   CN7E     1  0.355468588538  0.109105371453
 CLG02    CN8     1  0.355468588538  0.109105371453
 CLG02   CN8B     1  0.355468588538  0.109105371453
 CLG02    CN9     1  0.355468588538  0.109105371453
 CLG02    CP1     1  0.355468588538  0.109105371453
 CLG02    CP2     1  0.355468588538  0.109105371453
 CLG02    CP3     1  0.355468588538  0.109105371453
 CLG02   CPD1     1  0.355468588538  0.109105371453
 CLG02   CR33     1  0.355468588538  0.109105371453
 CLG02   CRL1     1  0.355468588538  0.109105371453
 CLG02   CRL2     1  0.355468588538  0.109105371453
 CLG02     CT     1  0.355468588538  0.109105371453
 CLG02    CT1     1  0.355468588538  0.109105371453
 CLG02   CT1X     1  0.355468588538  0.109105371453
 CLG02    CT2     1  0.355468588538  0.109105371453
 CLG02   CT2A     1  0.355468588538  0.109105371453
 CLG02   CT2P     1  0.355468588538  0.109105371453
 CLG02   CT2X     1  0.355468588538  0.109105371453
 CLG02    CT3     1  0.355468588538  0.109105371453
 CLG02   CT3X     1  0.355468588538  0.109105371453
 CLG02   CTD1     1  0.355468588538  0.109105371453
 CLG02   CTL1     1  0.355468588538  0.109105371453
 CLG02   CTL2     1  0.355468588538  0.109105371453
 CLG02   CTL3     1  0.355468588538  0.109105371453
 CLG02   CTL5     1  0.355468588538  0.109105371453
 CLG02   CTO1     1  0.355468588538  0.109105371453
 CLG02   CTO2     1  0.355468588538  0.109105371453
 CLG02     HP     1  0.307199695989  0.188976046736
 CLG02      N     1  0.351014094947  0.010910537145
 CLG02  NC2D1     1  0.324287133403  0.487934054561
 CLG02  NG2S0     1  0.351014094947  0.010910537145
 CLG02  NG2S1     1  0.324287133403  0.487934054561
 CLG02    NH1     1  0.324287133403  0.487934054561
 CLG02    NHL     1  0.324287133403  0.487934054561
 CLG02      O     1  0.310923652631  0.377952093472
 CLG02     OB     1  0.310923652631  0.377952093472
 CLG02    OBL     1  0.310923652631  0.377952093472
 CLG02  OC2D1     1  0.310923652631  0.377952093472
 CLG02  OC2D3     1  0.310923652631  0.377952093472
 CLG02  OC2D4     1  0.310923652631  0.377952093472
 CLG02    OCA     1  0.310923652631  0.377952093472
 CLG02  OG2D1     1  0.310923652631  0.377952093472
 CLG02  OG2D3     1  0.310923652631  0.377952093472
 CLG02   OLG1     1  0.310923652631  0.377952093472
 CLG03  CLG11     1  0.320723538531  0.130979917850
 CLG03  CLG12     1  0.320723538531  0.130979917850
 CLG03  CLG13     1  0.320723538531  0.130979917850
 CLG03  CLG14     1  0.320723538531  0.130979917850
 CLG03  CLG15     1  0.320723538531  0.130979917850
 CLG03  CLG16     1  0.320723538531  0.130979917850
 CLG03    CN6     1  0.320723538531  0.130979917850
 CLG03    CN7     1  0.320723538531  0.130979917850
 CLG03   CN7B     1  0.320723538531  0.130979917850
 CLG03   CN7E     1  0.320723538531  0.130979917850
 CLG03    CN8     1  0.320723538531  0.130979917850
 CLG03   CN8B     1  0.320723538531  0.130979917850
 CLG03    CN9     1  0.320723538531  0.130979917850
 CLG03    CP1     1  0.320723538531  0.130979917850
 CLG03    CP2     1  0.320723538531  0.130979917850
 CLG03    CP3     1  0.320723538531  0.130979917850
 CLG03   CPD1     1  0.320723538531  0.130979917850
 CLG03   CR33     1  0.320723538531  0.130979917850
 CLG03   CRL1     1  0.320723538531  0.130979917850
 CLG03   CRL2     1  0.320723538531  0.130979917850
 CLG03     CT     1  0.320723538531  0.130979917850
 CLG03    CT1     1  0.320723538531  0.130979917850
 CLG03   CT1X     1  0.320723538531  0.130979917850
 CLG03    CT2     1  0.320723538531  0.130979917850
 CLG03   CT2A     1  0.320723538531  0.130979917850
 CLG03   CT2P     1  0.320723538531  0.130979917850
 CLG03   CT2X     1  0.320723538531  0.130979917850
 CLG03    CT3     1  0.320723538531  0.130979917850
 CLG03   CT3X     1  0.320723538531  0.130979917850
 CLG03   CTD1     1  0.320723538531  0.130979917850
 CLG03   CTL1     1  0.320723538531  0.130979917850
 CLG03   CTL2     1  0.320723538531  0.130979917850
 CLG03   CTL3     1  0.320723538531  0.130979917850
 CLG03   CTL5     1  0.320723538531  0.130979917850
 CLG03   CTO1     1  0.320723538531  0.130979917850
 CLG03   CTO2     1  0.320723538531  0.130979917850
 CLG03     HP     1  0.272454645982  0.226863872487
 CLG03      N     1  0.316269044940  0.013097991785
 CLG03  NC2D1     1  0.289542083396  0.585760000000
 CLG03  NG2S0     1  0.316269044940  0.013097991785
 CLG03  NG2S1     1  0.289542083396  0.585760000000
 CLG03    NH1     1  0.289542083396  0.585760000000
 CLG03    NHL     1  0.289542083396  0.585760000000
 CLG03      O     1  0.276178602624  0.453727744975
 CLG03     OB     1  0.276178602624  0.453727744975
 CLG03    OBL     1  0.276178602624  0.453727744975
 CLG03  OC2D1     1  0.276178602624  0.453727744975
 CLG03  OC2D3     1  0.276178602624  0.453727744975
 CLG03  OC2D4     1  0.276178602624  0.453727744975
 CLG03    OCA     1  0.276178602624  0.453727744975
 CLG03  OG2D1     1  0.276178602624  0.453727744975
 CLG03  OG2D3     1  0.276178602624  0.453727744975
 CLG03   OLG1     1  0.276178602624  0.453727744975
 CLG04  CLG11     1  0.347450500075  0.110698234855
 CLG04  CLG12     1  0.347450500075  0.110698234855
 CLG04  CLG13     1  0.347450500075  0.110698234855
 CLG04  CLG14     1  0.347450500075  0.110698234855
 CLG04  CLG15     1  0.347450500075  0.110698234855
 CLG04  CLG16     1  0.347450500075  0.110698234855
 CLG04    CN6     1  0.347450500075  0.110698234855
 CLG04    CN7     1  0.347450500075  0.110698234855
 CLG04   CN7B     1  0.347450500075  0.110698234855
 CLG04   CN7E     1  0.347450500075  0.110698234855
 CLG04    CN8     1  0.347450500075  0.110698234855
 CLG04   CN8B     1  0.347450500075  0.110698234855
 CLG04    CN9     1  0.347450500075  0.110698234855
 CLG04    CP1     1  0.347450500075  0.110698234855
 CLG04    CP2     1  0.347450500075  0.110698234855
 CLG04    CP3     1  0.347450500075  0.110698234855
 CLG04   CPD1     1  0.347450500075  0.110698234855
 CLG04   CR33     1  0.347450500075  0.110698234855
 CLG04   CRL1     1  0.347450500075  0.110698234855
 CLG04   CRL2     1  0.347450500075  0.110698234855
 CLG04     CT     1  0.347450500075  0.110698234855
 CLG04    CT1     1  0.347450500075  0.110698234855
 CLG04   CT1X     1  0.347450500075  0.110698234855
 CLG04    CT2     1  0.347450500075  0.110698234855
 CLG04   CT2A     1  0.347450500075  0.110698234855
 CLG04   CT2P     1  0.347450500075  0.110698234855
 CLG04   CT2X     1  0.347450500075  0.110698234855
 CLG04    CT3     1  0.347450500075  0.110698234855
 CLG04   CT3X     1  0.347450500075  0.110698234855
 CLG04   CTD1     1  0.347450500075  0.110698234855
 CLG04   CTL1     1  0.347450500075  0.110698234855
 CLG04   CTL2     1  0.347450500075  0.110698234855
 CLG04   CTL3     1  0.347450500075  0.110698234855
 CLG04   CTL5     1  0.347450500075  0.110698234855
 CLG04   CTO1     1  0.347450500075  0.110698234855
 CLG04   CTO2     1  0.347450500075  0.110698234855
 CLG04     HP     1  0.299181607526  0.191734967077
 CLG04      N     1  0.342996006484  0.011069823485
 CLG04  NC2D1     1  0.316269044940  0.495057556250
 CLG04  NG2S0     1  0.342996006484  0.011069823485
 CLG04  NG2S1     1  0.316269044940  0.495057556250
 CLG04    NH1     1  0.316269044940  0.495057556250
 CLG04    NHL     1  0.316269044940  0.495057556250
 CLG04      O     1  0.302905564168  0.383469934154
 CLG04     OB     1  0.302905564168  0.383469934154
 CLG04    OBL     1  0.302905564168  0.383469934154
 CLG04  OC2D1     1  0.302905564168  0.383469934154
 CLG04  OC2D3     1  0.302905564168  0.383469934154
 CLG04  OC2D4     1  0.302905564168  0.383469934154
 CLG04    OCA     1  0.302905564168  0.383469934154
 CLG04  OG2D1     1  0.302905564168  0.383469934154
 CLG04  OG2D3     1  0.302905564168  0.383469934154
 CLG04   OLG1     1  0.302905564168  0.383469934154
 CLG05  CLG11     1  0.329632525712  0.102486650838
 CLG05  CLG12     1  0.329632525712  0.102486650838
 CLG05  CLG13     1  0.329632525712  0.102486650838
 CLG05  CLG14     1  0.329632525712  0.102486650838
 CLG05  CLG15     1  0.329632525712  0.102486650838
 CLG05  CLG16     1  0.329632525712  0.102486650838
 CLG05    CN6     1  0.329632525712  0.102486650838
 CLG05    CN7     1  0.329632525712  0.102486650838
 CLG05   CN7B     1  0.329632525712  0.102486650838
 CLG05   CN7E     1  0.329632525712  0.102486650838
 CLG05    CN8     1  0.329632525712  0.102486650838
 CLG05   CN8B     1  0.329632525712  0.102486650838
 CLG05    CN9     1  0.329632525712  0.102486650838
 CLG05    CP1     1  0.329632525712  0.102486650838
 CLG05    CP2     1  0.329632525712  0.102486650838
 CLG05    CP3     1  0.329632525712  0.102486650838
 CLG05   CPD1     1  0.329632525712  0.102486650838
 CLG05   CR33     1  0.329632525712  0.102486650838
 CLG05   CRL1     1  0.329632525712  0.102486650838
 CLG05   CRL2     1  0.329632525712  0.102486650838
 CLG05     CT     1  0.329632525712  0.102486650838
 CLG05    CT1     1  0.329632525712  0.102486650838
 CLG05   CT1X     1  0.329632525712  0.102486650838
 CLG05    CT2     1  0.329632525712  0.102486650838
 CLG05   CT2A     1  0.329632525712  0.102486650838
 CLG05   CT2P     1  0.329632525712  0.102486650838
 CLG05   CT2X     1  0.329632525712  0.102486650838
 CLG05    CT3     1  0.329632525712  0.102486650838
 CLG05   CT3X     1  0.329632525712  0.102486650838
 CLG05   CTD1     1  0.329632525712  0.102486650838
 CLG05   CTL1     1  0.329632525712  0.102486650838
 CLG05   CTL2     1  0.329632525712  0.102486650838
 CLG05   CTL3     1  0.329632525712  0.102486650838
 CLG05   CTL5     1  0.329632525712  0.102486650838
 CLG05   CTO1     1  0.329632525712  0.102486650838
 CLG05   CTO2     1  0.329632525712  0.102486650838
 CLG05     HP     1  0.281363633163  0.177512086349
 CLG05      N     1  0.325178032121  0.010248665084
 CLG05  NC2D1     1  0.298451070577  0.458334236120
 CLG05  NG2S0     1  0.325178032121  0.010248665084
 CLG05  NG2S1     1  0.298451070577  0.458334236120
 CLG05    NH1     1  0.298451070577  0.458334236120
 CLG05    NHL     1  0.298451070577  0.458334236120
 CLG05      O     1  0.285087589805  0.355024172698
 CLG05     OB     1  0.285087589805  0.355024172698
 CLG05    OBL     1  0.285087589805  0.355024172698
 CLG05  OC2D1     1  0.285087589805  0.355024172698
 CLG05  OC2D3     1  0.285087589805  0.355024172698
 CLG05  OC2D4     1  0.285087589805  0.355024172698
 CLG05    OCA     1  0.285087589805  0.355024172698
 CLG05  OG2D1     1  0.285087589805  0.355024172698
 CLG05  OG2D3     1  0.285087589805  0.355024172698
 CLG05   OLG1     1  0.285087589805  0.355024172698
 CLG06  CLG11     1  0.346773417049  0.110698234855
 CLG06  CLG12     1  0.346773417049  0.110698234855
 CLG06  CLG13     1  0.346773417049  0.110698234855
 CLG06  CLG14     1  0.346773417049  0.110698234855
 CLG06  CLG15     1  0.346773417049  0.110698234855
 CLG06  CLG16     1  0.346773417049  0.110698234855
 CLG06    CN6     1  0.346773417049  0.110698234855
 CLG06    CN7     1  0.346773417049  0.110698234855
 CLG06   CN7B     1  0.346773417049  0.110698234855
 CLG06   CN7E     1  0.346773417049  0.110698234855
 CLG06    CN8     1  0.346773417049  0.110698234855
 CLG06   CN8B     1  0.346773417049  0.110698234855
 CLG06    CN9     1  0.346773417049  0.110698234855
 CLG06    CP1     1  0.346773417049  0.110698234855
 CLG06    CP2     1  0.346773417049  0.110698234855
 CLG06    CP3     1  0.346773417049  0.110698234855
 CLG06   CPD1     1  0.346773417049  0.110698234855
 CLG06   CR33     1  0.346773417049  0.110698234855
 CLG06   CRL1     1  0.346773417049  0.110698234855
 CLG06   CRL2     1  0.346773417049  0.110698234855
 CLG06     CT     1  0.346773417049  0.110698234855
 CLG06    CT1     1  0.346773417049  0.110698234855
 CLG06   CT1X     1  0.346773417049  0.110698234855
 CLG06    CT2     1  0.346773417049  0.110698234855
 CLG06   CT2A     1  0.346773417049  0.110698234855
 CLG06   CT2P     1  0.346773417049  0.110698234855
 CLG06   CT2X     1  0.346773417049  0.110698234855
 CLG06    CT3     1  0.346773417049  0.110698234855
 CLG06   CT3X     1  0.346773417049  0.110698234855
 CLG06   CTD1     1  0.346773417049  0.110698234855
 CLG06   CTL1     1  0.346773417049  0.110698234855
 CLG06   CTL2     1  0.346773417049  0.110698234855
 CLG06   CTL3     1  0.346773417049  0.110698234855
 CLG06   CTL5     1  0.346773417049  0.110698234855
 CLG06   CTO1     1  0.346773417049  0.110698234855
 CLG06   CTO2     1  0.346773417049  0.110698234855
 CLG06     HP     1  0.298504524500  0.191734967077
 CLG06      N     1  0.342318923458  0.011069823485
 CLG06  NC2D1     1  0.315591961914  0.495057556250
 CLG06  NG2S0     1  0.342318923458  0.011069823485
 CLG06  NG2S1     1  0.315591961914  0.495057556250
 CLG06    NH1     1  0.315591961914  0.495057556250
 CLG06    NHL     1  0.315591961914  0.495057556250
 CLG06      O     1  0.302228481142  0.383469934154
 CLG06     OB     1  0.302228481142  0.383469934154
 CLG06    OBL     1  0.302228481142  0.383469934154
 CLG06  OC2D1     1  0.302228481142  0.383469934154
 CLG06  OC2D3     1  0.302228481142  0.383469934154
 CLG06  OC2D4     1  0.302228481142  0.383469934154
 CLG06    OCA     1  0.302228481142  0.383469934154
 CLG06  OG2D1     1  0.302228481142  0.383469934154
 CLG06  OG2D3     1  0.302228481142  0.383469934154
 CLG06   OLG1     1  0.302228481142  0.383469934154
CLG06A  CLG11     1  0.346773417049  0.110698234855
CLG06A  CLG12     1  0.346773417049  0.110698234855
CLG06A  CLG13     1  0.346773417049  0.110698234855
CLG06A  CLG14     1  0.346773417049  0.110698234855
CLG06A  CLG15     1  0.346773417049  0.110698234855
CLG06A  CLG16     1  0.346773417049  0.110698234855
CLG06A    CN6     1  0.346773417049  0.110698234855
CLG06A    CN7     1  0.346773417049  0.110698234855
CLG06A   CN7B     1  0.346773417049  0.110698234855
CLG06A   CN7E     1  0.346773417049  0.110698234855
CLG06A    CN8     1  0.346773417049  0.110698234855
CLG06A   CN8B     1  0.346773417049  0.110698234855
CLG06A    CN9     1  0.346773417049  0.110698234855
CLG06A    CP1     1  0.346773417049  0.110698234855
CLG06A    CP2     1  0.346773417049  0.110698234855
CLG06A    CP3     1  0.346773417049  0.110698234855
CLG06A   CPD1     1  0.346773417049  0.110698234855
CLG06A   CR33     1  0.346773417049  0.110698234855
CLG06A   CRL1     1  0.346773417049  0.110698234855
CLG06A   CRL2     1  0.346773417049  0.110698234855
CLG06A     CT     1  0.346773417049  0.110698234855
CLG06A    CT1     1  0.346773417049  0.110698234855
CLG06A   CT1X     1  0.346773417049  0.110698234855
CLG06A    CT2     1  0.346773417049  0.110698234855
CLG06A   CT2A     1  0.346773417049  0.110698234855
CLG06A   CT2P     1  0.346773417049  0.110698234855
CLG06A   CT2X     1  0.346773417049  0.110698234855
CLG06A    CT3     1  0.346773417049  0.110698234855
CLG06A   CT3X     1  0.346773417049  0.110698234855
CLG06A   CTD1     1  0.346773417049  0.110698234855
CLG06A   CTL1     1  0.346773417049  0.110698234855
CLG06A   CTL2     1  0.346773417049  0.110698234855
CLG06A   CTL3     1  0.346773417049  0.110698234855
CLG06A   CTL5     1  0.346773417049  0.110698234855
CLG06A   CTO1     1  0.346773417049  0.110698234855
CLG06A   CTO2     1  0.346773417049  0.110698234855
CLG06A     HP     1  0.298504524500  0.191734967077
CLG06A      N     1  0.342318923458  0.011069823485
CLG06A  NC2D1     1  0.315591961914  0.495057556250
CLG06A  NG2S0     1  0.342318923458  0.011069823485
CLG06A  NG2S1     1  0.315591961914  0.495057556250
CLG06A    NH1     1  0.315591961914  0.495057556250
CLG06A    NHL     1  0.315591961914  0.495057556250
CLG06A      O     1  0.302228481142  0.383469934154
CLG06A     OB     1  0.302228481142  0.383469934154
CLG06A    OBL     1  0.302228481142  0.383469934154
CLG06A  OC2D1     1  0.302228481142  0.383469934154
CLG06A  OC2D3     1  0.302228481142  0.383469934154
CLG06A  OC2D4     1  0.302228481142  0.383469934154
CLG06A    OCA     1  0.302228481142  0.383469934154
CLG06A  OG2D1     1  0.302228481142  0.383469934154
CLG06A  OG2D3     1  0.302228481142  0.383469934154
CLG06A   OLG1     1  0.302228481142  0.383469934154
CLG06B  CLG11     1  0.346773417049  0.110698234855
CLG06B  CLG12     1  0.346773417049  0.110698234855
CLG06B  CLG13     1  0.346773417049  0.110698234855
CLG06B  CLG14     1  0.346773417049  0.110698234855
CLG06B  CLG15     1  0.346773417049  0.110698234855
CLG06B  CLG16     1  0.346773417049  0.110698234855
CLG06B    CN6     1  0.346773417049  0.110698234855
CLG06B    CN7     1  0.346773417049  0.110698234855
CLG06B   CN7B     1  0.346773417049  0.110698234855
CLG06B   CN7E     1  0.346773417049  0.110698234855
CLG06B    CN8     1  0.346773417049  0.110698234855
CLG06B   CN8B     1  0.346773417049  0.110698234855
CLG06B    CN9     1  0.346773417049  0.110698234855
CLG06B    CP1     1  0.346773417049  0.110698234855
CLG06B    CP2     1  0.346773417049  0.110698234855
CLG06B    CP3     1  0.346773417049  0.110698234855
CLG06B   CPD1     1  0.346773417049  0.110698234855
CLG06B   CR33     1  0.346773417049  0.110698234855
CLG06B   CRL1     1  0.346773417049  0.110698234855
CLG06B   CRL2     1  0.346773417049  0.110698234855
CLG06B     CT     1  0.346773417049  0.110698234855
CLG06B    CT1     1  0.346773417049  0.110698234855
CLG06B   CT1X     1  0.346773417049  0.110698234855
CLG06B    CT2     1  0.346773417049  0.110698234855
CLG06B   CT2A     1  0.346773417049  0.110698234855
CLG06B   CT2P     1  0.346773417049  0.110698234855
CLG06B   CT2X     1  0.346773417049  0.110698234855
CLG06B    CT3     1  0.346773417049  0.110698234855
CLG06B   CT3X     1  0.346773417049  0.110698234855
CLG06B   CTD1     1  0.346773417049  0.110698234855
CLG06B   CTL1     1  0.346773417049  0.110698234855
CLG06B   CTL2     1  0.346773417049  0.110698234855
CLG06B   CTL3     1  0.346773417049  0.110698234855
CLG06B   CTL5     1  0.346773417049  0.110698234855
CLG06B   CTO1     1  0.346773417049  0.110698234855
CLG06B   CTO2     1  0.346773417049  0.110698234855
CLG06B     HP     1  0.298504524500  0.191734967077
CLG06B      N     1  0.342318923458  0.011069823485
CLG06B  NC2D1     1  0.315591961914  0.495057556250
CLG06B  NG2S0     1  0.342318923458  0.011069823485
CLG06B  NG2S1     1  0.315591961914  0.495057556250
CLG06B    NH1     1  0.315591961914  0.495057556250
CLG06B    NHL     1  0.315591961914  0.495057556250
CLG06B      O     1  0.302228481142  0.383469934154
CLG06B     OB     1  0.302228481142  0.383469934154
CLG06B    OBL     1  0.302228481142  0.383469934154
CLG06B  OC2D1     1  0.302228481142  0.383469934154
CLG06B  OC2D3     1  0.302228481142  0.383469934154
CLG06B  OC2D4     1  0.302228481142  0.383469934154
CLG06B    OCA     1  0.302228481142  0.383469934154
CLG06B  OG2D1     1  0.302228481142  0.383469934154
CLG06B  OG2D3     1  0.302228481142  0.383469934154
CLG06B   OLG1     1  0.302228481142  0.383469934154
 CLG07  CLG11     1  0.338541512893  0.125520000000
 CLG07  CLG12     1  0.338541512893  0.125520000000
 CLG07  CLG13     1  0.338541512893  0.125520000000
 CLG07  CLG14     1  0.338541512893  0.125520000000
 CLG07  CLG15     1  0.338541512893  0.125520000000
 CLG07  CLG16     1  0.338541512893  0.125520000000
 CLG07    CN6     1  0.338541512893  0.125520000000
 CLG07    CN7     1  0.338541512893  0.125520000000
 CLG07   CN7B     1  0.338541512893  0.125520000000
 CLG07   CN7E     1  0.338541512893  0.125520000000
 CLG07    CN8     1  0.338541512893  0.125520000000
 CLG07   CN8B     1  0.338541512893  0.125520000000
 CLG07    CN9     1  0.338541512893  0.125520000000
 CLG07    CP1     1  0.338541512893  0.125520000000
 CLG07    CP2     1  0.338541512893  0.125520000000
 CLG07    CP3     1  0.338541512893  0.125520000000
 CLG07   CPD1     1  0.338541512893  0.125520000000
 CLG07   CR33     1  0.338541512893  0.125520000000
 CLG07   CRL1     1  0.338541512893  0.125520000000
 CLG07   CRL2     1  0.338541512893  0.125520000000
 CLG07     CT     1  0.338541512893  0.125520000000
 CLG07    CT1     1  0.338541512893  0.125520000000
 CLG07   CT1X     1  0.338541512893  0.125520000000
 CLG07    CT2     1  0.338541512893  0.125520000000
 CLG07   CT2A     1  0.338541512893  0.125520000000
 CLG07   CT2P     1  0.338541512893  0.125520000000
 CLG07   CT2X     1  0.338541512893  0.125520000000
 CLG07    CT3     1  0.338541512893  0.125520000000
 CLG07   CT3X     1  0.338541512893  0.125520000000
 CLG07   CTD1     1  0.338541512893  0.125520000000
 CLG07   CTL1     1  0.338541512893  0.125520000000
 CLG07   CTL2     1  0.338541512893  0.125520000000
 CLG07   CTL3     1  0.338541512893  0.125520000000
 CLG07   CTL5     1  0.338541512893  0.125520000000
 CLG07   CTO1     1  0.338541512893  0.125520000000
 CLG07   CTO2     1  0.338541512893  0.125520000000
 CLG07     HP     1  0.290272620344  0.217407017366
 CLG07      N     1  0.334087019303  0.012552000000
 CLG07  NC2D1     1  0.307360057758  0.561342505072
 CLG07  NG2S0     1  0.334087019303  0.012552000000
 CLG07  NG2S1     1  0.307360057758  0.561342505072
 CLG07    NH1     1  0.307360057758  0.561342505072
 CLG07    NHL     1  0.307360057758  0.561342505072
 CLG07      O     1  0.293996576986  0.434814034732
 CLG07     OB     1  0.293996576986  0.434814034732
 CLG07    OBL     1  0.293996576986  0.434814034732
 CLG07  OC2D1     1  0.293996576986  0.434814034732
 CLG07  OC2D3     1  0.293996576986  0.434814034732
 CLG07  OC2D4     1  0.293996576986  0.434814034732
 CLG07    OCA     1  0.293996576986  0.434814034732
 CLG07  OG2D1     1  0.293996576986  0.434814034732
 CLG07  OG2D3     1  0.293996576986  0.434814034732
 CLG07   OLG1     1  0.293996576986  0.434814034732
 CLG08  CLG11     1  0.338541512893  0.132309697301
 CLG08  CLG12     1  0.338541512893  0.132309697301
 CLG08  CLG13     1  0.338541512893  0.132309697301
 CLG08  CLG14     1  0.338541512893  0.132309697301
 CLG08  CLG15     1  0.338541512893  0.132309697301
 CLG08  CLG16     1  0.338541512893  0.132309697301
 CLG08    CN6     1  0.338541512893  0.132309697301
 CLG08    CN7     1  0.338541512893  0.132309697301
 CLG08   CN7B     1  0.338541512893  0.132309697301
 CLG08   CN7E     1  0.338541512893  0.132309697301
 CLG08    CN8     1  0.338541512893  0.132309697301
 CLG08   CN8B     1  0.338541512893  0.132309697301
 CLG08    CN9     1  0.338541512893  0.132309697301
 CLG08    CP1     1  0.338541512893  0.132309697301
 CLG08    CP2     1  0.338541512893  0.132309697301
 CLG08    CP3     1  0.338541512893  0.132309697301
 CLG08   CPD1     1  0.338541512893  0.132309697301
 CLG08   CR33     1  0.338541512893  0.132309697301
 CLG08   CRL1     1  0.338541512893  0.132309697301
 CLG08   CRL2     1  0.338541512893  0.132309697301
 CLG08     CT     1  0.338541512893  0.132309697301
 CLG08    CT1     1  0.338541512893  0.132309697301
 CLG08   CT1X     1  0.338541512893  0.132309697301
 CLG08    CT2     1  0.338541512893  0.132309697301
 CLG08   CT2A     1  0.338541512893  0.132309697301
 CLG08   CT2P     1  0.338541512893  0.132309697301
 CLG08   CT2X     1  0.338541512893  0.132309697301
 CLG08    CT3     1  0.338541512893  0.132309697301
 CLG08   CT3X     1  0.338541512893  0.132309697301
 CLG08   CTD1     1  0.338541512893  0.132309697301
 CLG08   CTL1     1  0.338541512893  0.132309697301
 CLG08   CTL2     1  0.338541512893  0.132309697301
 CLG08   CTL3     1  0.338541512893  0.132309697301
 CLG08   CTL5     1  0.338541512893  0.132309697301
 CLG08   CTO1     1  0.338541512893  0.132309697301
 CLG08   CTO2     1  0.338541512893  0.132309697301
 CLG08     HP     1  0.290272620344  0.229167118060
 CLG08      N     1  0.334087019303  0.013230969730
 CLG08  NC2D1     1  0.307360057758  0.591706954497
 CLG08  NG2S0     1  0.334087019303  0.013230969730
 CLG08  NG2S1     1  0.307360057758  0.591706954497
 CLG08    NH1     1  0.307360057758  0.591706954497
 CLG08    NHL     1  0.307360057758  0.591706954497
 CLG08      O     1  0.293996576986  0.458334236120
 CLG08     OB     1  0.293996576986  0.458334236120
 CLG08    OBL     1  0.293996576986  0.458334236120
 CLG08  OC2D1     1  0.293996576986  0.458334236120
 CLG08  OC2D3     1  0.293996576986  0.458334236120
 CLG08  OC2D4     1  0.293996576986  0.458334236120
 CLG08    OCA     1  0.293996576986  0.458334236120
 CLG08  OG2D1     1  0.293996576986  0.458334236120
 CLG08  OG2D3     1  0.293996576986  0.458334236120
 CLG08   OLG1     1  0.293996576986  0.458334236120
 CLG09  CLG11     1  0.346773417049  0.110698234855
 CLG09  CLG12     1  0.346773417049  0.110698234855
 CLG09  CLG13     1  0.346773417049  0.110698234855
 CLG09  CLG14     1  0.346773417049  0.110698234855
 CLG09  CLG15     1  0.346773417049  0.110698234855
 CLG09  CLG16     1  0.346773417049  0.110698234855
 CLG09    CN6     1  0.346773417049  0.110698234855
 CLG09    CN7     1  0.346773417049  0.110698234855
 CLG09   CN7B     1  0.346773417049  0.110698234855
 CLG09   CN7E     1  0.346773417049  0.110698234855
 CLG09    CN8     1  0.346773417049  0.110698234855
 CLG09   CN8B     1  0.346773417049  0.110698234855
 CLG09    CN9     1  0.346773417049  0.110698234855
 CLG09    CP1     1  0.346773417049  0.110698234855
 CLG09    CP2     1  0.346773417049  0.110698234855
 CLG09    CP3     1  0.346773417049  0.110698234855
 CLG09   CPD1     1  0.346773417049  0.110698234855
 CLG09   CR33     1  0.346773417049  0.110698234855
 CLG09   CRL1     1  0.346773417049  0.110698234855
 CLG09   CRL2     1  0.346773417049  0.110698234855
 CLG09     CT     1  0.346773417049  0.110698234855
 CLG09    CT1     1  0.346773417049  0.110698234855
 CLG09   CT1X     1  0.346773417049  0.110698234855
 CLG09    CT2     1  0.346773417049  0.110698234855
 CLG09   CT2A     1  0.346773417049  0.110698234855
 CLG09   CT2P     1  0.346773417049  0.110698234855
 CLG09   CT2X     1  0.346773417049  0.110698234855
 CLG09    CT3     1  0.346773417049  0.110698234855
 CLG09   CT3X     1  0.346773417049  0.110698234855
 CLG09   CTD1     1  0.346773417049  0.110698234855
 CLG09   CTL1     1  0.346773417049  0.110698234855
 CLG09   CTL2     1  0.346773417049  0.110698234855
 CLG09   CTL3     1  0.346773417049  0.110698234855
 CLG09   CTL5     1  0.346773417049  0.110698234855
 CLG09   CTO1     1  0.346773417049  0.110698234855
 CLG09   CTO2     1  0.346773417049  0.110698234855
 CLG09     HP     1  0.298504524500  0.191734967077
 CLG09      N     1  0.342318923458  0.011069823485
 CLG09  NC2D1     1  0.315591961914  0.495057556250
 CLG09  NG2S0     1  0.342318923458  0.011069823485
 CLG09  NG2S1     1  0.315591961914  0.495057556250
 CLG09    NH1     1  0.315591961914  0.495057556250
 CLG09    NHL     1  0.315591961914  0.495057556250
 CLG09      O     1  0.302228481142  0.383469934154
 CLG09     OB     1  0.302228481142  0.383469934154
 CLG09    OBL     1  0.302228481142  0.383469934154
 CLG09  OC2D1     1  0.302228481142  0.383469934154
 CLG09  OC2D3     1  0.302228481142  0.383469934154
 CLG09  OC2D4     1  0.302228481142  0.383469934154
 CLG09    OCA     1  0.302228481142  0.383469934154
 CLG09  OG2D1     1  0.302228481142  0.383469934154
 CLG09  OG2D3     1  0.302228481142  0.383469934154
 CLG09   OLG1     1  0.302228481142  0.383469934154
 CLG10  CLG11     1  0.334977918021  0.131646486622
 CLG10  CLG12     1  0.334977918021  0.131646486622
 CLG10  CLG13     1  0.334977918021  0.131646486622
 CLG10  CLG14     1  0.334977918021  0.131646486622
 CLG10  CLG15     1  0.334977918021  0.131646486622
 CLG10  CLG16     1  0.334977918021  0.131646486622
 CLG10    CN6     1  0.334977918021  0.131646486622
 CLG10    CN7     1  0.334977918021  0.131646486622
 CLG10   CN7B     1  0.334977918021  0.131646486622
 CLG10   CN7E     1  0.334977918021  0.131646486622
 CLG10    CN8     1  0.334977918021  0.131646486622
 CLG10   CN8B     1  0.334977918021  0.131646486622
 CLG10    CN9     1  0.334977918021  0.131646486622
 CLG10    CP1     1  0.334977918021  0.131646486622
 CLG10    CP2     1  0.334977918021  0.131646486622
 CLG10    CP3     1  0.334977918021  0.131646486622
 CLG10   CPD1     1  0.334977918021  0.131646486622
 CLG10   CR33     1  0.334977918021  0.131646486622
 CLG10   CRL1     1  0.334977918021  0.131646486622
 CLG10   CRL2     1  0.334977918021  0.131646486622
 CLG10     CT     1  0.334977918021  0.131646486622
 CLG10    CT1     1  0.334977918021  0.131646486622
 CLG10   CT1X     1  0.334977918021  0.131646486622
 CLG10    CT2     1  0.334977918021  0.131646486622
 CLG10   CT2A     1  0.334977918021  0.131646486622
 CLG10   CT2P     1  0.334977918021  0.131646486622
 CLG10   CT2X     1  0.334977918021  0.131646486622
 CLG10    CT3     1  0.334977918021  0.131646486622
 CLG10   CT3X     1  0.334977918021  0.131646486622
 CLG10   CTD1     1  0.334977918021  0.131646486622
 CLG10   CTL1     1  0.334977918021  0.131646486622
 CLG10   CTL2     1  0.334977918021  0.131646486622
 CLG10   CTL3     1  0.334977918021  0.131646486622
 CLG10   CTL5     1  0.334977918021  0.131646486622
 CLG10   CTO1     1  0.334977918021  0.131646486622
 CLG10   CTO2     1  0.334977918021  0.131646486622
 CLG10     HP     1  0.286709025472  0.228018403468
 CLG10      N     1  0.330523424430  0.013164648662
 CLG10  NC2D1     1  0.303796462886  0.588740986173
 CLG10  NG2S0     1  0.330523424430  0.013164648662
 CLG10  NG2S1     1  0.303796462886  0.588740986173
 CLG10    NH1     1  0.303796462886  0.588740986173
 CLG10    NHL     1  0.303796462886  0.588740986173
 CLG10      O     1  0.290432982114  0.456036806936
 CLG10     OB     1  0.290432982114  0.456036806936
 CLG10    OBL     1  0.290432982114  0.456036806936
 CLG10  OC2D1     1  0.290432982114  0.456036806936
 CLG10  OC2D3     1  0.290432982114  0.456036806936
 CLG10  OC2D4     1  0.290432982114  0.456036806936
 CLG10    OCA     1  0.290432982114  0.456036806936
 CLG10  OG2D1     1  0.290432982114  0.456036806936
 CLG10  OG2D3     1  0.290432982114  0.456036806936
 CLG10   OLG1     1  0.290432982114  0.456036806936
 CLG11  CLG11     1  0.338541512893  0.041840000000
 CLG11  CLG12     1  0.338541512893  0.041840000000
 CLG11  CLG13     1  0.338541512893  0.041840000000
 CLG11  CLG14     1  0.338541512893  0.041840000000
 CLG11  CLG15     1  0.338541512893  0.041840000000
 CLG11  CLG16     1  0.338541512893  0.041840000000
 CLG11  CLGA1     1  0.339432411611  0.245040988571
 CLG11  CLGA3     1  0.339432411611  0.232955260941
 CLG11  CLGR1     1  0.334977918021  0.200657590935
 CLG11     CM     1  0.356359487256  0.138767581228
 CLG11     CN     1  0.325178032121  0.187114168357
 CLG11    CN1     1  0.338541512893  0.132309697301
 CLG11   CN1A     1  0.347450500075  0.110698234855
 CLG11   CN1T     1  0.338541512893  0.132309697301
 CLG11    CN2     1  0.338541512893  0.132309697301
 CLG11    CN3     1  0.338541512893  0.125520000000
 CLG11   CN3A     1  0.329632525712  0.177512086349
 CLG11   CN3B     1  0.329632525712  0.177512086349
 CLG11   CN3C     1  0.329632525712  0.177512086349
 CLG11   CN3D     1  0.338541512893  0.125520000000
 CLG11   CN3T     1  0.338541512893  0.125520000000
 CLG11    CN4     1  0.338541512893  0.114583559030
 CLG11    CN5     1  0.338541512893  0.114583559030
 CLG11   CN5G     1  0.338541512893  0.114583559030
 CLG11    CN6     1  0.338541512893  0.041840000000
 CLG11    CN7     1  0.338541512893  0.041840000000
 CLG11   CN7B     1  0.338541512893  0.041840000000
 CLG11   CN7E     1  0.338541512893  0.041840000000
 CLG11    CN8     1  0.338541512893  0.041840000000
 CLG11   CN8B     1  0.338541512893  0.041840000000
 CLG11    CN9     1  0.338541512893  0.041840000000
 CLG11    CNA     1  0.346773417049  0.110698234855
 CLG11   CNA2     1  0.338541512893  0.110698234855
 CLG11   CNE1     1  0.355468588538  0.109105371453
 CLG11   CNE2     1  0.354577689820  0.105847757841
 CLG11    CNG     1  0.347450500075  0.138767581228
 CLG11   CO2P     1  0.251910521541  0.164138698618
 CLG11   CO3P     1  0.192264852362  0.144393471099
 CLG11    COA     1  0.347450500075  0.138767581228
 CLG11    CP1     1  0.338541512893  0.041840000000
 CLG11    CP2     1  0.338541512893  0.041840000000
 CLG11    CP3     1  0.338541512893  0.041840000000
 CLG11    CPA     1  0.329632525712  0.125520000000
 CLG11    CPB     1  0.329632525712  0.125520000000
 CLG11   CPD1     1  0.338541512893  0.041840000000
 CLG11   CPH1     1  0.329632525712  0.093557084179
 CLG11   CPH2     1  0.329632525712  0.093557084179
 CLG11    CPM     1  0.329632525712  0.125520000000
 CLG11    CPT     1  0.334977918021  0.131646486622
 CLG11   CR2P     1  0.263634748672  0.170828164985
 CLG11   CR33     1  0.338541512893  0.041840000000
 CLG11   CR3P     1  0.244382427373  0.145299904804
 CLG11   CRL1     1  0.338541512893  0.041840000000
 CLG11   CRL2     1  0.338541512893  0.041840000000
 CLG11   CRN1     1  0.347450500075  0.138767581228
 CLG11     CS     1  0.365268474438  0.138767581228
 CLG11    CST     1  0.308518226092  0.100764063435
 CLG11     CT     1  0.338541512893  0.041840000000
 CLG11    CT1     1  0.338541512893  0.041840000000
 CLG11   CT1X     1  0.338541512893  0.041840000000
 CLG11    CT2     1  0.338541512893  0.041840000000
 CLG11   CT2A     1  0.338541512893  0.041840000000
 CLG11   CT2P     1  0.338541512893  0.041840000000
 CLG11   CT2X     1  0.338541512893  0.041840000000
 CLG11    CT3     1  0.338541512893  0.041840000000
 CLG11   CT3X     1  0.338541512893  0.041840000000
 CLG11   CTD1     1  0.338541512893  0.041840000000
 CLG11   CTL1     1  0.338541512893  0.041840000000
 CLG11   CTL2     1  0.338541512893  0.041840000000
 CLG11   CTL3     1  0.338541512893  0.041840000000
 CLG11   CTL5     1  0.338541512893  0.041840000000
 CLG11   CTO1     1  0.338541512893  0.041840000000
 CLG11   CTO2     1  0.338541512893  0.041840000000
 CLG11     CU     1  0.285800308779  0.908997471504
 CLG11   CU1P     1  0.246066225950  0.180057894334
 CLG11   CU2P     1  0.233869822499  0.162315474555
 CLG11     CY     1  0.346559601357  0.113045454929
 CLG11    DUM     1  0.169270756447  0.000000000000
 CLG11   DY3P     1  0.297952167295  0.171135318061
 CLG11   ER3P     1  0.291083338178  0.169232326746
 CLG11   EU2P     1  0.333231756533  0.203602227414
 CLG11   EU3P     1  0.304954631219  0.174528477447
 CLG11     F1     1  0.314487247504  0.153729976257
 CLG11     F2     1  0.314487247504  0.135577095411
 CLG11     F3     1  0.311814551349  0.130309939452
 CLG11     FA     1  0.320723538531  0.144938011577
 CLG11     FE     1  0.227179173126  0.000000000000
 CLG11   FE2P     1  0.265496726993  0.167098295383
 CLG11   FE3P     1  0.219722350855  0.148045032716
 CLG11   FGA1     1  0.314487247504  0.153729976257
 CLG11   FGA2     1  0.314487247504  0.135577095411
 CLG11   FGA3     1  0.311814551349  0.130309939452
 CLG11   FGP1     1  0.311814551349  0.130309939452
 CLG11   FGR1     1  0.320723538531  0.144938011577
 CLG11    FNA     1  0.320723538531  0.144938011577
 CLG11   GA3P     1  0.189485248361  0.145299904804
 CLG11   GD3P     1  0.303351013527  0.173673803114
 CLG11      H     1  0.189271432669  0.089736802707
 CLG11     HA     1  0.286869387241  0.062058748940
 CLG11    HA1     1  0.288651184677  0.088756043175
 CLG11    HA2     1  0.288651184677  0.077149148019
 CLG11    HA3     1  0.288651184677  0.064818249282
 CLG11    HAL     1  0.286869387241  0.062058748940
 CLG11   HAL1     1  0.286869387241  0.062058748940
 CLG11   HAL2     1  0.288651184677  0.070011711020
 CLG11   HAL3     1  0.288651184677  0.064818249282
 CLG11     HB     1  0.286869387241  0.062058748940
 CLG11    HB1     1  0.286869387241  0.062058748940
 CLG11    HB2     1  0.288651184677  0.070011711020
 CLG11    HBL     1  0.286869387241  0.062058748940
 CLG11     HC     1  0.189271432669  0.089736802707
 CLG11   HCA1     1  0.288651184677  0.088756043175
 CLG11  HCA1A     1  0.288651184677  0.088756043175
 CLG11 HCA1C2     1  0.288651184677  0.088756043175
 CLG11   HCA2     1  0.288651184677  0.078275472531
 CLG11 HCA25A     1  0.285087589805  0.078275472531
 CLG11  HCA2A     1  0.288651184677  0.078275472531
 CLG11 HCA2C2     1  0.285087589805  0.078275472531
 CLG11   HCA3     1  0.288651184677  0.064818249282
 CLG11  HCA3A     1  0.288651184677  0.064818249282
 CLG11  HCA3M     1  0.288651184677  0.064818249282
 CLG11    HCL     1  0.189271432669  0.089736802707
 CLG11   HCP1     1  0.189271432669  0.089736802707
 CLG11  HCP1M     1  0.189271432669  0.089736802707
 CLG11   HCR1     1  0.240542653898  0.089736802707
 CLG11     HE     1  0.301123766731  0.061020452073
 CLG11    HE1     1  0.280633096214  0.073666921749
 CLG11    HE2     1  0.281523994932  0.067464972838
 CLG11   HEL1     1  0.280633096214  0.073666921749
 CLG11   HEL2     1  0.281523994932  0.067464972838
 CLG11    HF1     1  0.286869387241  0.070011711020
 CLG11    HF2     1  0.285087589805  0.072469005789
 CLG11   HG2P     1  0.274557166956  0.189623385225
 CLG11   HGA1     1  0.288651184677  0.088756043175
 CLG11   HGA2     1  0.288651184677  0.078275472531
 CLG11   HGA3     1  0.288651184677  0.064818249282
 CLG11   HGA4     1  0.280633096214  0.073666921749
 CLG11   HGA5     1  0.281523994932  0.067464972838
 CLG11   HGA6     1  0.286869387241  0.070011711020
 CLG11   HGA7     1  0.285087589805  0.072469005789
 CLG11 HGAAM0     1  0.283305792369  0.070011711020
 CLG11 HGAAM1     1  0.283305792369  0.070011711020
 CLG11 HGAAM2     1  0.281523994932  0.083680000000
 CLG11   HGP1     1  0.189271432669  0.089736802707
 CLG11   HGP2     1  0.189271432669  0.089736802707
 CLG11   HGP3     1  0.209361198763  0.132309697301
 CLG11   HGP4     1  0.189271432669  0.089736802707
 CLG11   HGP5     1  0.231633666716  0.089736802707
 CLG11 HGPAM1     1  0.247224394284  0.039692909190
 CLG11 HGPAM2     1  0.247224394284  0.041840000000
 CLG11 HGPAM3     1  0.246778944925  0.045833423612
 CLG11  HGR51     1  0.290272620344  0.072469005789
 CLG11  HGR52     1  0.249451641079  0.089736802707
 CLG11  HGR53     1  0.231633666716  0.089736802707
 CLG11  HGR61     1  0.290272620344  0.072469005789
 CLG11  HGR62     1  0.267269615442  0.089736802707
 CLG11  HGR63     1  0.249451641079  0.089736802707
 CLG11  HGR71     1  0.290272620344  0.072469005789
 CLG11     HL     1  0.231633666716  0.089736802707
 CLG11  HLGA1     1  0.288651184677  0.088756043175
 CLG11  HLGA2     1  0.288651184677  0.078275472531
 CLG11  HLGA3     1  0.288651184677  0.064818249282
 CLG11  HLGA4     1  0.280633096214  0.073666921749
 CLG11  HLGP1     1  0.189271432669  0.089736802707
 CLG11 HLGR52     1  0.249451641079  0.089736802707
 CLG11 HLGR61     1  0.290272620344  0.072469005789
 CLG11 HLGR62     1  0.267269615442  0.089736802707
 CLG11    HN1     1  0.189271432669  0.089736802707
 CLG11    HN2     1  0.189271432669  0.089736802707
 CLG11    HN3     1  0.267269615442  0.089736802707
 CLG11   HN3B     1  0.249451641079  0.089736802707
 CLG11    HN4     1  0.189271432669  0.089736802707
 CLG11    HN5     1  0.189271432669  0.089736802707
 CLG11    HN6     1  0.286869387241  0.062058748940
 CLG11    HN7     1  0.286869387241  0.062058748940
 CLG11    HN8     1  0.288651184677  0.070011711020
 CLG11    HN9     1  0.288651184677  0.064818249282
 CLG11   HNE1     1  0.280633096214  0.073666921749
 CLG11   HNE2     1  0.281523994932  0.067464972838
 CLG11    HNP     1  0.290272620344  0.072469005789
 CLG11   HO3P     1  0.293168041178  0.170263611896
 CLG11    HOL     1  0.189271432669  0.089736802707
 CLG11     HP     1  0.290272620344  0.072469005789
 CLG11   HPER     1  0.189271432669  0.089736802707
 CLG11    HR1     1  0.249451641079  0.089736802707
 CLG11    HR2     1  0.231633666716  0.089736802707
 CLG11    HR3     1  0.300054688270  0.036952087465
 CLG11   HRA3     1  0.288651184677  0.064818249282
 CLG11   HRM1     1  0.247224394284  0.039692909190
 CLG11   HRM2     1  0.247224394284  0.041840000000
 CLG11   HRP2     1  0.189271432669  0.089736802707
 CLG11     HS     1  0.209361198763  0.132309697301
 CLG11   HSIA     1  0.286869387241  0.062058748940
 CLG11   HSIO     1  0.189271432669  0.089736802707
 CLG11     HT     1  0.189271432669  0.089736802707
 CLG11     HX     1  0.189271432669  0.089736802707
 CLG11   IGR1     1  0.368832069310  0.301712530731
 CLG11   IN3P     1  0.246449312399  0.160580590010
 CLG11   LA3P     1  0.327200372211  0.182184255566
 CLG11    LIT     1  0.284864865125  0.020196198771
 CLG11    LPH     1  0.169270756447  0.000000000000
 CLG11   LU3P     1  0.289648991242  0.166731218816
 CLG11     MG     1  0.274842254546  0.051243325419
 CLG11   MN2P     1  0.276508235149  0.171747976291
 CLG11   MN3P     1  0.203516903172  0.148045032716
 CLG11      N     1  0.334087019303  0.004184000000
 CLG11     NC     1  0.334087019303  0.324091246411
 CLG11    NC2     1  0.334087019303  0.187114168357
 CLG11  NC2D1     1  0.307360057758  0.187114168357
 CLG11  NC311     1  0.347450500075  0.088756043175
 CLG11   ND3P     1  0.313587439798  0.177117175768
 CLG11     NE     1  0.305578260322  0.122698965603
 CLG11  NG1T1     1  0.328741626994  0.177512086349
 CLG11  NG2D1     1  0.334087019303  0.187114168357
 CLG11  NG2O1     1  0.334087019303  0.187114168357
 CLG11  NG2P1     1  0.334087019303  0.187114168357
 CLG11 NG2R43     1  0.334087019303  0.187114168357
 CLG11 NG2R50     1  0.334087019303  0.187114168357
 CLG11 NG2R51     1  0.334087019303  0.187114168357
 CLG11 NG2R52     1  0.334087019303  0.187114168357
 CLG11 NG2R53     1  0.334087019303  0.187114168357
 CLG11 NG2R57     1  0.334087019303  0.187114168357
 CLG11 NG2R60     1  0.337650614175  0.102486650838
 CLG11 NG2R61     1  0.334087019303  0.187114168357
 CLG11 NG2R62     1  0.352795892384  0.093557084179
 CLG11 NG2R67     1  0.334087019303  0.187114168357
 CLG11 NG2RC0     1  0.334087019303  0.187114168357
 CLG11  NG2S0     1  0.334087019303  0.004184000000
 CLG11  NG2S1     1  0.307360057758  0.187114168357
 CLG11  NG2S2     1  0.334087019303  0.187114168357
 CLG11  NG2S3     1  0.334087019303  0.187114168357
 CLG11  NG301     1  0.347450500075  0.078275472531
 CLG11  NG311     1  0.347450500075  0.088756043175
 CLG11  NG321     1  0.346559601357  0.102486650838
 CLG11  NG331     1  0.345668702638  0.110698234855
 CLG11 NG3C51     1  0.334087019303  0.187114168357
 CLG11  NG3N1     1  0.351904993665  0.102486650838
 CLG11  NG3P0     1  0.334087019303  0.187114168357
 CLG11  NG3P1     1  0.334087019303  0.187114168357
 CLG11  NG3P2     1  0.334087019303  0.187114168357
 CLG11  NG3P3     1  0.334087019303  0.187114168357
 CLG11    NH1     1  0.307360057758  0.187114168357
 CLG11    NH2     1  0.334087019303  0.187114168357
 CLG11    NH3     1  0.334087019303  0.187114168357
 CLG11   NH3L     1  0.334087019303  0.187114168357
 CLG11    NHL     1  0.307360057758  0.187114168357
 CLG11     NI     1  0.282949432881  0.994525446633
 CLG11   NI2P     1  0.238787583423  0.158440517242
 CLG11    NN1     1  0.334087019303  0.187114168357
 CLG11   NN1C     1  0.334087019303  0.187114168357
 CLG11    NN2     1  0.334087019303  0.187114168357
 CLG11   NN2B     1  0.334087019303  0.187114168357
 CLG11   NN2C     1  0.334087019303  0.187114168357
 CLG11   NN2G     1  0.334087019303  0.187114168357
 CLG11   NN2U     1  0.334087019303  0.187114168357
 CLG11    NN3     1  0.334087019303  0.187114168357
 CLG11   NN3A     1  0.334087019303  0.187114168357
 CLG11   NN3G     1  0.334087019303  0.187114168357
 CLG11   NN3I     1  0.334087019303  0.187114168357
 CLG11    NN4     1  0.334087019303  0.187114168357
 CLG11    NN6     1  0.334087019303  0.187114168357
 CLG11    NNG     1  0.334087019303  0.187114168357
 CLG11     NP     1  0.334087019303  0.187114168357
 CLG11    NPH     1  0.334087019303  0.187114168357
 CLG11    NR1     1  0.334087019303  0.187114168357
 CLG11    NR2     1  0.334087019303  0.187114168357
 CLG11    NR3     1  0.334087019303  0.187114168357
 CLG11   NRC4     1  0.334087019303  0.187114168357
 CLG11   NRN1     1  0.347450500075  0.280671252536
 CLG11   NRN2     1  0.346559601357  0.102486650838
 CLG11    NS1     1  0.334087019303  0.187114168357
 CLG11    NS2     1  0.334087019303  0.187114168357
 CLG11    NTL     1  0.334087019303  0.187114168357
 CLG11     NY     1  0.334087019303  0.187114168357
 CLG11      O     1  0.293996576986  0.144938011577
 CLG11    O2L     1  0.320723538531  0.144938011577
 CLG11    OAL     1  0.326959829558  0.163176000000
 CLG11     OB     1  0.293996576986  0.144938011577
 CLG11    OBL     1  0.293996576986  0.144938011577
 CLG11     OC     1  0.320723538531  0.144938011577
 CLG11  OC2D1     1  0.293996576986  0.144938011577
 CLG11  OC2D2     1  0.320723538531  0.144938011577
 CLG11  OC2D3     1  0.293996576986  0.144938011577
 CLG11  OC2D4     1  0.293996576986  0.144938011577
 CLG11  OC2DP     1  0.320723538531  0.144938011577
 CLG11  OC301     1  0.316269044940  0.132309697301
 CLG11  OC302     1  0.316269044940  0.132309697301
 CLG11  OC303     1  0.316269044940  0.132309697301
 CLG11 OC305A     1  0.316269044940  0.132309697301
 CLG11  OC30A     1  0.316269044940  0.132309697301
 CLG11  OC30P     1  0.326959829558  0.163176000000
 CLG11  OC311     1  0.326514380198  0.183381431383
 CLG11 OC311M     1  0.326514380198  0.183381431383
 CLG11  OC312     1  0.326959829558  0.163176000000
 CLG11 OC3C51     1  0.316269044940  0.132309697301
 CLG11 OC3C5M     1  0.316269044940  0.132309697301
 CLG11 OC3C61     1  0.316269044940  0.132309697301
 CLG11    OCA     1  0.293996576986  0.144938011577
 CLG11    OCL     1  0.320723538531  0.144938011577
 CLG11  OG2D1     1  0.293996576986  0.144938011577
 CLG11  OG2D2     1  0.320723538531  0.144938011577
 CLG11  OG2D3     1  0.293996576986  0.144938011577
 CLG11  OG2D4     1  0.320723538531  0.144938011577
 CLG11  OG2D5     1  0.320010819556  0.169954883425
 CLG11  OG2N1     1  0.320723538531  0.144938011577
 CLG11  OG2P1     1  0.320723538531  0.144938011577
 CLG11 OG2R50     1  0.320723538531  0.144938011577
 CLG11  OG2S1     1  0.318906105146  0.157831660601
 CLG11  OG301     1  0.316269044940  0.132309697301
 CLG11  OG302     1  0.316269044940  0.132309697301
 CLG11  OG303     1  0.316269044940  0.132309697301
 CLG11  OG304     1  0.316269044940  0.132309697301
 CLG11  OG311     1  0.326514380198  0.183381431383
 CLG11  OG312     1  0.325178032121  0.144938011577
 CLG11 OG3C31     1  0.316269044940  0.132309697301
 CLG11 OG3C51     1  0.316269044940  0.132309697301
 CLG11 OG3C61     1  0.316269044940  0.132309697301
 CLG11 OG3R60     1  0.316269044940  0.132309697301
 CLG11    OH1     1  0.326959829558  0.163176000000
 CLG11    OHL     1  0.326959829558  0.163176000000
 CLG11   OLG1     1  0.293996576986  0.144938011577
 CLG11   OLG2     1  0.320723538531  0.144938011577
 CLG11   OLG3     1  0.320723538531  0.144938011577
 CLG11   OLG4     1  0.316269044940  0.132309697301
 CLG11   OLG5     1  0.316269044940  0.132309697301
 CLG11   OLG6     1  0.326514380198  0.183381431383
 CLG11   OLG7     1  0.316269044940  0.132309697301
 CLG11   OLG8     1  0.316269044940  0.132309697301
 CLG11     OM     1  0.320723538531  0.144938011577
 CLG11    ON1     1  0.320723538531  0.144938011577
 CLG11   ON1C     1  0.320723538531  0.144938011577
 CLG11    ON2     1  0.326959829558  0.163176000000
 CLG11   ON2B     1  0.326959829558  0.163176000000
 CLG11   ON2M     1  0.316269044940  0.132309697301
 CLG11    ON3     1  0.320723538531  0.144938011577
 CLG11    ON4     1  0.326959829558  0.163176000000
 CLG11    ON5     1  0.326959829558  0.163176000000
 CLG11    ON6     1  0.326959829558  0.163176000000
 CLG11   ON6B     1  0.326959829558  0.163176000000
 CLG11   OPER     1  0.318427692534  0.188901923946
 CLG11     OS     1  0.326959829558  0.163176000000
 CLG11   OSIA     1  0.326959829558  0.163176000000
 CLG11   OSIE     1  0.326959829558  0.163176000000
 CLG11   OSIH     1  0.326959829558  0.163176000000
 CLG11    OSL     1  0.316269044940  0.132309697301
 CLG11   OSLP     1  0.316269044940  0.132309697301
 CLG11    OST     1  0.320010819556  0.169954883425
 CLG11     OT     1  0.326799467788  0.163176000000
 CLG11     OX     1  0.320723538531  0.144938011577
 CLG11      P     1  0.360813980847  0.320014464673
 CLG11     P2     1  0.360813980847  0.320014464673
 CLG11     P3     1  0.360813980847  0.320014464673
 CLG11     P4     1  0.360813980847  0.320014464673
 CLG11     PB     1  0.328073452955  0.716185437439
 CLG11   PB2P     1  0.325890751096  0.204716924713
 CLG11     PC     1  0.360813980847  0.320014464673
 CLG11     PD     1  0.294842930769  1.037598257516
 CLG11   PD2P     1  0.251865976605  0.174628752363
 CLG11    PG0     1  0.360813980847  0.320014464673
 CLG11    PG1     1  0.360813980847  0.320014464673
 CLG11    PG2     1  0.360813980847  0.320014464673
 CLG11     PL     1  0.360813980847  0.320014464673
 CLG11   PM3P     1  0.316910492017  0.176275053255
 CLG11    POT     1  0.326403017859  0.123410269913
 CLG11   PR3P     1  0.317079762773  0.178642591472
 CLG11     PT     1  0.296001099102  1.168527606863
 CLG11   PT2P     1  0.240284293270  0.168973521997
 CLG11   PU3P     1  0.318024115415  0.179522368790
 CLG11   RA2P     1  0.355459679551  0.229891668540
 CLG11   RH3P     1  0.210367914314  0.149983415617
 CLG11    RUB     1  0.338541512893  0.162045623205
 CLG11      S     1  0.347450500075  0.280671252536
 CLG11     SC     1  0.356359487256  0.286840588481
 CLG11   SC3P     1  0.266993436839  0.157109060719
 CLG11  SEGD1     1  0.363041227642  0.330244580395
 CLG11  SG2D1     1  0.351904993665  0.314496560236
 CLG11  SG2P1     1  0.355798221064  0.332305491450
 CLG11  SG2P2     1  0.352314807076  0.329421919951
 CLG11 SG2R50     1  0.347450500075  0.280671252536
 CLG11  SG301     1  0.345223253279  0.257919081884
 CLG11  SG302     1  0.365268474438  0.286840588481
 CLG11  SG311     1  0.347450500075  0.280671252536
 CLG11  SG3O1     1  0.356359487256  0.286840588481
 CLG11  SG3O2     1  0.347450500075  0.247528778125
 CLG11  SG3O3     1  0.347450500075  0.247528778125
 CLG11     SI     1  0.365268474438  0.324091246411
 CLG11   SIH3     1  0.365268474438  0.324091246411
 CLG11     SL     1  0.356359487256  0.286840588481
 CLG11     SM     1  0.345223253279  0.257919081884
 CLG11   SM2P     1  0.334666103469  0.207012887251
 CLG11   SM3P     1  0.308847858618  0.175378986746
 CLG11   SN2P     1  0.316981763914  0.181365662197
 CLG11    SOD     1  0.294954293108  0.090610410351
 CLG11     SP     1  0.365268474438  0.280671252536
 CLG11   SR2P     1  0.334612649546  0.200133451797
 CLG11     SS     1  0.365268474438  0.286840588481
 CLG11   TB3P     1  0.300678317372  0.172155203837
 CLG11   TI1P     1  0.341276571958  0.266826378666
 CLG11   TI3P     1  0.243117351193  0.149983415617
 CLG11   TL3P     1  0.246716582015  0.168869889039
 CLG11   TM3P     1  0.289417357575  0.168402751521
 CLG11    U3P     1  0.320830446377  0.182184255566
 CLG11    V2P     1  0.267599247968  0.167830039933
 CLG11    V3P     1  0.223989755715  0.147096016316
 CLG11    Y3P     1  0.295190381269  0.170263611896
 CLG11   YB2P     1  0.312616360195  0.189623385225
 CLG11   YB3P     1  0.284659958420  0.167569069413
 CLG11     ZN     1  0.266378716724  0.209200000000
 CLG12  CLG12     1  0.338541512893  0.041840000000
 CLG12  CLG13     1  0.338541512893  0.041840000000
 CLG12  CLG14     1  0.338541512893  0.041840000000
 CLG12  CLG15     1  0.338541512893  0.041840000000
 CLG12  CLG16     1  0.338541512893  0.041840000000
 CLG12  CLGA1     1  0.339432411611  0.245040988571
 CLG12  CLGA3     1  0.339432411611  0.232955260941
 CLG12  CLGR1     1  0.334977918021  0.200657590935
 CLG12     CM     1  0.356359487256  0.138767581228
 CLG12     CN     1  0.325178032121  0.187114168357
 CLG12    CN1     1  0.338541512893  0.132309697301
 CLG12   CN1A     1  0.347450500075  0.110698234855
 CLG12   CN1T     1  0.338541512893  0.132309697301
 CLG12    CN2     1  0.338541512893  0.132309697301
 CLG12    CN3     1  0.338541512893  0.125520000000
 CLG12   CN3A     1  0.329632525712  0.177512086349
 CLG12   CN3B     1  0.329632525712  0.177512086349
 CLG12   CN3C     1  0.329632525712  0.177512086349
 CLG12   CN3D     1  0.338541512893  0.125520000000
 CLG12   CN3T     1  0.338541512893  0.125520000000
 CLG12    CN4     1  0.338541512893  0.114583559030
 CLG12    CN5     1  0.338541512893  0.114583559030
 CLG12   CN5G     1  0.338541512893  0.114583559030
 CLG12    CN6     1  0.338541512893  0.041840000000
 CLG12    CN7     1  0.338541512893  0.041840000000
 CLG12   CN7B     1  0.338541512893  0.041840000000
 CLG12   CN7E     1  0.338541512893  0.041840000000
 CLG12    CN8     1  0.338541512893  0.041840000000
 CLG12   CN8B     1  0.338541512893  0.041840000000
 CLG12    CN9     1  0.338541512893  0.041840000000
 CLG12    CNA     1  0.346773417049  0.110698234855
 CLG12   CNA2     1  0.338541512893  0.110698234855
 CLG12   CNE1     1  0.355468588538  0.109105371453
 CLG12   CNE2     1  0.354577689820  0.105847757841
 CLG12    CNG     1  0.347450500075  0.138767581228
 CLG12   CO2P     1  0.251910521541  0.164138698618
 CLG12   CO3P     1  0.192264852362  0.144393471099
 CLG12    COA     1  0.347450500075  0.138767581228
 CLG12    CP1     1  0.338541512893  0.041840000000
 CLG12    CP2     1  0.338541512893  0.041840000000
 CLG12    CP3     1  0.338541512893  0.041840000000
 CLG12    CPA     1  0.329632525712  0.125520000000
 CLG12    CPB     1  0.329632525712  0.125520000000
 CLG12   CPD1     1  0.338541512893  0.041840000000
 CLG12   CPH1     1  0.329632525712  0.093557084179
 CLG12   CPH2     1  0.329632525712  0.093557084179
 CLG12    CPM     1  0.329632525712  0.125520000000
 CLG12    CPT     1  0.334977918021  0.131646486622
 CLG12   CR2P     1  0.263634748672  0.170828164985
 CLG12   CR33     1  0.338541512893  0.041840000000
 CLG12   CR3P     1  0.244382427373  0.145299904804
 CLG12   CRL1     1  0.338541512893  0.041840000000
 CLG12   CRL2     1  0.338541512893  0.041840000000
 CLG12   CRN1     1  0.347450500075  0.138767581228
 CLG12     CS     1  0.365268474438  0.138767581228
 CLG12    CST     1  0.308518226092  0.100764063435
 CLG12     CT     1  0.338541512893  0.041840000000
 CLG12    CT1     1  0.338541512893  0.041840000000
 CLG12   CT1X     1  0.338541512893  0.041840000000
 CLG12    CT2     1  0.338541512893  0.041840000000
 CLG12   CT2A     1  0.338541512893  0.041840000000
 CLG12   CT2P     1  0.338541512893  0.041840000000
 CLG12   CT2X     1  0.338541512893  0.041840000000
 CLG12    CT3     1  0.338541512893  0.041840000000
 CLG12   CT3X     1  0.338541512893  0.041840000000
 CLG12   CTD1     1  0.338541512893  0.041840000000
 CLG12   CTL1     1  0.338541512893  0.041840000000
 CLG12   CTL2     1  0.338541512893  0.041840000000
 CLG12   CTL3     1  0.338541512893  0.041840000000
 CLG12   CTL5     1  0.338541512893  0.041840000000
 CLG12   CTO1     1  0.338541512893  0.041840000000
 CLG12   CTO2     1  0.338541512893  0.041840000000
 CLG12     CU     1  0.285800308779  0.908997471504
 CLG12   CU1P     1  0.246066225950  0.180057894334
 CLG12   CU2P     1  0.233869822499  0.162315474555
 CLG12     CY     1  0.346559601357  0.113045454929
 CLG12    DUM     1  0.169270756447  0.000000000000
 CLG12   DY3P     1  0.297952167295  0.171135318061
 CLG12   ER3P     1  0.291083338178  0.169232326746
 CLG12   EU2P     1  0.333231756533  0.203602227414
 CLG12   EU3P     1  0.304954631219  0.174528477447
 CLG12     F1     1  0.314487247504  0.153729976257
 CLG12     F2     1  0.314487247504  0.135577095411
 CLG12     F3     1  0.311814551349  0.130309939452
 CLG12     FA     1  0.320723538531  0.144938011577
 CLG12     FE     1  0.227179173126  0.000000000000
 CLG12   FE2P     1  0.265496726993  0.167098295383
 CLG12   FE3P     1  0.219722350855  0.148045032716
 CLG12   FGA1     1  0.314487247504  0.153729976257
 CLG12   FGA2     1  0.314487247504  0.135577095411
 CLG12   FGA3     1  0.311814551349  0.130309939452
 CLG12   FGP1     1  0.311814551349  0.130309939452
 CLG12   FGR1     1  0.320723538531  0.144938011577
 CLG12    FNA     1  0.320723538531  0.144938011577
 CLG12   GA3P     1  0.189485248361  0.145299904804
 CLG12   GD3P     1  0.303351013527  0.173673803114
 CLG12      H     1  0.189271432669  0.089736802707
 CLG12     HA     1  0.286869387241  0.062058748940
 CLG12    HA1     1  0.288651184677  0.088756043175
 CLG12    HA2     1  0.288651184677  0.077149148019
 CLG12    HA3     1  0.288651184677  0.064818249282
 CLG12    HAL     1  0.286869387241  0.062058748940
 CLG12   HAL1     1  0.286869387241  0.062058748940
 CLG12   HAL2     1  0.288651184677  0.070011711020
 CLG12   HAL3     1  0.288651184677  0.064818249282
 CLG12     HB     1  0.286869387241  0.062058748940
 CLG12    HB1     1  0.286869387241  0.062058748940
 CLG12    HB2     1  0.288651184677  0.070011711020
 CLG12    HBL     1  0.286869387241  0.062058748940
 CLG12     HC     1  0.189271432669  0.089736802707
 CLG12   HCA1     1  0.288651184677  0.088756043175
 CLG12  HCA1A     1  0.288651184677  0.088756043175
 CLG12 HCA1C2     1  0.288651184677  0.088756043175
 CLG12   HCA2     1  0.288651184677  0.078275472531
 CLG12 HCA25A     1  0.285087589805  0.078275472531
 CLG12  HCA2A     1  0.288651184677  0.078275472531
 CLG12 HCA2C2     1  0.285087589805  0.078275472531
 CLG12   HCA3     1  0.288651184677  0.064818249282
 CLG12  HCA3A     1  0.288651184677  0.064818249282
 CLG12  HCA3M     1  0.288651184677  0.064818249282
 CLG12    HCL     1  0.189271432669  0.089736802707
 CLG12   HCP1     1  0.189271432669  0.089736802707
 CLG12  HCP1M     1  0.189271432669  0.089736802707
 CLG12   HCR1     1  0.240542653898  0.089736802707
 CLG12     HE     1  0.301123766731  0.061020452073
 CLG12    HE1     1  0.280633096214  0.073666921749
 CLG12    HE2     1  0.281523994932  0.067464972838
 CLG12   HEL1     1  0.280633096214  0.073666921749
 CLG12   HEL2     1  0.281523994932  0.067464972838
 CLG12    HF1     1  0.286869387241  0.070011711020
 CLG12    HF2     1  0.285087589805  0.072469005789
 CLG12   HG2P     1  0.274557166956  0.189623385225
 CLG12   HGA1     1  0.288651184677  0.088756043175
 CLG12   HGA2     1  0.288651184677  0.078275472531
 CLG12   HGA3     1  0.288651184677  0.064818249282
 CLG12   HGA4     1  0.280633096214  0.073666921749
 CLG12   HGA5     1  0.281523994932  0.067464972838
 CLG12   HGA6     1  0.286869387241  0.070011711020
 CLG12   HGA7     1  0.285087589805  0.072469005789
 CLG12 HGAAM0     1  0.283305792369  0.070011711020
 CLG12 HGAAM1     1  0.283305792369  0.070011711020
 CLG12 HGAAM2     1  0.281523994932  0.083680000000
 CLG12   HGP1     1  0.189271432669  0.089736802707
 CLG12   HGP2     1  0.189271432669  0.089736802707
 CLG12   HGP3     1  0.209361198763  0.132309697301
 CLG12   HGP4     1  0.189271432669  0.089736802707
 CLG12   HGP5     1  0.231633666716  0.089736802707
 CLG12 HGPAM1     1  0.247224394284  0.039692909190
 CLG12 HGPAM2     1  0.247224394284  0.041840000000
 CLG12 HGPAM3     1  0.246778944925  0.045833423612
 CLG12  HGR51     1  0.290272620344  0.072469005789
 CLG12  HGR52     1  0.249451641079  0.089736802707
 CLG12  HGR53     1  0.231633666716  0.089736802707
 CLG12  HGR61     1  0.290272620344  0.072469005789
 CLG12  HGR62     1  0.267269615442  0.089736802707
 CLG12  HGR63     1  0.249451641079  0.089736802707
 CLG12  HGR71     1  0.290272620344  0.072469005789
 CLG12     HL     1  0.231633666716  0.089736802707
 CLG12  HLGA1     1  0.288651184677  0.088756043175
 CLG12  HLGA2     1  0.288651184677  0.078275472531
 CLG12  HLGA3     1  0.288651184677  0.064818249282
 CLG12  HLGA4     1  0.280633096214  0.073666921749
 CLG12  HLGP1     1  0.189271432669  0.089736802707
 CLG12 HLGR52     1  0.249451641079  0.089736802707
 CLG12 HLGR61     1  0.290272620344  0.072469005789
 CLG12 HLGR62     1  0.267269615442  0.089736802707
 CLG12    HN1     1  0.189271432669  0.089736802707
 CLG12    HN2     1  0.189271432669  0.089736802707
 CLG12    HN3     1  0.267269615442  0.089736802707
 CLG12   HN3B     1  0.249451641079  0.089736802707
 CLG12    HN4     1  0.189271432669  0.089736802707
 CLG12    HN5     1  0.189271432669  0.089736802707
 CLG12    HN6     1  0.286869387241  0.062058748940
 CLG12    HN7     1  0.286869387241  0.062058748940
 CLG12    HN8     1  0.288651184677  0.070011711020
 CLG12    HN9     1  0.288651184677  0.064818249282
 CLG12   HNE1     1  0.280633096214  0.073666921749
 CLG12   HNE2     1  0.281523994932  0.067464972838
 CLG12    HNP     1  0.290272620344  0.072469005789
 CLG12   HO3P     1  0.293168041178  0.170263611896
 CLG12    HOL     1  0.189271432669  0.089736802707
 CLG12     HP     1  0.290272620344  0.072469005789
 CLG12   HPER     1  0.189271432669  0.089736802707
 CLG12    HR1     1  0.249451641079  0.089736802707
 CLG12    HR2     1  0.231633666716  0.089736802707
 CLG12    HR3     1  0.300054688270  0.036952087465
 CLG12   HRA3     1  0.288651184677  0.064818249282
 CLG12   HRM1     1  0.247224394284  0.039692909190
 CLG12   HRM2     1  0.247224394284  0.041840000000
 CLG12   HRP2     1  0.189271432669  0.089736802707
 CLG12     HS     1  0.209361198763  0.132309697301
 CLG12   HSIA     1  0.286869387241  0.062058748940
 CLG12   HSIO     1  0.189271432669  0.089736802707
 CLG12     HT     1  0.189271432669  0.089736802707
 CLG12     HX     1  0.189271432669  0.089736802707
 CLG12   IGR1     1  0.368832069310  0.301712530731
 CLG12   IN3P     1  0.246449312399  0.160580590010
 CLG12   LA3P     1  0.327200372211  0.182184255566
 CLG12    LIT     1  0.284864865125  0.020196198771
 CLG12    LPH     1  0.169270756447  0.000000000000
 CLG12   LU3P     1  0.289648991242  0.166731218816
 CLG12     MG     1  0.274842254546  0.051243325419
 CLG12   MN2P     1  0.276508235149  0.171747976291
 CLG12   MN3P     1  0.203516903172  0.148045032716
 CLG12      N     1  0.334087019303  0.004184000000
 CLG12     NC     1  0.334087019303  0.324091246411
 CLG12    NC2     1  0.334087019303  0.187114168357
 CLG12  NC2D1     1  0.307360057758  0.187114168357
 CLG12  NC311     1  0.347450500075  0.088756043175
 CLG12   ND3P     1  0.313587439798  0.177117175768
 CLG12     NE     1  0.305578260322  0.122698965603
 CLG12  NG1T1     1  0.328741626994  0.177512086349
 CLG12  NG2D1     1  0.334087019303  0.187114168357
 CLG12  NG2O1     1  0.334087019303  0.187114168357
 CLG12  NG2P1     1  0.334087019303  0.187114168357
 CLG12 NG2R43     1  0.334087019303  0.187114168357
 CLG12 NG2R50     1  0.334087019303  0.187114168357
 CLG12 NG2R51     1  0.334087019303  0.187114168357
 CLG12 NG2R52     1  0.334087019303  0.187114168357
 CLG12 NG2R53     1  0.334087019303  0.187114168357
 CLG12 NG2R57     1  0.334087019303  0.187114168357
 CLG12 NG2R60     1  0.337650614175  0.102486650838
 CLG12 NG2R61     1  0.334087019303  0.187114168357
 CLG12 NG2R62     1  0.352795892384  0.093557084179
 CLG12 NG2R67     1  0.334087019303  0.187114168357
 CLG12 NG2RC0     1  0.334087019303  0.187114168357
 CLG12  NG2S0     1  0.334087019303  0.004184000000
 CLG12  NG2S1     1  0.307360057758  0.187114168357
 CLG12  NG2S2     1  0.334087019303  0.187114168357
 CLG12  NG2S3     1  0.334087019303  0.187114168357
 CLG12  NG301     1  0.347450500075  0.078275472531
 CLG12  NG311     1  0.347450500075  0.088756043175
 CLG12  NG321     1  0.346559601357  0.102486650838
 CLG12  NG331     1  0.345668702638  0.110698234855
 CLG12 NG3C51     1  0.334087019303  0.187114168357
 CLG12  NG3N1     1  0.351904993665  0.102486650838
 CLG12  NG3P0     1  0.334087019303  0.187114168357
 CLG12  NG3P1     1  0.334087019303  0.187114168357
 CLG12  NG3P2     1  0.334087019303  0.187114168357
 CLG12  NG3P3     1  0.334087019303  0.187114168357
 CLG12    NH1     1  0.307360057758  0.187114168357
 CLG12    NH2     1  0.334087019303  0.187114168357
 CLG12    NH3     1  0.334087019303  0.187114168357
 CLG12   NH3L     1  0.334087019303  0.187114168357
 CLG12    NHL     1  0.307360057758  0.187114168357
 CLG12     NI     1  0.282949432881  0.994525446633
 CLG12   NI2P     1  0.238787583423  0.158440517242
 CLG12    NN1     1  0.334087019303  0.187114168357
 CLG12   NN1C     1  0.334087019303  0.187114168357
 CLG12    NN2     1  0.334087019303  0.187114168357
 CLG12   NN2B     1  0.334087019303  0.187114168357
 CLG12   NN2C     1  0.334087019303  0.187114168357
 CLG12   NN2G     1  0.334087019303  0.187114168357
 CLG12   NN2U     1  0.334087019303  0.187114168357
 CLG12    NN3     1  0.334087019303  0.187114168357
 CLG12   NN3A     1  0.334087019303  0.187114168357
 CLG12   NN3G     1  0.334087019303  0.187114168357
 CLG12   NN3I     1  0.334087019303  0.187114168357
 CLG12    NN4     1  0.334087019303  0.187114168357
 CLG12    NN6     1  0.334087019303  0.187114168357
 CLG12    NNG     1  0.334087019303  0.187114168357
 CLG12     NP     1  0.334087019303  0.187114168357
 CLG12    NPH     1  0.334087019303  0.187114168357
 CLG12    NR1     1  0.334087019303  0.187114168357
 CLG12    NR2     1  0.334087019303  0.187114168357
 CLG12    NR3     1  0.334087019303  0.187114168357
 CLG12   NRC4     1  0.334087019303  0.187114168357
 CLG12   NRN1     1  0.347450500075  0.280671252536
 CLG12   NRN2     1  0.346559601357  0.102486650838
 CLG12    NS1     1  0.334087019303  0.187114168357
 CLG12    NS2     1  0.334087019303  0.187114168357
 CLG12    NTL     1  0.334087019303  0.187114168357
 CLG12     NY     1  0.334087019303  0.187114168357
 CLG12      O     1  0.293996576986  0.144938011577
 CLG12    O2L     1  0.320723538531  0.144938011577
 CLG12    OAL     1  0.326959829558  0.163176000000
 CLG12     OB     1  0.293996576986  0.144938011577
 CLG12    OBL     1  0.293996576986  0.144938011577
 CLG12     OC     1  0.320723538531  0.144938011577
 CLG12  OC2D1     1  0.293996576986  0.144938011577
 CLG12  OC2D2     1  0.320723538531  0.144938011577
 CLG12  OC2D3     1  0.293996576986  0.144938011577
 CLG12  OC2D4     1  0.293996576986  0.144938011577
 CLG12  OC2DP     1  0.320723538531  0.144938011577
 CLG12  OC301     1  0.316269044940  0.132309697301
 CLG12  OC302     1  0.316269044940  0.132309697301
 CLG12  OC303     1  0.316269044940  0.132309697301
 CLG12 OC305A     1  0.316269044940  0.132309697301
 CLG12  OC30A     1  0.316269044940  0.132309697301
 CLG12  OC30P     1  0.326959829558  0.163176000000
 CLG12  OC311     1  0.326514380198  0.183381431383
 CLG12 OC311M     1  0.326514380198  0.183381431383
 CLG12  OC312     1  0.326959829558  0.163176000000
 CLG12 OC3C51     1  0.316269044940  0.132309697301
 CLG12 OC3C5M     1  0.316269044940  0.132309697301
 CLG12 OC3C61     1  0.316269044940  0.132309697301
 CLG12    OCA     1  0.293996576986  0.144938011577
 CLG12    OCL     1  0.320723538531  0.144938011577
 CLG12  OG2D1     1  0.293996576986  0.144938011577
 CLG12  OG2D2     1  0.320723538531  0.144938011577
 CLG12  OG2D3     1  0.293996576986  0.144938011577
 CLG12  OG2D4     1  0.320723538531  0.144938011577
 CLG12  OG2D5     1  0.320010819556  0.169954883425
 CLG12  OG2N1     1  0.320723538531  0.144938011577
 CLG12  OG2P1     1  0.320723538531  0.144938011577
 CLG12 OG2R50     1  0.320723538531  0.144938011577
 CLG12  OG2S1     1  0.318906105146  0.157831660601
 CLG12  OG301     1  0.316269044940  0.132309697301
 CLG12  OG302     1  0.316269044940  0.132309697301
 CLG12  OG303     1  0.316269044940  0.132309697301
 CLG12  OG304     1  0.316269044940  0.132309697301
 CLG12  OG311     1  0.326514380198  0.183381431383
 CLG12  OG312     1  0.325178032121  0.144938011577
 CLG12 OG3C31     1  0.316269044940  0.132309697301
 CLG12 OG3C51     1  0.316269044940  0.132309697301
 CLG12 OG3C61     1  0.316269044940  0.132309697301
 CLG12 OG3R60     1  0.316269044940  0.132309697301
 CLG12    OH1     1  0.326959829558  0.163176000000
 CLG12    OHL     1  0.326959829558  0.163176000000
 CLG12   OLG1     1  0.293996576986  0.144938011577
 CLG12   OLG2     1  0.320723538531  0.144938011577
 CLG12   OLG3     1  0.320723538531  0.144938011577
 CLG12   OLG4     1  0.316269044940  0.132309697301
 CLG12   OLG5     1  0.316269044940  0.132309697301
 CLG12   OLG6     1  0.326514380198  0.183381431383
 CLG12   OLG7     1  0.316269044940  0.132309697301
 CLG12   OLG8     1  0.316269044940  0.132309697301
 CLG12     OM     1  0.320723538531  0.144938011577
 CLG12    ON1     1  0.320723538531  0.144938011577
 CLG12   ON1C     1  0.320723538531  0.144938011577
 CLG12    ON2     1  0.326959829558  0.163176000000
 CLG12   ON2B     1  0.326959829558  0.163176000000
 CLG12   ON2M     1  0.316269044940  0.132309697301
 CLG12    ON3     1  0.320723538531  0.144938011577
 CLG12    ON4     1  0.326959829558  0.163176000000
 CLG12    ON5     1  0.326959829558  0.163176000000
 CLG12    ON6     1  0.326959829558  0.163176000000
 CLG12   ON6B     1  0.326959829558  0.163176000000
 CLG12   OPER     1  0.318427692534  0.188901923946
 CLG12     OS     1  0.326959829558  0.163176000000
 CLG12   OSIA     1  0.326959829558  0.163176000000
 CLG12   OSIE     1  0.326959829558  0.163176000000
 CLG12   OSIH     1  0.326959829558  0.163176000000
 CLG12    OSL     1  0.316269044940  0.132309697301
 CLG12   OSLP     1  0.316269044940  0.132309697301
 CLG12    OST     1  0.320010819556  0.169954883425
 CLG12     OT     1  0.326799467788  0.163176000000
 CLG12     OX     1  0.320723538531  0.144938011577
 CLG12      P     1  0.360813980847  0.320014464673
 CLG12     P2     1  0.360813980847  0.320014464673
 CLG12     P3     1  0.360813980847  0.320014464673
 CLG12     P4     1  0.360813980847  0.320014464673
 CLG12     PB     1  0.328073452955  0.716185437439
 CLG12   PB2P     1  0.325890751096  0.204716924713
 CLG12     PC     1  0.360813980847  0.320014464673
 CLG12     PD     1  0.294842930769  1.037598257516
 CLG12   PD2P     1  0.251865976605  0.174628752363
 CLG12    PG0     1  0.360813980847  0.320014464673
 CLG12    PG1     1  0.360813980847  0.320014464673
 CLG12    PG2     1  0.360813980847  0.320014464673
 CLG12     PL     1  0.360813980847  0.320014464673
 CLG12   PM3P     1  0.316910492017  0.176275053255
 CLG12    POT     1  0.326403017859  0.123410269913
 CLG12   PR3P     1  0.317079762773  0.178642591472
 CLG12     PT     1  0.296001099102  1.168527606863
 CLG12   PT2P     1  0.240284293270  0.168973521997
 CLG12   PU3P     1  0.318024115415  0.179522368790
 CLG12   RA2P     1  0.355459679551  0.229891668540
 CLG12   RH3P     1  0.210367914314  0.149983415617
 CLG12    RUB     1  0.338541512893  0.162045623205
 CLG12      S     1  0.347450500075  0.280671252536
 CLG12     SC     1  0.356359487256  0.286840588481
 CLG12   SC3P     1  0.266993436839  0.157109060719
 CLG12  SEGD1     1  0.363041227642  0.330244580395
 CLG12  SG2D1     1  0.351904993665  0.314496560236
 CLG12  SG2P1     1  0.355798221064  0.332305491450
 CLG12  SG2P2     1  0.352314807076  0.329421919951
 CLG12 SG2R50     1  0.347450500075  0.280671252536
 CLG12  SG301     1  0.345223253279  0.257919081884
 CLG12  SG302     1  0.365268474438  0.286840588481
 CLG12  SG311     1  0.347450500075  0.280671252536
 CLG12  SG3O1     1  0.356359487256  0.286840588481
 CLG12  SG3O2     1  0.347450500075  0.247528778125
 CLG12  SG3O3     1  0.347450500075  0.247528778125
 CLG12     SI     1  0.365268474438  0.324091246411
 CLG12   SIH3     1  0.365268474438  0.324091246411
 CLG12     SL     1  0.356359487256  0.286840588481
 CLG12     SM     1  0.345223253279  0.257919081884
 CLG12   SM2P     1  0.334666103469  0.207012887251
 CLG12   SM3P     1  0.308847858618  0.175378986746
 CLG12   SN2P     1  0.316981763914  0.181365662197
 CLG12    SOD     1  0.294954293108  0.090610410351
 CLG12     SP     1  0.365268474438  0.280671252536
 CLG12   SR2P     1  0.334612649546  0.200133451797
 CLG12     SS     1  0.365268474438  0.286840588481
 CLG12   TB3P     1  0.300678317372  0.172155203837
 CLG12   TI1P     1  0.341276571958  0.266826378666
 CLG12   TI3P     1  0.243117351193  0.149983415617
 CLG12   TL3P     1  0.246716582015  0.168869889039
 CLG12   TM3P     1  0.289417357575  0.168402751521
 CLG12    U3P     1  0.320830446377  0.182184255566
 CLG12    V2P     1  0.267599247968  0.167830039933
 CLG12    V3P     1  0.223989755715  0.147096016316
 CLG12    Y3P     1  0.295190381269  0.170263611896
 CLG12   YB2P     1  0.312616360195  0.189623385225
 CLG12   YB3P     1  0.284659958420  0.167569069413
 CLG12     ZN     1  0.266378716724  0.209200000000
 CLG13  CLG13     1  0.338541512893  0.041840000000
 CLG13  CLG14     1  0.338541512893  0.041840000000
 CLG13  CLG15     1  0.338541512893  0.041840000000
 CLG13  CLG16     1  0.338541512893  0.041840000000
 CLG13  CLGA1     1  0.339432411611  0.245040988571
 CLG13  CLGA3     1  0.339432411611  0.232955260941
 CLG13  CLGR1     1  0.334977918021  0.200657590935
 CLG13     CM     1  0.356359487256  0.138767581228
 CLG13     CN     1  0.325178032121  0.187114168357
 CLG13    CN1     1  0.338541512893  0.132309697301
 CLG13   CN1A     1  0.347450500075  0.110698234855
 CLG13   CN1T     1  0.338541512893  0.132309697301
 CLG13    CN2     1  0.338541512893  0.132309697301
 CLG13    CN3     1  0.338541512893  0.125520000000
 CLG13   CN3A     1  0.329632525712  0.177512086349
 CLG13   CN3B     1  0.329632525712  0.177512086349
 CLG13   CN3C     1  0.329632525712  0.177512086349
 CLG13   CN3D     1  0.338541512893  0.125520000000
 CLG13   CN3T     1  0.338541512893  0.125520000000
 CLG13    CN4     1  0.338541512893  0.114583559030
 CLG13    CN5     1  0.338541512893  0.114583559030
 CLG13   CN5G     1  0.338541512893  0.114583559030
 CLG13    CN6     1  0.338541512893  0.041840000000
 CLG13    CN7     1  0.338541512893  0.041840000000
 CLG13   CN7B     1  0.338541512893  0.041840000000
 CLG13   CN7E     1  0.338541512893  0.041840000000
 CLG13    CN8     1  0.338541512893  0.041840000000
 CLG13   CN8B     1  0.338541512893  0.041840000000
 CLG13    CN9     1  0.338541512893  0.041840000000
 CLG13    CNA     1  0.346773417049  0.110698234855
 CLG13   CNA2     1  0.338541512893  0.110698234855
 CLG13   CNE1     1  0.355468588538  0.109105371453
 CLG13   CNE2     1  0.354577689820  0.105847757841
 CLG13    CNG     1  0.347450500075  0.138767581228
 CLG13   CO2P     1  0.251910521541  0.164138698618
 CLG13   CO3P     1  0.192264852362  0.144393471099
 CLG13    COA     1  0.347450500075  0.138767581228
 CLG13    CP1     1  0.338541512893  0.041840000000
 CLG13    CP2     1  0.338541512893  0.041840000000
 CLG13    CP3     1  0.338541512893  0.041840000000
 CLG13    CPA     1  0.329632525712  0.125520000000
 CLG13    CPB     1  0.329632525712  0.125520000000
 CLG13   CPD1     1  0.338541512893  0.041840000000
 CLG13   CPH1     1  0.329632525712  0.093557084179
 CLG13   CPH2     1  0.329632525712  0.093557084179
 CLG13    CPM     1  0.329632525712  0.125520000000
 CLG13    CPT     1  0.334977918021  0.131646486622
 CLG13   CR2P     1  0.263634748672  0.170828164985
 CLG13   CR33     1  0.338541512893  0.041840000000
 CLG13   CR3P     1  0.244382427373  0.145299904804
 CLG13   CRL1     1  0.338541512893  0.041840000000
 CLG13   CRL2     1  0.338541512893  0.041840000000
 CLG13   CRN1     1  0.347450500075  0.138767581228
 CLG13     CS     1  0.365268474438  0.138767581228
 CLG13    CST     1  0.308518226092  0.100764063435
 CLG13     CT     1  0.338541512893  0.041840000000
 CLG13    CT1     1  0.338541512893  0.041840000000
 CLG13   CT1X     1  0.338541512893  0.041840000000
 CLG13    CT2     1  0.338541512893  0.041840000000
 CLG13   CT2A     1  0.338541512893  0.041840000000
 CLG13   CT2P     1  0.338541512893  0.041840000000
 CLG13   CT2X     1  0.338541512893  0.041840000000
 CLG13    CT3     1  0.338541512893  0.041840000000
 CLG13   CT3X     1  0.338541512893  0.041840000000
 CLG13   CTD1     1  0.338541512893  0.041840000000
 CLG13   CTL1     1  0.338541512893  0.041840000000
 CLG13   CTL2     1  0.338541512893  0.041840000000
 CLG13   CTL3     1  0.338541512893  0.041840000000
 CLG13   CTL5     1  0.338541512893  0.041840000000
 CLG13   CTO1     1  0.338541512893  0.041840000000
 CLG13   CTO2     1  0.338541512893  0.041840000000
 CLG13     CU     1  0.285800308779  0.908997471504
 CLG13   CU1P     1  0.246066225950  0.180057894334
 CLG13   CU2P     1  0.233869822499  0.162315474555
 CLG13     CY     1  0.346559601357  0.113045454929
 CLG13    DUM     1  0.169270756447  0.000000000000
 CLG13   DY3P     1  0.297952167295  0.171135318061
 CLG13   ER3P     1  0.291083338178  0.169232326746
 CLG13   EU2P     1  0.333231756533  0.203602227414
 CLG13   EU3P     1  0.304954631219  0.174528477447
 CLG13     F1     1  0.314487247504  0.153729976257
 CLG13     F2     1  0.314487247504  0.135577095411
 CLG13     F3     1  0.311814551349  0.130309939452
 CLG13     FA     1  0.320723538531  0.144938011577
 CLG13     FE     1  0.227179173126  0.000000000000
 CLG13   FE2P     1  0.265496726993  0.167098295383
 CLG13   FE3P     1  0.219722350855  0.148045032716
 CLG13   FGA1     1  0.314487247504  0.153729976257
 CLG13   FGA2     1  0.314487247504  0.135577095411
 CLG13   FGA3     1  0.311814551349  0.130309939452
 CLG13   FGP1     1  0.311814551349  0.130309939452
 CLG13   FGR1     1  0.320723538531  0.144938011577
 CLG13    FNA     1  0.320723538531  0.144938011577
 CLG13   GA3P     1  0.189485248361  0.145299904804
 CLG13   GD3P     1  0.303351013527  0.173673803114
 CLG13      H     1  0.189271432669  0.089736802707
 CLG13     HA     1  0.286869387241  0.062058748940
 CLG13    HA1     1  0.288651184677  0.088756043175
 CLG13    HA2     1  0.288651184677  0.077149148019
 CLG13    HA3     1  0.288651184677  0.064818249282
 CLG13    HAL     1  0.286869387241  0.062058748940
 CLG13   HAL1     1  0.286869387241  0.062058748940
 CLG13   HAL2     1  0.288651184677  0.070011711020
 CLG13   HAL3     1  0.288651184677  0.064818249282
 CLG13     HB     1  0.286869387241  0.062058748940
 CLG13    HB1     1  0.286869387241  0.062058748940
 CLG13    HB2     1  0.288651184677  0.070011711020
 CLG13    HBL     1  0.286869387241  0.062058748940
 CLG13     HC     1  0.189271432669  0.089736802707
 CLG13   HCA1     1  0.288651184677  0.088756043175
 CLG13  HCA1A     1  0.288651184677  0.088756043175
 CLG13 HCA1C2     1  0.288651184677  0.088756043175
 CLG13   HCA2     1  0.288651184677  0.078275472531
 CLG13 HCA25A     1  0.285087589805  0.078275472531
 CLG13  HCA2A     1  0.288651184677  0.078275472531
 CLG13 HCA2C2     1  0.285087589805  0.078275472531
 CLG13   HCA3     1  0.288651184677  0.064818249282
 CLG13  HCA3A     1  0.288651184677  0.064818249282
 CLG13  HCA3M     1  0.288651184677  0.064818249282
 CLG13    HCL     1  0.189271432669  0.089736802707
 CLG13   HCP1     1  0.189271432669  0.089736802707
 CLG13  HCP1M     1  0.189271432669  0.089736802707
 CLG13   HCR1     1  0.240542653898  0.089736802707
 CLG13     HE     1  0.301123766731  0.061020452073
 CLG13    HE1     1  0.280633096214  0.073666921749
 CLG13    HE2     1  0.281523994932  0.067464972838
 CLG13   HEL1     1  0.280633096214  0.073666921749
 CLG13   HEL2     1  0.281523994932  0.067464972838
 CLG13    HF1     1  0.286869387241  0.070011711020
 CLG13    HF2     1  0.285087589805  0.072469005789
 CLG13   HG2P     1  0.274557166956  0.189623385225
 CLG13   HGA1     1  0.288651184677  0.088756043175
 CLG13   HGA2     1  0.288651184677  0.078275472531
 CLG13   HGA3     1  0.288651184677  0.064818249282
 CLG13   HGA4     1  0.280633096214  0.073666921749
 CLG13   HGA5     1  0.281523994932  0.067464972838
 CLG13   HGA6     1  0.286869387241  0.070011711020
 CLG13   HGA7     1  0.285087589805  0.072469005789
 CLG13 HGAAM0     1  0.283305792369  0.070011711020
 CLG13 HGAAM1     1  0.283305792369  0.070011711020
 CLG13 HGAAM2     1  0.281523994932  0.083680000000
 CLG13   HGP1     1  0.189271432669  0.089736802707
 CLG13   HGP2     1  0.189271432669  0.089736802707
 CLG13   HGP3     1  0.209361198763  0.132309697301
 CLG13   HGP4     1  0.189271432669  0.089736802707
 CLG13   HGP5     1  0.231633666716  0.089736802707
 CLG13 HGPAM1     1  0.247224394284  0.039692909190
 CLG13 HGPAM2     1  0.247224394284  0.041840000000
 CLG13 HGPAM3     1  0.246778944925  0.045833423612
 CLG13  HGR51     1  0.290272620344  0.072469005789
 CLG13  HGR52     1  0.249451641079  0.089736802707
 CLG13  HGR53     1  0.231633666716  0.089736802707
 CLG13  HGR61     1  0.290272620344  0.072469005789
 CLG13  HGR62     1  0.267269615442  0.089736802707
 CLG13  HGR63     1  0.249451641079  0.089736802707
 CLG13  HGR71     1  0.290272620344  0.072469005789
 CLG13     HL     1  0.231633666716  0.089736802707
 CLG13  HLGA1     1  0.288651184677  0.088756043175
 CLG13  HLGA2     1  0.288651184677  0.078275472531
 CLG13  HLGA3     1  0.288651184677  0.064818249282
 CLG13  HLGA4     1  0.280633096214  0.073666921749
 CLG13  HLGP1     1  0.189271432669  0.089736802707
 CLG13 HLGR52     1  0.249451641079  0.089736802707
 CLG13 HLGR61     1  0.290272620344  0.072469005789
 CLG13 HLGR62     1  0.267269615442  0.089736802707
 CLG13    HN1     1  0.189271432669  0.089736802707
 CLG13    HN2     1  0.189271432669  0.089736802707
 CLG13    HN3     1  0.267269615442  0.089736802707
 CLG13   HN3B     1  0.249451641079  0.089736802707
 CLG13    HN4     1  0.189271432669  0.089736802707
 CLG13    HN5     1  0.189271432669  0.089736802707
 CLG13    HN6     1  0.286869387241  0.062058748940
 CLG13    HN7     1  0.286869387241  0.062058748940
 CLG13    HN8     1  0.288651184677  0.070011711020
 CLG13    HN9     1  0.288651184677  0.064818249282
 CLG13   HNE1     1  0.280633096214  0.073666921749
 CLG13   HNE2     1  0.281523994932  0.067464972838
 CLG13    HNP     1  0.290272620344  0.072469005789
 CLG13   HO3P     1  0.293168041178  0.170263611896
 CLG13    HOL     1  0.189271432669  0.089736802707
 CLG13     HP     1  0.290272620344  0.072469005789
 CLG13   HPER     1  0.189271432669  0.089736802707
 CLG13    HR1     1  0.249451641079  0.089736802707
 CLG13    HR2     1  0.231633666716  0.089736802707
 CLG13    HR3     1  0.300054688270  0.036952087465
 CLG13   HRA3     1  0.288651184677  0.064818249282
 CLG13   HRM1     1  0.247224394284  0.039692909190
 CLG13   HRM2     1  0.247224394284  0.041840000000
 CLG13   HRP2     1  0.189271432669  0.089736802707
 CLG13     HS     1  0.209361198763  0.132309697301
 CLG13   HSIA     1  0.286869387241  0.062058748940
 CLG13   HSIO     1  0.189271432669  0.089736802707
 CLG13     HT     1  0.189271432669  0.089736802707
 CLG13     HX     1  0.189271432669  0.089736802707
 CLG13   IGR1     1  0.368832069310  0.301712530731
 CLG13   IN3P     1  0.246449312399  0.160580590010
 CLG13   LA3P     1  0.327200372211  0.182184255566
 CLG13    LIT     1  0.284864865125  0.020196198771
 CLG13    LPH     1  0.169270756447  0.000000000000
 CLG13   LU3P     1  0.289648991242  0.166731218816
 CLG13     MG     1  0.274842254546  0.051243325419
 CLG13   MN2P     1  0.276508235149  0.171747976291
 CLG13   MN3P     1  0.203516903172  0.148045032716
 CLG13      N     1  0.334087019303  0.004184000000
 CLG13     NC     1  0.334087019303  0.324091246411
 CLG13    NC2     1  0.334087019303  0.187114168357
 CLG13  NC2D1     1  0.307360057758  0.187114168357
 CLG13  NC311     1  0.347450500075  0.088756043175
 CLG13   ND3P     1  0.313587439798  0.177117175768
 CLG13     NE     1  0.305578260322  0.122698965603
 CLG13  NG1T1     1  0.328741626994  0.177512086349
 CLG13  NG2D1     1  0.334087019303  0.187114168357
 CLG13  NG2O1     1  0.334087019303  0.187114168357
 CLG13  NG2P1     1  0.334087019303  0.187114168357
 CLG13 NG2R43     1  0.334087019303  0.187114168357
 CLG13 NG2R50     1  0.334087019303  0.187114168357
 CLG13 NG2R51     1  0.334087019303  0.187114168357
 CLG13 NG2R52     1  0.334087019303  0.187114168357
 CLG13 NG2R53     1  0.334087019303  0.187114168357
 CLG13 NG2R57     1  0.334087019303  0.187114168357
 CLG13 NG2R60     1  0.337650614175  0.102486650838
 CLG13 NG2R61     1  0.334087019303  0.187114168357
 CLG13 NG2R62     1  0.352795892384  0.093557084179
 CLG13 NG2R67     1  0.334087019303  0.187114168357
 CLG13 NG2RC0     1  0.334087019303  0.187114168357
 CLG13  NG2S0     1  0.334087019303  0.004184000000
 CLG13  NG2S1     1  0.307360057758  0.187114168357
 CLG13  NG2S2     1  0.334087019303  0.187114168357
 CLG13  NG2S3     1  0.334087019303  0.187114168357
 CLG13  NG301     1  0.347450500075  0.078275472531
 CLG13  NG311     1  0.347450500075  0.088756043175
 CLG13  NG321     1  0.346559601357  0.102486650838
 CLG13  NG331     1  0.345668702638  0.110698234855
 CLG13 NG3C51     1  0.334087019303  0.187114168357
 CLG13  NG3N1     1  0.351904993665  0.102486650838
 CLG13  NG3P0     1  0.334087019303  0.187114168357
 CLG13  NG3P1     1  0.334087019303  0.187114168357
 CLG13  NG3P2     1  0.334087019303  0.187114168357
 CLG13  NG3P3     1  0.334087019303  0.187114168357
 CLG13    NH1     1  0.307360057758  0.187114168357
 CLG13    NH2     1  0.334087019303  0.187114168357
 CLG13    NH3     1  0.334087019303  0.187114168357
 CLG13   NH3L     1  0.334087019303  0.187114168357
 CLG13    NHL     1  0.307360057758  0.187114168357
 CLG13     NI     1  0.282949432881  0.994525446633
 CLG13   NI2P     1  0.238787583423  0.158440517242
 CLG13    NN1     1  0.334087019303  0.187114168357
 CLG13   NN1C     1  0.334087019303  0.187114168357
 CLG13    NN2     1  0.334087019303  0.187114168357
 CLG13   NN2B     1  0.334087019303  0.187114168357
 CLG13   NN2C     1  0.334087019303  0.187114168357
 CLG13   NN2G     1  0.334087019303  0.187114168357
 CLG13   NN2U     1  0.334087019303  0.187114168357
 CLG13    NN3     1  0.334087019303  0.187114168357
 CLG13   NN3A     1  0.334087019303  0.187114168357
 CLG13   NN3G     1  0.334087019303  0.187114168357
 CLG13   NN3I     1  0.334087019303  0.187114168357
 CLG13    NN4     1  0.334087019303  0.187114168357
 CLG13    NN6     1  0.334087019303  0.187114168357
 CLG13    NNG     1  0.334087019303  0.187114168357
 CLG13     NP     1  0.334087019303  0.187114168357
 CLG13    NPH     1  0.334087019303  0.187114168357
 CLG13    NR1     1  0.334087019303  0.187114168357
 CLG13    NR2     1  0.334087019303  0.187114168357
 CLG13    NR3     1  0.334087019303  0.187114168357
 CLG13   NRC4     1  0.334087019303  0.187114168357
 CLG13   NRN1     1  0.347450500075  0.280671252536
 CLG13   NRN2     1  0.346559601357  0.102486650838
 CLG13    NS1     1  0.334087019303  0.187114168357
 CLG13    NS2     1  0.334087019303  0.187114168357
 CLG13    NTL     1  0.334087019303  0.187114168357
 CLG13     NY     1  0.334087019303  0.187114168357
 CLG13      O     1  0.293996576986  0.144938011577
 CLG13    O2L     1  0.320723538531  0.144938011577
 CLG13    OAL     1  0.326959829558  0.163176000000
 CLG13     OB     1  0.293996576986  0.144938011577
 CLG13    OBL     1  0.293996576986  0.144938011577
 CLG13     OC     1  0.320723538531  0.144938011577
 CLG13  OC2D1     1  0.293996576986  0.144938011577
 CLG13  OC2D2     1  0.320723538531  0.144938011577
 CLG13  OC2D3     1  0.293996576986  0.144938011577
 CLG13  OC2D4     1  0.293996576986  0.144938011577
 CLG13  OC2DP     1  0.320723538531  0.144938011577
 CLG13  OC301     1  0.316269044940  0.132309697301
 CLG13  OC302     1  0.316269044940  0.132309697301
 CLG13  OC303     1  0.316269044940  0.132309697301
 CLG13 OC305A     1  0.316269044940  0.132309697301
 CLG13  OC30A     1  0.316269044940  0.132309697301
 CLG13  OC30P     1  0.326959829558  0.163176000000
 CLG13  OC311     1  0.326514380198  0.183381431383
 CLG13 OC311M     1  0.326514380198  0.183381431383
 CLG13  OC312     1  0.326959829558  0.163176000000
 CLG13 OC3C51     1  0.316269044940  0.132309697301
 CLG13 OC3C5M     1  0.316269044940  0.132309697301
 CLG13 OC3C61     1  0.316269044940  0.132309697301
 CLG13    OCA     1  0.293996576986  0.144938011577
 CLG13    OCL     1  0.320723538531  0.144938011577
 CLG13  OG2D1     1  0.293996576986  0.144938011577
 CLG13  OG2D2     1  0.320723538531  0.144938011577
 CLG13  OG2D3     1  0.293996576986  0.144938011577
 CLG13  OG2D4     1  0.320723538531  0.144938011577
 CLG13  OG2D5     1  0.320010819556  0.169954883425
 CLG13  OG2N1     1  0.320723538531  0.144938011577
 CLG13  OG2P1     1  0.320723538531  0.144938011577
 CLG13 OG2R50     1  0.320723538531  0.144938011577
 CLG13  OG2S1     1  0.318906105146  0.157831660601
 CLG13  OG301     1  0.316269044940  0.132309697301
 CLG13  OG302     1  0.316269044940  0.132309697301
 CLG13  OG303     1  0.316269044940  0.132309697301
 CLG13  OG304     1  0.316269044940  0.132309697301
 CLG13  OG311     1  0.326514380198  0.183381431383
 CLG13  OG312     1  0.325178032121  0.144938011577
 CLG13 OG3C31     1  0.316269044940  0.132309697301
 CLG13 OG3C51     1  0.316269044940  0.132309697301
 CLG13 OG3C61     1  0.316269044940  0.132309697301
 CLG13 OG3R60     1  0.316269044940  0.132309697301
 CLG13    OH1     1  0.326959829558  0.163176000000
 CLG13    OHL     1  0.326959829558  0.163176000000
 CLG13   OLG1     1  0.293996576986  0.144938011577
 CLG13   OLG2     1  0.320723538531  0.144938011577
 CLG13   OLG3     1  0.320723538531  0.144938011577
 CLG13   OLG4     1  0.316269044940  0.132309697301
 CLG13   OLG5     1  0.316269044940  0.132309697301
 CLG13   OLG6     1  0.326514380198  0.183381431383
 CLG13   OLG7     1  0.316269044940  0.132309697301
 CLG13   OLG8     1  0.316269044940  0.132309697301
 CLG13     OM     1  0.320723538531  0.144938011577
 CLG13    ON1     1  0.320723538531  0.144938011577
 CLG13   ON1C     1  0.320723538531  0.144938011577
 CLG13    ON2     1  0.326959829558  0.163176000000
 CLG13   ON2B     1  0.326959829558  0.163176000000
 CLG13   ON2M     1  0.316269044940  0.132309697301
 CLG13    ON3     1  0.320723538531  0.144938011577
 CLG13    ON4     1  0.326959829558  0.163176000000
 CLG13    ON5     1  0.326959829558  0.163176000000
 CLG13    ON6     1  0.326959829558  0.163176000000
 CLG13   ON6B     1  0.326959829558  0.163176000000
 CLG13   OPER     1  0.318427692534  0.188901923946
 CLG13     OS     1  0.326959829558  0.163176000000
 CLG13   OSIA     1  0.326959829558  0.163176000000
 CLG13   OSIE     1  0.326959829558  0.163176000000
 CLG13   OSIH     1  0.326959829558  0.163176000000
 CLG13    OSL     1  0.316269044940  0.132309697301
 CLG13   OSLP     1  0.316269044940  0.132309697301
 CLG13    OST     1  0.320010819556  0.169954883425
 CLG13     OT     1  0.326799467788  0.163176000000
 CLG13     OX     1  0.320723538531  0.144938011577
 CLG13      P     1  0.360813980847  0.320014464673
 CLG13     P2     1  0.360813980847  0.320014464673
 CLG13     P3     1  0.360813980847  0.320014464673
 CLG13     P4     1  0.360813980847  0.320014464673
 CLG13     PB     1  0.328073452955  0.716185437439
 CLG13   PB2P     1  0.325890751096  0.204716924713
 CLG13     PC     1  0.360813980847  0.320014464673
 CLG13     PD     1  0.294842930769  1.037598257516
 CLG13   PD2P     1  0.251865976605  0.174628752363
 CLG13    PG0     1  0.360813980847  0.320014464673
 CLG13    PG1     1  0.360813980847  0.320014464673
 CLG13    PG2     1  0.360813980847  0.320014464673
 CLG13     PL     1  0.360813980847  0.320014464673
 CLG13   PM3P     1  0.316910492017  0.176275053255
 CLG13    POT     1  0.326403017859  0.123410269913
 CLG13   PR3P     1  0.317079762773  0.178642591472
 CLG13     PT     1  0.296001099102  1.168527606863
 CLG13   PT2P     1  0.240284293270  0.168973521997
 CLG13   PU3P     1  0.318024115415  0.179522368790
 CLG13   RA2P     1  0.355459679551  0.229891668540
 CLG13   RH3P     1  0.210367914314  0.149983415617
 CLG13    RUB     1  0.338541512893  0.162045623205
 CLG13      S     1  0.347450500075  0.280671252536
 CLG13     SC     1  0.356359487256  0.286840588481
 CLG13   SC3P     1  0.266993436839  0.157109060719
 CLG13  SEGD1     1  0.363041227642  0.330244580395
 CLG13  SG2D1     1  0.351904993665  0.314496560236
 CLG13  SG2P1     1  0.355798221064  0.332305491450
 CLG13  SG2P2     1  0.352314807076  0.329421919951
 CLG13 SG2R50     1  0.347450500075  0.280671252536
 CLG13  SG301     1  0.345223253279  0.257919081884
 CLG13  SG302     1  0.365268474438  0.286840588481
 CLG13  SG311     1  0.347450500075  0.280671252536
 CLG13  SG3O1     1  0.356359487256  0.286840588481
 CLG13  SG3O2     1  0.347450500075  0.247528778125
 CLG13  SG3O3     1  0.347450500075  0.247528778125
 CLG13     SI     1  0.365268474438  0.324091246411
 CLG13   SIH3     1  0.365268474438  0.324091246411
 CLG13     SL     1  0.356359487256  0.286840588481
 CLG13     SM     1  0.345223253279  0.257919081884
 CLG13   SM2P     1  0.334666103469  0.207012887251
 CLG13   SM3P     1  0.308847858618  0.175378986746
 CLG13   SN2P     1  0.316981763914  0.181365662197
 CLG13    SOD     1  0.294954293108  0.090610410351
 CLG13     SP     1  0.365268474438  0.280671252536
 CLG13   SR2P     1  0.334612649546  0.200133451797
 CLG13     SS     1  0.365268474438  0.286840588481
 CLG13   TB3P     1  0.300678317372  0.172155203837
 CLG13   TI1P     1  0.341276571958  0.266826378666
 CLG13   TI3P     1  0.243117351193  0.149983415617
 CLG13   TL3P     1  0.246716582015  0.168869889039
 CLG13   TM3P     1  0.289417357575  0.168402751521
 CLG13    U3P     1  0.320830446377  0.182184255566
 CLG13    V2P     1  0.267599247968  0.167830039933
 CLG13    V3P     1  0.223989755715  0.147096016316
 CLG13    Y3P     1  0.295190381269  0.170263611896
 CLG13   YB2P     1  0.312616360195  0.189623385225
 CLG13   YB3P     1  0.284659958420  0.167569069413
 CLG13     ZN     1  0.266378716724  0.209200000000
 CLG14  CLG14     1  0.338541512893  0.041840000000
 CLG14  CLG15     1  0.338541512893  0.041840000000
 CLG14  CLG16     1  0.338541512893  0.041840000000
 CLG14  CLGA1     1  0.339432411611  0.245040988571
 CLG14  CLGA3     1  0.339432411611  0.232955260941
 CLG14  CLGR1     1  0.334977918021  0.200657590935
 CLG14     CM     1  0.356359487256  0.138767581228
 CLG14     CN     1  0.325178032121  0.187114168357
 CLG14    CN1     1  0.338541512893  0.132309697301
 CLG14   CN1A     1  0.347450500075  0.110698234855
 CLG14   CN1T     1  0.338541512893  0.132309697301
 CLG14    CN2     1  0.338541512893  0.132309697301
 CLG14    CN3     1  0.338541512893  0.125520000000
 CLG14   CN3A     1  0.329632525712  0.177512086349
 CLG14   CN3B     1  0.329632525712  0.177512086349
 CLG14   CN3C     1  0.329632525712  0.177512086349
 CLG14   CN3D     1  0.338541512893  0.125520000000
 CLG14   CN3T     1  0.338541512893  0.125520000000
 CLG14    CN4     1  0.338541512893  0.114583559030
 CLG14    CN5     1  0.338541512893  0.114583559030
 CLG14   CN5G     1  0.338541512893  0.114583559030
 CLG14    CN6     1  0.338541512893  0.041840000000
 CLG14    CN7     1  0.338541512893  0.041840000000
 CLG14   CN7B     1  0.338541512893  0.041840000000
 CLG14   CN7E     1  0.338541512893  0.041840000000
 CLG14    CN8     1  0.338541512893  0.041840000000
 CLG14   CN8B     1  0.338541512893  0.041840000000
 CLG14    CN9     1  0.338541512893  0.041840000000
 CLG14    CNA     1  0.346773417049  0.110698234855
 CLG14   CNA2     1  0.338541512893  0.110698234855
 CLG14   CNE1     1  0.355468588538  0.109105371453
 CLG14   CNE2     1  0.354577689820  0.105847757841
 CLG14    CNG     1  0.347450500075  0.138767581228
 CLG14   CO2P     1  0.251910521541  0.164138698618
 CLG14   CO3P     1  0.192264852362  0.144393471099
 CLG14    COA     1  0.347450500075  0.138767581228
 CLG14    CP1     1  0.338541512893  0.041840000000
 CLG14    CP2     1  0.338541512893  0.041840000000
 CLG14    CP3     1  0.338541512893  0.041840000000
 CLG14    CPA     1  0.329632525712  0.125520000000
 CLG14    CPB     1  0.329632525712  0.125520000000
 CLG14   CPD1     1  0.338541512893  0.041840000000
 CLG14   CPH1     1  0.329632525712  0.093557084179
 CLG14   CPH2     1  0.329632525712  0.093557084179
 CLG14    CPM     1  0.329632525712  0.125520000000
 CLG14    CPT     1  0.334977918021  0.131646486622
 CLG14   CR2P     1  0.263634748672  0.170828164985
 CLG14   CR33     1  0.338541512893  0.041840000000
 CLG14   CR3P     1  0.244382427373  0.145299904804
 CLG14   CRL1     1  0.338541512893  0.041840000000
 CLG14   CRL2     1  0.338541512893  0.041840000000
 CLG14   CRN1     1  0.347450500075  0.138767581228
 CLG14     CS     1  0.365268474438  0.138767581228
 CLG14    CST     1  0.308518226092  0.100764063435
 CLG14     CT     1  0.338541512893  0.041840000000
 CLG14    CT1     1  0.338541512893  0.041840000000
 CLG14   CT1X     1  0.338541512893  0.041840000000
 CLG14    CT2     1  0.338541512893  0.041840000000
 CLG14   CT2A     1  0.338541512893  0.041840000000
 CLG14   CT2P     1  0.338541512893  0.041840000000
 CLG14   CT2X     1  0.338541512893  0.041840000000
 CLG14    CT3     1  0.338541512893  0.041840000000
 CLG14   CT3X     1  0.338541512893  0.041840000000
 CLG14   CTD1     1  0.338541512893  0.041840000000
 CLG14   CTL1     1  0.338541512893  0.041840000000
 CLG14   CTL2     1  0.338541512893  0.041840000000
 CLG14   CTL3     1  0.338541512893  0.041840000000
 CLG14   CTL5     1  0.338541512893  0.041840000000
 CLG14   CTO1     1  0.338541512893  0.041840000000
 CLG14   CTO2     1  0.338541512893  0.041840000000
 CLG14     CU     1  0.285800308779  0.908997471504
 CLG14   CU1P     1  0.246066225950  0.180057894334
 CLG14   CU2P     1  0.233869822499  0.162315474555
 CLG14     CY     1  0.346559601357  0.113045454929
 CLG14    DUM     1  0.169270756447  0.000000000000
 CLG14   DY3P     1  0.297952167295  0.171135318061
 CLG14   ER3P     1  0.291083338178  0.169232326746
 CLG14   EU2P     1  0.333231756533  0.203602227414
 CLG14   EU3P     1  0.304954631219  0.174528477447
 CLG14     F1     1  0.314487247504  0.153729976257
 CLG14     F2     1  0.314487247504  0.135577095411
 CLG14     F3     1  0.311814551349  0.130309939452
 CLG14     FA     1  0.320723538531  0.144938011577
 CLG14     FE     1  0.227179173126  0.000000000000
 CLG14   FE2P     1  0.265496726993  0.167098295383
 CLG14   FE3P     1  0.219722350855  0.148045032716
 CLG14   FGA1     1  0.314487247504  0.153729976257
 CLG14   FGA2     1  0.314487247504  0.135577095411
 CLG14   FGA3     1  0.311814551349  0.130309939452
 CLG14   FGP1     1  0.311814551349  0.130309939452
 CLG14   FGR1     1  0.320723538531  0.144938011577
 CLG14    FNA     1  0.320723538531  0.144938011577
 CLG14   GA3P     1  0.189485248361  0.145299904804
 CLG14   GD3P     1  0.303351013527  0.173673803114
 CLG14      H     1  0.189271432669  0.089736802707
 CLG14     HA     1  0.286869387241  0.062058748940
 CLG14    HA1     1  0.288651184677  0.088756043175
 CLG14    HA2     1  0.288651184677  0.077149148019
 CLG14    HA3     1  0.288651184677  0.064818249282
 CLG14    HAL     1  0.286869387241  0.062058748940
 CLG14   HAL1     1  0.286869387241  0.062058748940
 CLG14   HAL2     1  0.288651184677  0.070011711020
 CLG14   HAL3     1  0.288651184677  0.064818249282
 CLG14     HB     1  0.286869387241  0.062058748940
 CLG14    HB1     1  0.286869387241  0.062058748940
 CLG14    HB2     1  0.288651184677  0.070011711020
 CLG14    HBL     1  0.286869387241  0.062058748940
 CLG14     HC     1  0.189271432669  0.089736802707
 CLG14   HCA1     1  0.288651184677  0.088756043175
 CLG14  HCA1A     1  0.288651184677  0.088756043175
 CLG14 HCA1C2     1  0.288651184677  0.088756043175
 CLG14   HCA2     1  0.288651184677  0.078275472531
 CLG14 HCA25A     1  0.285087589805  0.078275472531
 CLG14  HCA2A     1  0.288651184677  0.078275472531
 CLG14 HCA2C2     1  0.285087589805  0.078275472531
 CLG14   HCA3     1  0.288651184677  0.064818249282
 CLG14  HCA3A     1  0.288651184677  0.064818249282
 CLG14  HCA3M     1  0.288651184677  0.064818249282
 CLG14    HCL     1  0.189271432669  0.089736802707
 CLG14   HCP1     1  0.189271432669  0.089736802707
 CLG14  HCP1M     1  0.189271432669  0.089736802707
 CLG14   HCR1     1  0.240542653898  0.089736802707
 CLG14     HE     1  0.301123766731  0.061020452073
 CLG14    HE1     1  0.280633096214  0.073666921749
 CLG14    HE2     1  0.281523994932  0.067464972838
 CLG14   HEL1     1  0.280633096214  0.073666921749
 CLG14   HEL2     1  0.281523994932  0.067464972838
 CLG14    HF1     1  0.286869387241  0.070011711020
 CLG14    HF2     1  0.285087589805  0.072469005789
 CLG14   HG2P     1  0.274557166956  0.189623385225
 CLG14   HGA1     1  0.288651184677  0.088756043175
 CLG14   HGA2     1  0.288651184677  0.078275472531
 CLG14   HGA3     1  0.288651184677  0.064818249282
 CLG14   HGA4     1  0.280633096214  0.073666921749
 CLG14   HGA5     1  0.281523994932  0.067464972838
 CLG14   HGA6     1  0.286869387241  0.070011711020
 CLG14   HGA7     1  0.285087589805  0.072469005789
 CLG14 HGAAM0     1  0.283305792369  0.070011711020
 CLG14 HGAAM1     1  0.283305792369  0.070011711020
 CLG14 HGAAM2     1  0.281523994932  0.083680000000
 CLG14   HGP1     1  0.189271432669  0.089736802707
 CLG14   HGP2     1  0.189271432669  0.089736802707
 CLG14   HGP3     1  0.209361198763  0.132309697301
 CLG14   HGP4     1  0.189271432669  0.089736802707
 CLG14   HGP5     1  0.231633666716  0.089736802707
 CLG14 HGPAM1     1  0.247224394284  0.039692909190
 CLG14 HGPAM2     1  0.247224394284  0.041840000000
 CLG14 HGPAM3     1  0.246778944925  0.045833423612
 CLG14  HGR51     1  0.290272620344  0.072469005789
 CLG14  HGR52     1  0.249451641079  0.089736802707
 CLG14  HGR53     1  0.231633666716  0.089736802707
 CLG14  HGR61     1  0.290272620344  0.072469005789
 CLG14  HGR62     1  0.267269615442  0.089736802707
 CLG14  HGR63     1  0.249451641079  0.089736802707
 CLG14  HGR71     1  0.290272620344  0.072469005789
 CLG14     HL     1  0.231633666716  0.089736802707
 CLG14  HLGA1     1  0.288651184677  0.088756043175
 CLG14  HLGA2     1  0.288651184677  0.078275472531
 CLG14  HLGA3     1  0.288651184677  0.064818249282
 CLG14  HLGA4     1  0.280633096214  0.073666921749
 CLG14  HLGP1     1  0.189271432669  0.089736802707
 CLG14 HLGR52     1  0.249451641079  0.089736802707
 CLG14 HLGR61     1  0.290272620344  0.072469005789
 CLG14 HLGR62     1  0.267269615442  0.089736802707
 CLG14    HN1     1  0.189271432669  0.089736802707
 CLG14    HN2     1  0.189271432669  0.089736802707
 CLG14    HN3     1  0.267269615442  0.089736802707
 CLG14   HN3B     1  0.249451641079  0.089736802707
 CLG14    HN4     1  0.189271432669  0.089736802707
 CLG14    HN5     1  0.189271432669  0.089736802707
 CLG14    HN6     1  0.286869387241  0.062058748940
 CLG14    HN7     1  0.286869387241  0.062058748940
 CLG14    HN8     1  0.288651184677  0.070011711020
 CLG14    HN9     1  0.288651184677  0.064818249282
 CLG14   HNE1     1  0.280633096214  0.073666921749
 CLG14   HNE2     1  0.281523994932  0.067464972838
 CLG14    HNP     1  0.290272620344  0.072469005789
 CLG14   HO3P     1  0.293168041178  0.170263611896
 CLG14    HOL     1  0.189271432669  0.089736802707
 CLG14     HP     1  0.290272620344  0.072469005789
 CLG14   HPER     1  0.189271432669  0.089736802707
 CLG14    HR1     1  0.249451641079  0.089736802707
 CLG14    HR2     1  0.231633666716  0.089736802707
 CLG14    HR3     1  0.300054688270  0.036952087465
 CLG14   HRA3     1  0.288651184677  0.064818249282
 CLG14   HRM1     1  0.247224394284  0.039692909190
 CLG14   HRM2     1  0.247224394284  0.041840000000
 CLG14   HRP2     1  0.189271432669  0.089736802707
 CLG14     HS     1  0.209361198763  0.132309697301
 CLG14   HSIA     1  0.286869387241  0.062058748940
 CLG14   HSIO     1  0.189271432669  0.089736802707
 CLG14     HT     1  0.189271432669  0.089736802707
 CLG14     HX     1  0.189271432669  0.089736802707
 CLG14   IGR1     1  0.368832069310  0.301712530731
 CLG14   IN3P     1  0.246449312399  0.160580590010
 CLG14   LA3P     1  0.327200372211  0.182184255566
 CLG14    LIT     1  0.284864865125  0.020196198771
 CLG14    LPH     1  0.169270756447  0.000000000000
 CLG14   LU3P     1  0.289648991242  0.166731218816
 CLG14     MG     1  0.274842254546  0.051243325419
 CLG14   MN2P     1  0.276508235149  0.171747976291
 CLG14   MN3P     1  0.203516903172  0.148045032716
 CLG14      N     1  0.334087019303  0.004184000000
 CLG14     NC     1  0.334087019303  0.324091246411
 CLG14    NC2     1  0.334087019303  0.187114168357
 CLG14  NC2D1     1  0.307360057758  0.187114168357
 CLG14  NC311     1  0.347450500075  0.088756043175
 CLG14   ND3P     1  0.313587439798  0.177117175768
 CLG14     NE     1  0.305578260322  0.122698965603
 CLG14  NG1T1     1  0.328741626994  0.177512086349
 CLG14  NG2D1     1  0.334087019303  0.187114168357
 CLG14  NG2O1     1  0.334087019303  0.187114168357
 CLG14  NG2P1     1  0.334087019303  0.187114168357
 CLG14 NG2R43     1  0.334087019303  0.187114168357
 CLG14 NG2R50     1  0.334087019303  0.187114168357
 CLG14 NG2R51     1  0.334087019303  0.187114168357
 CLG14 NG2R52     1  0.334087019303  0.187114168357
 CLG14 NG2R53     1  0.334087019303  0.187114168357
 CLG14 NG2R57     1  0.334087019303  0.187114168357
 CLG14 NG2R60     1  0.337650614175  0.102486650838
 CLG14 NG2R61     1  0.334087019303  0.187114168357
 CLG14 NG2R62     1  0.352795892384  0.093557084179
 CLG14 NG2R67     1  0.334087019303  0.187114168357
 CLG14 NG2RC0     1  0.334087019303  0.187114168357
 CLG14  NG2S0     1  0.334087019303  0.004184000000
 CLG14  NG2S1     1  0.307360057758  0.187114168357
 CLG14  NG2S2     1  0.334087019303  0.187114168357
 CLG14  NG2S3     1  0.334087019303  0.187114168357
 CLG14  NG301     1  0.347450500075  0.078275472531
 CLG14  NG311     1  0.347450500075  0.088756043175
 CLG14  NG321     1  0.346559601357  0.102486650838
 CLG14  NG331     1  0.345668702638  0.110698234855
 CLG14 NG3C51     1  0.334087019303  0.187114168357
 CLG14  NG3N1     1  0.351904993665  0.102486650838
 CLG14  NG3P0     1  0.334087019303  0.187114168357
 CLG14  NG3P1     1  0.334087019303  0.187114168357
 CLG14  NG3P2     1  0.334087019303  0.187114168357
 CLG14  NG3P3     1  0.334087019303  0.187114168357
 CLG14    NH1     1  0.307360057758  0.187114168357
 CLG14    NH2     1  0.334087019303  0.187114168357
 CLG14    NH3     1  0.334087019303  0.187114168357
 CLG14   NH3L     1  0.334087019303  0.187114168357
 CLG14    NHL     1  0.307360057758  0.187114168357
 CLG14     NI     1  0.282949432881  0.994525446633
 CLG14   NI2P     1  0.238787583423  0.158440517242
 CLG14    NN1     1  0.334087019303  0.187114168357
 CLG14   NN1C     1  0.334087019303  0.187114168357
 CLG14    NN2     1  0.334087019303  0.187114168357
 CLG14   NN2B     1  0.334087019303  0.187114168357
 CLG14   NN2C     1  0.334087019303  0.187114168357
 CLG14   NN2G     1  0.334087019303  0.187114168357
 CLG14   NN2U     1  0.334087019303  0.187114168357
 CLG14    NN3     1  0.334087019303  0.187114168357
 CLG14   NN3A     1  0.334087019303  0.187114168357
 CLG14   NN3G     1  0.334087019303  0.187114168357
 CLG14   NN3I     1  0.334087019303  0.187114168357
 CLG14    NN4     1  0.334087019303  0.187114168357
 CLG14    NN6     1  0.334087019303  0.187114168357
 CLG14    NNG     1  0.334087019303  0.187114168357
 CLG14     NP     1  0.334087019303  0.187114168357
 CLG14    NPH     1  0.334087019303  0.187114168357
 CLG14    NR1     1  0.334087019303  0.187114168357
 CLG14    NR2     1  0.334087019303  0.187114168357
 CLG14    NR3     1  0.334087019303  0.187114168357
 CLG14   NRC4     1  0.334087019303  0.187114168357
 CLG14   NRN1     1  0.347450500075  0.280671252536
 CLG14   NRN2     1  0.346559601357  0.102486650838
 CLG14    NS1     1  0.334087019303  0.187114168357
 CLG14    NS2     1  0.334087019303  0.187114168357
 CLG14    NTL     1  0.334087019303  0.187114168357
 CLG14     NY     1  0.334087019303  0.187114168357
 CLG14      O     1  0.293996576986  0.144938011577
 CLG14    O2L     1  0.320723538531  0.144938011577
 CLG14    OAL     1  0.326959829558  0.163176000000
 CLG14     OB     1  0.293996576986  0.144938011577
 CLG14    OBL     1  0.293996576986  0.144938011577
 CLG14     OC     1  0.320723538531  0.144938011577
 CLG14  OC2D1     1  0.293996576986  0.144938011577
 CLG14  OC2D2     1  0.320723538531  0.144938011577
 CLG14  OC2D3     1  0.293996576986  0.144938011577
 CLG14  OC2D4     1  0.293996576986  0.144938011577
 CLG14  OC2DP     1  0.320723538531  0.144938011577
 CLG14  OC301     1  0.316269044940  0.132309697301
 CLG14  OC302     1  0.316269044940  0.132309697301
 CLG14  OC303     1  0.316269044940  0.132309697301
 CLG14 OC305A     1  0.316269044940  0.132309697301
 CLG14  OC30A     1  0.316269044940  0.132309697301
 CLG14  OC30P     1  0.326959829558  0.163176000000
 CLG14  OC311     1  0.326514380198  0.183381431383
 CLG14 OC311M     1  0.326514380198  0.183381431383
 CLG14  OC312     1  0.326959829558  0.163176000000
 CLG14 OC3C51     1  0.316269044940  0.132309697301
 CLG14 OC3C5M     1  0.316269044940  0.132309697301
 CLG14 OC3C61     1  0.316269044940  0.132309697301
 CLG14    OCA     1  0.293996576986  0.144938011577
 CLG14    OCL     1  0.320723538531  0.144938011577
 CLG14  OG2D1     1  0.293996576986  0.144938011577
 CLG14  OG2D2     1  0.320723538531  0.144938011577
 CLG14  OG2D3     1  0.293996576986  0.144938011577
 CLG14  OG2D4     1  0.320723538531  0.144938011577
 CLG14  OG2D5     1  0.320010819556  0.169954883425
 CLG14  OG2N1     1  0.320723538531  0.144938011577
 CLG14  OG2P1     1  0.320723538531  0.144938011577
 CLG14 OG2R50     1  0.320723538531  0.144938011577
 CLG14  OG2S1     1  0.318906105146  0.157831660601
 CLG14  OG301     1  0.316269044940  0.132309697301
 CLG14  OG302     1  0.316269044940  0.132309697301
 CLG14  OG303     1  0.316269044940  0.132309697301
 CLG14  OG304     1  0.316269044940  0.132309697301
 CLG14  OG311     1  0.326514380198  0.183381431383
 CLG14  OG312     1  0.325178032121  0.144938011577
 CLG14 OG3C31     1  0.316269044940  0.132309697301
 CLG14 OG3C51     1  0.316269044940  0.132309697301
 CLG14 OG3C61     1  0.316269044940  0.132309697301
 CLG14 OG3R60     1  0.316269044940  0.132309697301
 CLG14    OH1     1  0.326959829558  0.163176000000
 CLG14    OHL     1  0.326959829558  0.163176000000
 CLG14   OLG1     1  0.293996576986  0.144938011577
 CLG14   OLG2     1  0.320723538531  0.144938011577
 CLG14   OLG3     1  0.320723538531  0.144938011577
 CLG14   OLG4     1  0.316269044940  0.132309697301
 CLG14   OLG5     1  0.316269044940  0.132309697301
 CLG14   OLG6     1  0.326514380198  0.183381431383
 CLG14   OLG7     1  0.316269044940  0.132309697301
 CLG14   OLG8     1  0.316269044940  0.132309697301
 CLG14     OM     1  0.320723538531  0.144938011577
 CLG14    ON1     1  0.320723538531  0.144938011577
 CLG14   ON1C     1  0.320723538531  0.144938011577
 CLG14    ON2     1  0.326959829558  0.163176000000
 CLG14   ON2B     1  0.326959829558  0.163176000000
 CLG14   ON2M     1  0.316269044940  0.132309697301
 CLG14    ON3     1  0.320723538531  0.144938011577
 CLG14    ON4     1  0.326959829558  0.163176000000
 CLG14    ON5     1  0.326959829558  0.163176000000
 CLG14    ON6     1  0.326959829558  0.163176000000
 CLG14   ON6B     1  0.326959829558  0.163176000000
 CLG14   OPER     1  0.318427692534  0.188901923946
 CLG14     OS     1  0.326959829558  0.163176000000
 CLG14   OSIA     1  0.326959829558  0.163176000000
 CLG14   OSIE     1  0.326959829558  0.163176000000
 CLG14   OSIH     1  0.326959829558  0.163176000000
 CLG14    OSL     1  0.316269044940  0.132309697301
 CLG14   OSLP     1  0.316269044940  0.132309697301
 CLG14    OST     1  0.320010819556  0.169954883425
 CLG14     OT     1  0.326799467788  0.163176000000
 CLG14     OX     1  0.320723538531  0.144938011577
 CLG14      P     1  0.360813980847  0.320014464673
 CLG14     P2     1  0.360813980847  0.320014464673
 CLG14     P3     1  0.360813980847  0.320014464673
 CLG14     P4     1  0.360813980847  0.320014464673
 CLG14     PB     1  0.328073452955  0.716185437439
 CLG14   PB2P     1  0.325890751096  0.204716924713
 CLG14     PC     1  0.360813980847  0.320014464673
 CLG14     PD     1  0.294842930769  1.037598257516
 CLG14   PD2P     1  0.251865976605  0.174628752363
 CLG14    PG0     1  0.360813980847  0.320014464673
 CLG14    PG1     1  0.360813980847  0.320014464673
 CLG14    PG2     1  0.360813980847  0.320014464673
 CLG14     PL     1  0.360813980847  0.320014464673
 CLG14   PM3P     1  0.316910492017  0.176275053255
 CLG14    POT     1  0.326403017859  0.123410269913
 CLG14   PR3P     1  0.317079762773  0.178642591472
 CLG14     PT     1  0.296001099102  1.168527606863
 CLG14   PT2P     1  0.240284293270  0.168973521997
 CLG14   PU3P     1  0.318024115415  0.179522368790
 CLG14   RA2P     1  0.355459679551  0.229891668540
 CLG14   RH3P     1  0.210367914314  0.149983415617
 CLG14    RUB     1  0.338541512893  0.162045623205
 CLG14      S     1  0.347450500075  0.280671252536
 CLG14     SC     1  0.356359487256  0.286840588481
 CLG14   SC3P     1  0.266993436839  0.157109060719
 CLG14  SEGD1     1  0.363041227642  0.330244580395
 CLG14  SG2D1     1  0.351904993665  0.314496560236
 CLG14  SG2P1     1  0.355798221064  0.332305491450
 CLG14  SG2P2     1  0.352314807076  0.329421919951
 CLG14 SG2R50     1  0.347450500075  0.280671252536
 CLG14  SG301     1  0.345223253279  0.257919081884
 CLG14  SG302     1  0.365268474438  0.286840588481
 CLG14  SG311     1  0.347450500075  0.280671252536
 CLG14  SG3O1     1  0.356359487256  0.286840588481
 CLG14  SG3O2     1  0.347450500075  0.247528778125
 CLG14  SG3O3     1  0.347450500075  0.247528778125
 CLG14     SI     1  0.365268474438  0.324091246411
 CLG14   SIH3     1  0.365268474438  0.324091246411
 CLG14     SL     1  0.356359487256  0.286840588481
 CLG14     SM     1  0.345223253279  0.257919081884
 CLG14   SM2P     1  0.334666103469  0.207012887251
 CLG14   SM3P     1  0.308847858618  0.175378986746
 CLG14   SN2P     1  0.316981763914  0.181365662197
 CLG14    SOD     1  0.294954293108  0.090610410351
 CLG14     SP     1  0.365268474438  0.280671252536
 CLG14   SR2P     1  0.334612649546  0.200133451797
 CLG14     SS     1  0.365268474438  0.286840588481
 CLG14   TB3P     1  0.300678317372  0.172155203837
 CLG14   TI1P     1  0.341276571958  0.266826378666
 CLG14   TI3P     1  0.243117351193  0.149983415617
 CLG14   TL3P     1  0.246716582015  0.168869889039
 CLG14   TM3P     1  0.289417357575  0.168402751521
 CLG14    U3P     1  0.320830446377  0.182184255566
 CLG14    V2P     1  0.267599247968  0.167830039933
 CLG14    V3P     1  0.223989755715  0.147096016316
 CLG14    Y3P     1  0.295190381269  0.170263611896
 CLG14   YB2P     1  0.312616360195  0.189623385225
 CLG14   YB3P     1  0.284659958420  0.167569069413
 CLG14     ZN     1  0.266378716724  0.209200000000
 CLG15  CLG15     1  0.338541512893  0.041840000000
 CLG15  CLG16     1  0.338541512893  0.041840000000
 CLG15  CLGA1     1  0.339432411611  0.245040988571
 CLG15  CLGA3     1  0.339432411611  0.232955260941
 CLG15  CLGR1     1  0.334977918021  0.200657590935
 CLG15     CM     1  0.356359487256  0.138767581228
 CLG15     CN     1  0.325178032121  0.187114168357
 CLG15    CN1     1  0.338541512893  0.132309697301
 CLG15   CN1A     1  0.347450500075  0.110698234855
 CLG15   CN1T     1  0.338541512893  0.132309697301
 CLG15    CN2     1  0.338541512893  0.132309697301
 CLG15    CN3     1  0.338541512893  0.125520000000
 CLG15   CN3A     1  0.329632525712  0.177512086349
 CLG15   CN3B     1  0.329632525712  0.177512086349
 CLG15   CN3C     1  0.329632525712  0.177512086349
 CLG15   CN3D     1  0.338541512893  0.125520000000
 CLG15   CN3T     1  0.338541512893  0.125520000000
 CLG15    CN4     1  0.338541512893  0.114583559030
 CLG15    CN5     1  0.338541512893  0.114583559030
 CLG15   CN5G     1  0.338541512893  0.114583559030
 CLG15    CN6     1  0.338541512893  0.041840000000
 CLG15    CN7     1  0.338541512893  0.041840000000
 CLG15   CN7B     1  0.338541512893  0.041840000000
 CLG15   CN7E     1  0.338541512893  0.041840000000
 CLG15    CN8     1  0.338541512893  0.041840000000
 CLG15   CN8B     1  0.338541512893  0.041840000000
 CLG15    CN9     1  0.338541512893  0.041840000000
 CLG15    CNA     1  0.346773417049  0.110698234855
 CLG15   CNA2     1  0.338541512893  0.110698234855
 CLG15   CNE1     1  0.355468588538  0.109105371453
 CLG15   CNE2     1  0.354577689820  0.105847757841
 CLG15    CNG     1  0.347450500075  0.138767581228
 CLG15   CO2P     1  0.251910521541  0.164138698618
 CLG15   CO3P     1  0.192264852362  0.144393471099
 CLG15    COA     1  0.347450500075  0.138767581228
 CLG15    CP1     1  0.338541512893  0.041840000000
 CLG15    CP2     1  0.338541512893  0.041840000000
 CLG15    CP3     1  0.338541512893  0.041840000000
 CLG15    CPA     1  0.329632525712  0.125520000000
 CLG15    CPB     1  0.329632525712  0.125520000000
 CLG15   CPD1     1  0.338541512893  0.041840000000
 CLG15   CPH1     1  0.329632525712  0.093557084179
 CLG15   CPH2     1  0.329632525712  0.093557084179
 CLG15    CPM     1  0.329632525712  0.125520000000
 CLG15    CPT     1  0.334977918021  0.131646486622
 CLG15   CR2P     1  0.263634748672  0.170828164985
 CLG15   CR33     1  0.338541512893  0.041840000000
 CLG15   CR3P     1  0.244382427373  0.145299904804
 CLG15   CRL1     1  0.338541512893  0.041840000000
 CLG15   CRL2     1  0.338541512893  0.041840000000
 CLG15   CRN1     1  0.347450500075  0.138767581228
 CLG15     CS     1  0.365268474438  0.138767581228
 CLG15    CST     1  0.308518226092  0.100764063435
 CLG15     CT     1  0.338541512893  0.041840000000
 CLG15    CT1     1  0.338541512893  0.041840000000
 CLG15   CT1X     1  0.338541512893  0.041840000000
 CLG15    CT2     1  0.338541512893  0.041840000000
 CLG15   CT2A     1  0.338541512893  0.041840000000
 CLG15   CT2P     1  0.338541512893  0.041840000000
 CLG15   CT2X     1  0.338541512893  0.041840000000
 CLG15    CT3     1  0.338541512893  0.041840000000
 CLG15   CT3X     1  0.338541512893  0.041840000000
 CLG15   CTD1     1  0.338541512893  0.041840000000
 CLG15   CTL1     1  0.338541512893  0.041840000000
 CLG15   CTL2     1  0.338541512893  0.041840000000
 CLG15   CTL3     1  0.338541512893  0.041840000000
 CLG15   CTL5     1  0.338541512893  0.041840000000
 CLG15   CTO1     1  0.338541512893  0.041840000000
 CLG15   CTO2     1  0.338541512893  0.041840000000
 CLG15     CU     1  0.285800308779  0.908997471504
 CLG15   CU1P     1  0.246066225950  0.180057894334
 CLG15   CU2P     1  0.233869822499  0.162315474555
 CLG15     CY     1  0.346559601357  0.113045454929
 CLG15    DUM     1  0.169270756447  0.000000000000
 CLG15   DY3P     1  0.297952167295  0.171135318061
 CLG15   ER3P     1  0.291083338178  0.169232326746
 CLG15   EU2P     1  0.333231756533  0.203602227414
 CLG15   EU3P     1  0.304954631219  0.174528477447
 CLG15     F1     1  0.314487247504  0.153729976257
 CLG15     F2     1  0.314487247504  0.135577095411
 CLG15     F3     1  0.311814551349  0.130309939452
 CLG15     FA     1  0.320723538531  0.144938011577
 CLG15     FE     1  0.227179173126  0.000000000000
 CLG15   FE2P     1  0.265496726993  0.167098295383
 CLG15   FE3P     1  0.219722350855  0.148045032716
 CLG15   FGA1     1  0.314487247504  0.153729976257
 CLG15   FGA2     1  0.314487247504  0.135577095411
 CLG15   FGA3     1  0.311814551349  0.130309939452
 CLG15   FGP1     1  0.311814551349  0.130309939452
 CLG15   FGR1     1  0.320723538531  0.144938011577
 CLG15    FNA     1  0.320723538531  0.144938011577
 CLG15   GA3P     1  0.189485248361  0.145299904804
 CLG15   GD3P     1  0.303351013527  0.173673803114
 CLG15      H     1  0.189271432669  0.089736802707
 CLG15     HA     1  0.286869387241  0.062058748940
 CLG15    HA1     1  0.288651184677  0.088756043175
 CLG15    HA2     1  0.288651184677  0.077149148019
 CLG15    HA3     1  0.288651184677  0.064818249282
 CLG15    HAL     1  0.286869387241  0.062058748940
 CLG15   HAL1     1  0.286869387241  0.062058748940
 CLG15   HAL2     1  0.288651184677  0.070011711020
 CLG15   HAL3     1  0.288651184677  0.064818249282
 CLG15     HB     1  0.286869387241  0.062058748940
 CLG15    HB1     1  0.286869387241  0.062058748940
 CLG15    HB2     1  0.288651184677  0.070011711020
 CLG15    HBL     1  0.286869387241  0.062058748940
 CLG15     HC     1  0.189271432669  0.089736802707
 CLG15   HCA1     1  0.288651184677  0.088756043175
 CLG15  HCA1A     1  0.288651184677  0.088756043175
 CLG15 HCA1C2     1  0.288651184677  0.088756043175
 CLG15   HCA2     1  0.288651184677  0.078275472531
 CLG15 HCA25A     1  0.285087589805  0.078275472531
 CLG15  HCA2A     1  0.288651184677  0.078275472531
 CLG15 HCA2C2     1  0.285087589805  0.078275472531
 CLG15   HCA3     1  0.288651184677  0.064818249282
 CLG15  HCA3A     1  0.288651184677  0.064818249282
 CLG15  HCA3M     1  0.288651184677  0.064818249282
 CLG15    HCL     1  0.189271432669  0.089736802707
 CLG15   HCP1     1  0.189271432669  0.089736802707
 CLG15  HCP1M     1  0.189271432669  0.089736802707
 CLG15   HCR1     1  0.240542653898  0.089736802707
 CLG15     HE     1  0.301123766731  0.061020452073
 CLG15    HE1     1  0.280633096214  0.073666921749
 CLG15    HE2     1  0.281523994932  0.067464972838
 CLG15   HEL1     1  0.280633096214  0.073666921749
 CLG15   HEL2     1  0.281523994932  0.067464972838
 CLG15    HF1     1  0.286869387241  0.070011711020
 CLG15    HF2     1  0.285087589805  0.072469005789
 CLG15   HG2P     1  0.274557166956  0.189623385225
 CLG15   HGA1     1  0.288651184677  0.088756043175
 CLG15   HGA2     1  0.288651184677  0.078275472531
 CLG15   HGA3     1  0.288651184677  0.064818249282
 CLG15   HGA4     1  0.280633096214  0.073666921749
 CLG15   HGA5     1  0.281523994932  0.067464972838
 CLG15   HGA6     1  0.286869387241  0.070011711020
 CLG15   HGA7     1  0.285087589805  0.072469005789
 CLG15 HGAAM0     1  0.283305792369  0.070011711020
 CLG15 HGAAM1     1  0.283305792369  0.070011711020
 CLG15 HGAAM2     1  0.281523994932  0.083680000000
 CLG15   HGP1     1  0.189271432669  0.089736802707
 CLG15   HGP2     1  0.189271432669  0.089736802707
 CLG15   HGP3     1  0.209361198763  0.132309697301
 CLG15   HGP4     1  0.189271432669  0.089736802707
 CLG15   HGP5     1  0.231633666716  0.089736802707
 CLG15 HGPAM1     1  0.247224394284  0.039692909190
 CLG15 HGPAM2     1  0.247224394284  0.041840000000
 CLG15 HGPAM3     1  0.246778944925  0.045833423612
 CLG15  HGR51     1  0.290272620344  0.072469005789
 CLG15  HGR52     1  0.249451641079  0.089736802707
 CLG15  HGR53     1  0.231633666716  0.089736802707
 CLG15  HGR61     1  0.290272620344  0.072469005789
 CLG15  HGR62     1  0.267269615442  0.089736802707
 CLG15  HGR63     1  0.249451641079  0.089736802707
 CLG15  HGR71     1  0.290272620344  0.072469005789
 CLG15     HL     1  0.231633666716  0.089736802707
 CLG15  HLGA1     1  0.288651184677  0.088756043175
 CLG15  HLGA2     1  0.288651184677  0.078275472531
 CLG15  HLGA3     1  0.288651184677  0.064818249282
 CLG15  HLGA4     1  0.280633096214  0.073666921749
 CLG15  HLGP1     1  0.189271432669  0.089736802707
 CLG15 HLGR52     1  0.249451641079  0.089736802707
 CLG15 HLGR61     1  0.290272620344  0.072469005789
 CLG15 HLGR62     1  0.267269615442  0.089736802707
 CLG15    HN1     1  0.189271432669  0.089736802707
 CLG15    HN2     1  0.189271432669  0.089736802707
 CLG15    HN3     1  0.267269615442  0.089736802707
 CLG15   HN3B     1  0.249451641079  0.089736802707
 CLG15    HN4     1  0.189271432669  0.089736802707
 CLG15    HN5     1  0.189271432669  0.089736802707
 CLG15    HN6     1  0.286869387241  0.062058748940
 CLG15    HN7     1  0.286869387241  0.062058748940
 CLG15    HN8     1  0.288651184677  0.070011711020
 CLG15    HN9     1  0.288651184677  0.064818249282
 CLG15   HNE1     1  0.280633096214  0.073666921749
 CLG15   HNE2     1  0.281523994932  0.067464972838
 CLG15    HNP     1  0.290272620344  0.072469005789
 CLG15   HO3P     1  0.293168041178  0.170263611896
 CLG15    HOL     1  0.189271432669  0.089736802707
 CLG15     HP     1  0.290272620344  0.072469005789
 CLG15   HPER     1  0.189271432669  0.089736802707
 CLG15    HR1     1  0.249451641079  0.089736802707
 CLG15    HR2     1  0.231633666716  0.089736802707
 CLG15    HR3     1  0.300054688270  0.036952087465
 CLG15   HRA3     1  0.288651184677  0.064818249282
 CLG15   HRM1     1  0.247224394284  0.039692909190
 CLG15   HRM2     1  0.247224394284  0.041840000000
 CLG15   HRP2     1  0.189271432669  0.089736802707
 CLG15     HS     1  0.209361198763  0.132309697301
 CLG15   HSIA     1  0.286869387241  0.062058748940
 CLG15   HSIO     1  0.189271432669  0.089736802707
 CLG15     HT     1  0.189271432669  0.089736802707
 CLG15     HX     1  0.189271432669  0.089736802707
 CLG15   IGR1     1  0.368832069310  0.301712530731
 CLG15   IN3P     1  0.246449312399  0.160580590010
 CLG15   LA3P     1  0.327200372211  0.182184255566
 CLG15    LIT     1  0.284864865125  0.020196198771
 CLG15    LPH     1  0.169270756447  0.000000000000
 CLG15   LU3P     1  0.289648991242  0.166731218816
 CLG15     MG     1  0.274842254546  0.051243325419
 CLG15   MN2P     1  0.276508235149  0.171747976291
 CLG15   MN3P     1  0.203516903172  0.148045032716
 CLG15      N     1  0.334087019303  0.004184000000
 CLG15     NC     1  0.334087019303  0.324091246411
 CLG15    NC2     1  0.334087019303  0.187114168357
 CLG15  NC2D1     1  0.307360057758  0.187114168357
 CLG15  NC311     1  0.347450500075  0.088756043175
 CLG15   ND3P     1  0.313587439798  0.177117175768
 CLG15     NE     1  0.305578260322  0.122698965603
 CLG15  NG1T1     1  0.328741626994  0.177512086349
 CLG15  NG2D1     1  0.334087019303  0.187114168357
 CLG15  NG2O1     1  0.334087019303  0.187114168357
 CLG15  NG2P1     1  0.334087019303  0.187114168357
 CLG15 NG2R43     1  0.334087019303  0.187114168357
 CLG15 NG2R50     1  0.334087019303  0.187114168357
 CLG15 NG2R51     1  0.334087019303  0.187114168357
 CLG15 NG2R52     1  0.334087019303  0.187114168357
 CLG15 NG2R53     1  0.334087019303  0.187114168357
 CLG15 NG2R57     1  0.334087019303  0.187114168357
 CLG15 NG2R60     1  0.337650614175  0.102486650838
 CLG15 NG2R61     1  0.334087019303  0.187114168357
 CLG15 NG2R62     1  0.352795892384  0.093557084179
 CLG15 NG2R67     1  0.334087019303  0.187114168357
 CLG15 NG2RC0     1  0.334087019303  0.187114168357
 CLG15  NG2S0     1  0.334087019303  0.004184000000
 CLG15  NG2S1     1  0.307360057758  0.187114168357
 CLG15  NG2S2     1  0.334087019303  0.187114168357
 CLG15  NG2S3     1  0.334087019303  0.187114168357
 CLG15  NG301     1  0.347450500075  0.078275472531
 CLG15  NG311     1  0.347450500075  0.088756043175
 CLG15  NG321     1  0.346559601357  0.102486650838
 CLG15  NG331     1  0.345668702638  0.110698234855
 CLG15 NG3C51     1  0.334087019303  0.187114168357
 CLG15  NG3N1     1  0.351904993665  0.102486650838
 CLG15  NG3P0     1  0.334087019303  0.187114168357
 CLG15  NG3P1     1  0.334087019303  0.187114168357
 CLG15  NG3P2     1  0.334087019303  0.187114168357
 CLG15  NG3P3     1  0.334087019303  0.187114168357
 CLG15    NH1     1  0.307360057758  0.187114168357
 CLG15    NH2     1  0.334087019303  0.187114168357
 CLG15    NH3     1  0.334087019303  0.187114168357
 CLG15   NH3L     1  0.334087019303  0.187114168357
 CLG15    NHL     1  0.307360057758  0.187114168357
 CLG15     NI     1  0.282949432881  0.994525446633
 CLG15   NI2P     1  0.238787583423  0.158440517242
 CLG15    NN1     1  0.334087019303  0.187114168357
 CLG15   NN1C     1  0.334087019303  0.187114168357
 CLG15    NN2     1  0.334087019303  0.187114168357
 CLG15   NN2B     1  0.334087019303  0.187114168357
 CLG15   NN2C     1  0.334087019303  0.187114168357
 CLG15   NN2G     1  0.334087019303  0.187114168357
 CLG15   NN2U     1  0.334087019303  0.187114168357
 CLG15    NN3     1  0.334087019303  0.187114168357
 CLG15   NN3A     1  0.334087019303  0.187114168357
 CLG15   NN3G     1  0.334087019303  0.187114168357
 CLG15   NN3I     1  0.334087019303  0.187114168357
 CLG15    NN4     1  0.334087019303  0.187114168357
 CLG15    NN6     1  0.334087019303  0.187114168357
 CLG15    NNG     1  0.334087019303  0.187114168357
 CLG15     NP     1  0.334087019303  0.187114168357
 CLG15    NPH     1  0.334087019303  0.187114168357
 CLG15    NR1     1  0.334087019303  0.187114168357
 CLG15    NR2     1  0.334087019303  0.187114168357
 CLG15    NR3     1  0.334087019303  0.187114168357
 CLG15   NRC4     1  0.334087019303  0.187114168357
 CLG15   NRN1     1  0.347450500075  0.280671252536
 CLG15   NRN2     1  0.346559601357  0.102486650838
 CLG15    NS1     1  0.334087019303  0.187114168357
 CLG15    NS2     1  0.334087019303  0.187114168357
 CLG15    NTL     1  0.334087019303  0.187114168357
 CLG15     NY     1  0.334087019303  0.187114168357
 CLG15      O     1  0.293996576986  0.144938011577
 CLG15    O2L     1  0.320723538531  0.144938011577
 CLG15    OAL     1  0.326959829558  0.163176000000
 CLG15     OB     1  0.293996576986  0.144938011577
 CLG15    OBL     1  0.293996576986  0.144938011577
 CLG15     OC     1  0.320723538531  0.144938011577
 CLG15  OC2D1     1  0.293996576986  0.144938011577
 CLG15  OC2D2     1  0.320723538531  0.144938011577
 CLG15  OC2D3     1  0.293996576986  0.144938011577
 CLG15  OC2D4     1  0.293996576986  0.144938011577
 CLG15  OC2DP     1  0.320723538531  0.144938011577
 CLG15  OC301     1  0.316269044940  0.132309697301
 CLG15  OC302     1  0.316269044940  0.132309697301
 CLG15  OC303     1  0.316269044940  0.132309697301
 CLG15 OC305A     1  0.316269044940  0.132309697301
 CLG15  OC30A     1  0.316269044940  0.132309697301
 CLG15  OC30P     1  0.326959829558  0.163176000000
 CLG15  OC311     1  0.326514380198  0.183381431383
 CLG15 OC311M     1  0.326514380198  0.183381431383
 CLG15  OC312     1  0.326959829558  0.163176000000
 CLG15 OC3C51     1  0.316269044940  0.132309697301
 CLG15 OC3C5M     1  0.316269044940  0.132309697301
 CLG15 OC3C61     1  0.316269044940  0.132309697301
 CLG15    OCA     1  0.293996576986  0.144938011577
 CLG15    OCL     1  0.320723538531  0.144938011577
 CLG15  OG2D1     1  0.293996576986  0.144938011577
 CLG15  OG2D2     1  0.320723538531  0.144938011577
 CLG15  OG2D3     1  0.293996576986  0.144938011577
 CLG15  OG2D4     1  0.320723538531  0.144938011577
 CLG15  OG2D5     1  0.320010819556  0.169954883425
 CLG15  OG2N1     1  0.320723538531  0.144938011577
 CLG15  OG2P1     1  0.320723538531  0.144938011577
 CLG15 OG2R50     1  0.320723538531  0.144938011577
 CLG15  OG2S1     1  0.318906105146  0.157831660601
 CLG15  OG301     1  0.316269044940  0.132309697301
 CLG15  OG302     1  0.316269044940  0.132309697301
 CLG15  OG303     1  0.316269044940  0.132309697301
 CLG15  OG304     1  0.316269044940  0.132309697301
 CLG15  OG311     1  0.326514380198  0.183381431383
 CLG15  OG312     1  0.325178032121  0.144938011577
 CLG15 OG3C31     1  0.316269044940  0.132309697301
 CLG15 OG3C51     1  0.316269044940  0.132309697301
 CLG15 OG3C61     1  0.316269044940  0.132309697301
 CLG15 OG3R60     1  0.316269044940  0.132309697301
 CLG15    OH1     1  0.326959829558  0.163176000000
 CLG15    OHL     1  0.326959829558  0.163176000000
 CLG15   OLG1     1  0.293996576986  0.144938011577
 CLG15   OLG2     1  0.320723538531  0.144938011577
 CLG15   OLG3     1  0.320723538531  0.144938011577
 CLG15   OLG4     1  0.316269044940  0.132309697301
 CLG15   OLG5     1  0.316269044940  0.132309697301
 CLG15   OLG6     1  0.326514380198  0.183381431383
 CLG15   OLG7     1  0.316269044940  0.132309697301
 CLG15   OLG8     1  0.316269044940  0.132309697301
 CLG15     OM     1  0.320723538531  0.144938011577
 CLG15    ON1     1  0.320723538531  0.144938011577
 CLG15   ON1C     1  0.320723538531  0.144938011577
 CLG15    ON2     1  0.326959829558  0.163176000000
 CLG15   ON2B     1  0.326959829558  0.163176000000
 CLG15   ON2M     1  0.316269044940  0.132309697301
 CLG15    ON3     1  0.320723538531  0.144938011577
 CLG15    ON4     1  0.326959829558  0.163176000000
 CLG15    ON5     1  0.326959829558  0.163176000000
 CLG15    ON6     1  0.326959829558  0.163176000000
 CLG15   ON6B     1  0.326959829558  0.163176000000
 CLG15   OPER     1  0.318427692534  0.188901923946
 CLG15     OS     1  0.326959829558  0.163176000000
 CLG15   OSIA     1  0.326959829558  0.163176000000
 CLG15   OSIE     1  0.326959829558  0.163176000000
 CLG15   OSIH     1  0.326959829558  0.163176000000
 CLG15    OSL     1  0.316269044940  0.132309697301
 CLG15   OSLP     1  0.316269044940  0.132309697301
 CLG15    OST     1  0.320010819556  0.169954883425
 CLG15     OT     1  0.326799467788  0.163176000000
 CLG15     OX     1  0.320723538531  0.144938011577
 CLG15      P     1  0.360813980847  0.320014464673
 CLG15     P2     1  0.360813980847  0.320014464673
 CLG15     P3     1  0.360813980847  0.320014464673
 CLG15     P4     1  0.360813980847  0.320014464673
 CLG15     PB     1  0.328073452955  0.716185437439
 CLG15   PB2P     1  0.325890751096  0.204716924713
 CLG15     PC     1  0.360813980847  0.320014464673
 CLG15     PD     1  0.294842930769  1.037598257516
 CLG15   PD2P     1  0.251865976605  0.174628752363
 CLG15    PG0     1  0.360813980847  0.320014464673
 CLG15    PG1     1  0.360813980847  0.320014464673
 CLG15    PG2     1  0.360813980847  0.320014464673
 CLG15     PL     1  0.360813980847  0.320014464673
 CLG15   PM3P     1  0.316910492017  0.176275053255
 CLG15    POT     1  0.326403017859  0.123410269913
 CLG15   PR3P     1  0.317079762773  0.178642591472
 CLG15     PT     1  0.296001099102  1.168527606863
 CLG15   PT2P     1  0.240284293270  0.168973521997
 CLG15   PU3P     1  0.318024115415  0.179522368790
 CLG15   RA2P     1  0.355459679551  0.229891668540
 CLG15   RH3P     1  0.210367914314  0.149983415617
 CLG15    RUB     1  0.338541512893  0.162045623205
 CLG15      S     1  0.347450500075  0.280671252536
 CLG15     SC     1  0.356359487256  0.286840588481
 CLG15   SC3P     1  0.266993436839  0.157109060719
 CLG15  SEGD1     1  0.363041227642  0.330244580395
 CLG15  SG2D1     1  0.351904993665  0.314496560236
 CLG15  SG2P1     1  0.355798221064  0.332305491450
 CLG15  SG2P2     1  0.352314807076  0.329421919951
 CLG15 SG2R50     1  0.347450500075  0.280671252536
 CLG15  SG301     1  0.345223253279  0.257919081884
 CLG15  SG302     1  0.365268474438  0.286840588481
 CLG15  SG311     1  0.347450500075  0.280671252536
 CLG15  SG3O1     1  0.356359487256  0.286840588481
 CLG15  SG3O2     1  0.347450500075  0.247528778125
 CLG15  SG3O3     1  0.347450500075  0.247528778125
 CLG15     SI     1  0.365268474438  0.324091246411
 CLG15   SIH3     1  0.365268474438  0.324091246411
 CLG15     SL     1  0.356359487256  0.286840588481
 CLG15     SM     1  0.345223253279  0.257919081884
 CLG15   SM2P     1  0.334666103469  0.207012887251
 CLG15   SM3P     1  0.308847858618  0.175378986746
 CLG15   SN2P     1  0.316981763914  0.181365662197
 CLG15    SOD     1  0.294954293108  0.090610410351
 CLG15     SP     1  0.365268474438  0.280671252536
 CLG15   SR2P     1  0.334612649546  0.200133451797
 CLG15     SS     1  0.365268474438  0.286840588481
 CLG15   TB3P     1  0.300678317372  0.172155203837
 CLG15   TI1P     1  0.341276571958  0.266826378666
 CLG15   TI3P     1  0.243117351193  0.149983415617
 CLG15   TL3P     1  0.246716582015  0.168869889039
 CLG15   TM3P     1  0.289417357575  0.168402751521
 CLG15    U3P     1  0.320830446377  0.182184255566
 CLG15    V2P     1  0.267599247968  0.167830039933
 CLG15    V3P     1  0.223989755715  0.147096016316
 CLG15    Y3P     1  0.295190381269  0.170263611896
 CLG15   YB2P     1  0.312616360195  0.189623385225
 CLG15   YB3P     1  0.284659958420  0.167569069413
 CLG15     ZN     1  0.266378716724  0.209200000000
 CLG16  CLG16     1  0.338541512893  0.041840000000
 CLG16  CLGA1     1  0.339432411611  0.245040988571
 CLG16  CLGA3     1  0.339432411611  0.232955260941
 CLG16  CLGR1     1  0.334977918021  0.200657590935
 CLG16     CM     1  0.356359487256  0.138767581228
 CLG16     CN     1  0.325178032121  0.187114168357
 CLG16    CN1     1  0.338541512893  0.132309697301
 CLG16   CN1A     1  0.347450500075  0.110698234855
 CLG16   CN1T     1  0.338541512893  0.132309697301
 CLG16    CN2     1  0.338541512893  0.132309697301
 CLG16    CN3     1  0.338541512893  0.125520000000
 CLG16   CN3A     1  0.329632525712  0.177512086349
 CLG16   CN3B     1  0.329632525712  0.177512086349
 CLG16   CN3C     1  0.329632525712  0.177512086349
 CLG16   CN3D     1  0.338541512893  0.125520000000
 CLG16   CN3T     1  0.338541512893  0.125520000000
 CLG16    CN4     1  0.338541512893  0.114583559030
 CLG16    CN5     1  0.338541512893  0.114583559030
 CLG16   CN5G     1  0.338541512893  0.114583559030
 CLG16    CN6     1  0.338541512893  0.041840000000
 CLG16    CN7     1  0.338541512893  0.041840000000
 CLG16   CN7B     1  0.338541512893  0.041840000000
 CLG16   CN7E     1  0.338541512893  0.041840000000
 CLG16    CN8     1  0.338541512893  0.041840000000
 CLG16   CN8B     1  0.338541512893  0.041840000000
 CLG16    CN9     1  0.338541512893  0.041840000000
 CLG16    CNA     1  0.346773417049  0.110698234855
 CLG16   CNA2     1  0.338541512893  0.110698234855
 CLG16   CNE1     1  0.355468588538  0.109105371453
 CLG16   CNE2     1  0.354577689820  0.105847757841
 CLG16    CNG     1  0.347450500075  0.138767581228
 CLG16   CO2P     1  0.251910521541  0.164138698618
 CLG16   CO3P     1  0.192264852362  0.144393471099
 CLG16    COA     1  0.347450500075  0.138767581228
 CLG16    CP1     1  0.338541512893  0.041840000000
 CLG16    CP2     1  0.338541512893  0.041840000000
 CLG16    CP3     1  0.338541512893  0.041840000000
 CLG16    CPA     1  0.329632525712  0.125520000000
 CLG16    CPB     1  0.329632525712  0.125520000000
 CLG16   CPD1     1  0.338541512893  0.041840000000
 CLG16   CPH1     1  0.329632525712  0.093557084179
 CLG16   CPH2     1  0.329632525712  0.093557084179
 CLG16    CPM     1  0.329632525712  0.125520000000
 CLG16    CPT     1  0.334977918021  0.131646486622
 CLG16   CR2P     1  0.263634748672  0.170828164985
 CLG16   CR33     1  0.338541512893  0.041840000000
 CLG16   CR3P     1  0.244382427373  0.145299904804
 CLG16   CRL1     1  0.338541512893  0.041840000000
 CLG16   CRL2     1  0.338541512893  0.041840000000
 CLG16   CRN1     1  0.347450500075  0.138767581228
 CLG16     CS     1  0.365268474438  0.138767581228
 CLG16    CST     1  0.308518226092  0.100764063435
 CLG16     CT     1  0.338541512893  0.041840000000
 CLG16    CT1     1  0.338541512893  0.041840000000
 CLG16   CT1X     1  0.338541512893  0.041840000000
 CLG16    CT2     1  0.338541512893  0.041840000000
 CLG16   CT2A     1  0.338541512893  0.041840000000
 CLG16   CT2P     1  0.338541512893  0.041840000000
 CLG16   CT2X     1  0.338541512893  0.041840000000
 CLG16    CT3     1  0.338541512893  0.041840000000
 CLG16   CT3X     1  0.338541512893  0.041840000000
 CLG16   CTD1     1  0.338541512893  0.041840000000
 CLG16   CTL1     1  0.338541512893  0.041840000000
 CLG16   CTL2     1  0.338541512893  0.041840000000
 CLG16   CTL3     1  0.338541512893  0.041840000000
 CLG16   CTL5     1  0.338541512893  0.041840000000
 CLG16   CTO1     1  0.338541512893  0.041840000000
 CLG16   CTO2     1  0.338541512893  0.041840000000
 CLG16     CU     1  0.285800308779  0.908997471504
 CLG16   CU1P     1  0.246066225950  0.180057894334
 CLG16   CU2P     1  0.233869822499  0.162315474555
 CLG16     CY     1  0.346559601357  0.113045454929
 CLG16    DUM     1  0.169270756447  0.000000000000
 CLG16   DY3P     1  0.297952167295  0.171135318061
 CLG16   ER3P     1  0.291083338178  0.169232326746
 CLG16   EU2P     1  0.333231756533  0.203602227414
 CLG16   EU3P     1  0.304954631219  0.174528477447
 CLG16     F1     1  0.314487247504  0.153729976257
 CLG16     F2     1  0.314487247504  0.135577095411
 CLG16     F3     1  0.311814551349  0.130309939452
 CLG16     FA     1  0.320723538531  0.144938011577
 CLG16     FE     1  0.227179173126  0.000000000000
 CLG16   FE2P     1  0.265496726993  0.167098295383
 CLG16   FE3P     1  0.219722350855  0.148045032716
 CLG16   FGA1     1  0.314487247504  0.153729976257
 CLG16   FGA2     1  0.314487247504  0.135577095411
 CLG16   FGA3     1  0.311814551349  0.130309939452
 CLG16   FGP1     1  0.311814551349  0.130309939452
 CLG16   FGR1     1  0.320723538531  0.144938011577
 CLG16    FNA     1  0.320723538531  0.144938011577
 CLG16   GA3P     1  0.189485248361  0.145299904804
 CLG16   GD3P     1  0.303351013527  0.173673803114
 CLG16      H     1  0.189271432669  0.089736802707
 CLG16     HA     1  0.286869387241  0.062058748940
 CLG16    HA1     1  0.288651184677  0.088756043175
 CLG16    HA2     1  0.288651184677  0.077149148019
 CLG16    HA3     1  0.288651184677  0.064818249282
 CLG16    HAL     1  0.286869387241  0.062058748940
 CLG16   HAL1     1  0.286869387241  0.062058748940
 CLG16   HAL2     1  0.288651184677  0.070011711020
 CLG16   HAL3     1  0.288651184677  0.064818249282
 CLG16     HB     1  0.286869387241  0.062058748940
 CLG16    HB1     1  0.286869387241  0.062058748940
 CLG16    HB2     1  0.288651184677  0.070011711020
 CLG16    HBL     1  0.286869387241  0.062058748940
 CLG16     HC     1  0.189271432669  0.089736802707
 CLG16   HCA1     1  0.288651184677  0.088756043175
 CLG16  HCA1A     1  0.288651184677  0.088756043175
 CLG16 HCA1C2     1  0.288651184677  0.088756043175
 CLG16   HCA2     1  0.288651184677  0.078275472531
 CLG16 HCA25A     1  0.285087589805  0.078275472531
 CLG16  HCA2A     1  0.288651184677  0.078275472531
 CLG16 HCA2C2     1  0.285087589805  0.078275472531
 CLG16   HCA3     1  0.288651184677  0.064818249282
 CLG16  HCA3A     1  0.288651184677  0.064818249282
 CLG16  HCA3M     1  0.288651184677  0.064818249282
 CLG16    HCL     1  0.189271432669  0.089736802707
 CLG16   HCP1     1  0.189271432669  0.089736802707
 CLG16  HCP1M     1  0.189271432669  0.089736802707
 CLG16   HCR1     1  0.240542653898  0.089736802707
 CLG16     HE     1  0.301123766731  0.061020452073
 CLG16    HE1     1  0.280633096214  0.073666921749
 CLG16    HE2     1  0.281523994932  0.067464972838
 CLG16   HEL1     1  0.280633096214  0.073666921749
 CLG16   HEL2     1  0.281523994932  0.067464972838
 CLG16    HF1     1  0.286869387241  0.070011711020
 CLG16    HF2     1  0.285087589805  0.072469005789
 CLG16   HG2P     1  0.274557166956  0.189623385225
 CLG16   HGA1     1  0.288651184677  0.088756043175
 CLG16   HGA2     1  0.288651184677  0.078275472531
 CLG16   HGA3     1  0.288651184677  0.064818249282
 CLG16   HGA4     1  0.280633096214  0.073666921749
 CLG16   HGA5     1  0.281523994932  0.067464972838
 CLG16   HGA6     1  0.286869387241  0.070011711020
 CLG16   HGA7     1  0.285087589805  0.072469005789
 CLG16 HGAAM0     1  0.283305792369  0.070011711020
 CLG16 HGAAM1     1  0.283305792369  0.070011711020
 CLG16 HGAAM2     1  0.281523994932  0.083680000000
 CLG16   HGP1     1  0.189271432669  0.089736802707
 CLG16   HGP2     1  0.189271432669  0.089736802707
 CLG16   HGP3     1  0.209361198763  0.132309697301
 CLG16   HGP4     1  0.189271432669  0.089736802707
 CLG16   HGP5     1  0.231633666716  0.089736802707
 CLG16 HGPAM1     1  0.247224394284  0.039692909190
 CLG16 HGPAM2     1  0.247224394284  0.041840000000
 CLG16 HGPAM3     1  0.246778944925  0.045833423612
 CLG16  HGR51     1  0.290272620344  0.072469005789
 CLG16  HGR52     1  0.249451641079  0.089736802707
 CLG16  HGR53     1  0.231633666716  0.089736802707
 CLG16  HGR61     1  0.290272620344  0.072469005789
 CLG16  HGR62     1  0.267269615442  0.089736802707
 CLG16  HGR63     1  0.249451641079  0.089736802707
 CLG16  HGR71     1  0.290272620344  0.072469005789
 CLG16     HL     1  0.231633666716  0.089736802707
 CLG16  HLGA1     1  0.288651184677  0.088756043175
 CLG16  HLGA2     1  0.288651184677  0.078275472531
 CLG16  HLGA3     1  0.288651184677  0.064818249282
 CLG16  HLGA4     1  0.280633096214  0.073666921749
 CLG16  HLGP1     1  0.189271432669  0.089736802707
 CLG16 HLGR52     1  0.249451641079  0.089736802707
 CLG16 HLGR61     1  0.290272620344  0.072469005789
 CLG16 HLGR62     1  0.267269615442  0.089736802707
 CLG16    HN1     1  0.189271432669  0.089736802707
 CLG16    HN2     1  0.189271432669  0.089736802707
 CLG16    HN3     1  0.267269615442  0.089736802707
 CLG16   HN3B     1  0.249451641079  0.089736802707
 CLG16    HN4     1  0.189271432669  0.089736802707
 CLG16    HN5     1  0.189271432669  0.089736802707
 CLG16    HN6     1  0.286869387241  0.062058748940
 CLG16    HN7     1  0.286869387241  0.062058748940
 CLG16    HN8     1  0.288651184677  0.070011711020
 CLG16    HN9     1  0.288651184677  0.064818249282
 CLG16   HNE1     1  0.280633096214  0.073666921749
 CLG16   HNE2     1  0.281523994932  0.067464972838
 CLG16    HNP     1  0.290272620344  0.072469005789
 CLG16   HO3P     1  0.293168041178  0.170263611896
 CLG16    HOL     1  0.189271432669  0.089736802707
 CLG16     HP     1  0.290272620344  0.072469005789
 CLG16   HPER     1  0.189271432669  0.089736802707
 CLG16    HR1     1  0.249451641079  0.089736802707
 CLG16    HR2     1  0.231633666716  0.089736802707
 CLG16    HR3     1  0.300054688270  0.036952087465
 CLG16   HRA3     1  0.288651184677  0.064818249282
 CLG16   HRM1     1  0.247224394284  0.039692909190
 CLG16   HRM2     1  0.247224394284  0.041840000000
 CLG16   HRP2     1  0.189271432669  0.089736802707
 CLG16     HS     1  0.209361198763  0.132309697301
 CLG16   HSIA     1  0.286869387241  0.062058748940
 CLG16   HSIO     1  0.189271432669  0.089736802707
 CLG16     HT     1  0.189271432669  0.089736802707
 CLG16     HX     1  0.189271432669  0.089736802707
 CLG16   IGR1     1  0.368832069310  0.301712530731
 CLG16   IN3P     1  0.246449312399  0.160580590010
 CLG16   LA3P     1  0.327200372211  0.182184255566
 CLG16    LIT     1  0.284864865125  0.020196198771
 CLG16    LPH     1  0.169270756447  0.000000000000
 CLG16   LU3P     1  0.289648991242  0.166731218816
 CLG16     MG     1  0.274842254546  0.051243325419
 CLG16   MN2P     1  0.276508235149  0.171747976291
 CLG16   MN3P     1  0.203516903172  0.148045032716
 CLG16      N     1  0.334087019303  0.004184000000
 CLG16     NC     1  0.334087019303  0.324091246411
 CLG16    NC2     1  0.334087019303  0.187114168357
 CLG16  NC2D1     1  0.307360057758  0.187114168357
 CLG16  NC311     1  0.347450500075  0.088756043175
 CLG16   ND3P     1  0.313587439798  0.177117175768
 CLG16     NE     1  0.305578260322  0.122698965603
 CLG16  NG1T1     1  0.328741626994  0.177512086349
 CLG16  NG2D1     1  0.334087019303  0.187114168357
 CLG16  NG2O1     1  0.334087019303  0.187114168357
 CLG16  NG2P1     1  0.334087019303  0.187114168357
 CLG16 NG2R43     1  0.334087019303  0.187114168357
 CLG16 NG2R50     1  0.334087019303  0.187114168357
 CLG16 NG2R51     1  0.334087019303  0.187114168357
 CLG16 NG2R52     1  0.334087019303  0.187114168357
 CLG16 NG2R53     1  0.334087019303  0.187114168357
 CLG16 NG2R57     1  0.334087019303  0.187114168357
 CLG16 NG2R60     1  0.337650614175  0.102486650838
 CLG16 NG2R61     1  0.334087019303  0.187114168357
 CLG16 NG2R62     1  0.352795892384  0.093557084179
 CLG16 NG2R67     1  0.334087019303  0.187114168357
 CLG16 NG2RC0     1  0.334087019303  0.187114168357
 CLG16  NG2S0     1  0.334087019303  0.004184000000
 CLG16  NG2S1     1  0.307360057758  0.187114168357
 CLG16  NG2S2     1  0.334087019303  0.187114168357
 CLG16  NG2S3     1  0.334087019303  0.187114168357
 CLG16  NG301     1  0.347450500075  0.078275472531
 CLG16  NG311     1  0.347450500075  0.088756043175
 CLG16  NG321     1  0.346559601357  0.102486650838
 CLG16  NG331     1  0.345668702638  0.110698234855
 CLG16 NG3C51     1  0.334087019303  0.187114168357
 CLG16  NG3N1     1  0.351904993665  0.102486650838
 CLG16  NG3P0     1  0.334087019303  0.187114168357
 CLG16  NG3P1     1  0.334087019303  0.187114168357
 CLG16  NG3P2     1  0.334087019303  0.187114168357
 CLG16  NG3P3     1  0.334087019303  0.187114168357
 CLG16    NH1     1  0.307360057758  0.187114168357
 CLG16    NH2     1  0.334087019303  0.187114168357
 CLG16    NH3     1  0.334087019303  0.187114168357
 CLG16   NH3L     1  0.334087019303  0.187114168357
 CLG16    NHL     1  0.307360057758  0.187114168357
 CLG16     NI     1  0.282949432881  0.994525446633
 CLG16   NI2P     1  0.238787583423  0.158440517242
 CLG16    NN1     1  0.334087019303  0.187114168357
 CLG16   NN1C     1  0.334087019303  0.187114168357
 CLG16    NN2     1  0.334087019303  0.187114168357
 CLG16   NN2B     1  0.334087019303  0.187114168357
 CLG16   NN2C     1  0.334087019303  0.187114168357
 CLG16   NN2G     1  0.334087019303  0.187114168357
 CLG16   NN2U     1  0.334087019303  0.187114168357
 CLG16    NN3     1  0.334087019303  0.187114168357
 CLG16   NN3A     1  0.334087019303  0.187114168357
 CLG16   NN3G     1  0.334087019303  0.187114168357
 CLG16   NN3I     1  0.334087019303  0.187114168357
 CLG16    NN4     1  0.334087019303  0.187114168357
 CLG16    NN6     1  0.334087019303  0.187114168357
 CLG16    NNG     1  0.334087019303  0.187114168357
 CLG16     NP     1  0.334087019303  0.187114168357
 CLG16    NPH     1  0.334087019303  0.187114168357
 CLG16    NR1     1  0.334087019303  0.187114168357
 CLG16    NR2     1  0.334087019303  0.187114168357
 CLG16    NR3     1  0.334087019303  0.187114168357
 CLG16   NRC4     1  0.334087019303  0.187114168357
 CLG16   NRN1     1  0.347450500075  0.280671252536
 CLG16   NRN2     1  0.346559601357  0.102486650838
 CLG16    NS1     1  0.334087019303  0.187114168357
 CLG16    NS2     1  0.334087019303  0.187114168357
 CLG16    NTL     1  0.334087019303  0.187114168357
 CLG16     NY     1  0.334087019303  0.187114168357
 CLG16      O     1  0.293996576986  0.144938011577
 CLG16    O2L     1  0.320723538531  0.144938011577
 CLG16    OAL     1  0.326959829558  0.163176000000
 CLG16     OB     1  0.293996576986  0.144938011577
 CLG16    OBL     1  0.293996576986  0.144938011577
 CLG16     OC     1  0.320723538531  0.144938011577
 CLG16  OC2D1     1  0.293996576986  0.144938011577
 CLG16  OC2D2     1  0.320723538531  0.144938011577
 CLG16  OC2D3     1  0.293996576986  0.144938011577
 CLG16  OC2D4     1  0.293996576986  0.144938011577
 CLG16  OC2DP     1  0.320723538531  0.144938011577
 CLG16  OC301     1  0.316269044940  0.132309697301
 CLG16  OC302     1  0.316269044940  0.132309697301
 CLG16  OC303     1  0.316269044940  0.132309697301
 CLG16 OC305A     1  0.316269044940  0.132309697301
 CLG16  OC30A     1  0.316269044940  0.132309697301
 CLG16  OC30P     1  0.326959829558  0.163176000000
 CLG16  OC311     1  0.326514380198  0.183381431383
 CLG16 OC311M     1  0.326514380198  0.183381431383
 CLG16  OC312     1  0.326959829558  0.163176000000
 CLG16 OC3C51     1  0.316269044940  0.132309697301
 CLG16 OC3C5M     1  0.316269044940  0.132309697301
 CLG16 OC3C61     1  0.316269044940  0.132309697301
 CLG16    OCA     1  0.293996576986  0.144938011577
 CLG16    OCL     1  0.320723538531  0.144938011577
 CLG16  OG2D1     1  0.293996576986  0.144938011577
 CLG16  OG2D2     1  0.320723538531  0.144938011577
 CLG16  OG2D3     1  0.293996576986  0.144938011577
 CLG16  OG2D4     1  0.320723538531  0.144938011577
 CLG16  OG2D5     1  0.320010819556  0.169954883425
 CLG16  OG2N1     1  0.320723538531  0.144938011577
 CLG16  OG2P1     1  0.320723538531  0.144938011577
 CLG16 OG2R50     1  0.320723538531  0.144938011577
 CLG16  OG2S1     1  0.318906105146  0.157831660601
 CLG16  OG301     1  0.316269044940  0.132309697301
 CLG16  OG302     1  0.316269044940  0.132309697301
 CLG16  OG303     1  0.316269044940  0.132309697301
 CLG16  OG304     1  0.316269044940  0.132309697301
 CLG16  OG311     1  0.326514380198  0.183381431383
 CLG16  OG312     1  0.325178032121  0.144938011577
 CLG16 OG3C31     1  0.316269044940  0.132309697301
 CLG16 OG3C51     1  0.316269044940  0.132309697301
 CLG16 OG3C61     1  0.316269044940  0.132309697301
 CLG16 OG3R60     1  0.316269044940  0.132309697301
 CLG16    OH1     1  0.326959829558  0.163176000000
 CLG16    OHL     1  0.326959829558  0.163176000000
 CLG16   OLG1     1  0.293996576986  0.144938011577
 CLG16   OLG2     1  0.320723538531  0.144938011577
 CLG16   OLG3     1  0.320723538531  0.144938011577
 CLG16   OLG4     1  0.316269044940  0.132309697301
 CLG16   OLG5     1  0.316269044940  0.132309697301
 CLG16   OLG6     1  0.326514380198  0.183381431383
 CLG16   OLG7     1  0.316269044940  0.132309697301
 CLG16   OLG8     1  0.316269044940  0.132309697301
 CLG16     OM     1  0.320723538531  0.144938011577
 CLG16    ON1     1  0.320723538531  0.144938011577
 CLG16   ON1C     1  0.320723538531  0.144938011577
 CLG16    ON2     1  0.326959829558  0.163176000000
 CLG16   ON2B     1  0.326959829558  0.163176000000
 CLG16   ON2M     1  0.316269044940  0.132309697301
 CLG16    ON3     1  0.320723538531  0.144938011577
 CLG16    ON4     1  0.326959829558  0.163176000000
 CLG16    ON5     1  0.326959829558  0.163176000000
 CLG16    ON6     1  0.326959829558  0.163176000000
 CLG16   ON6B     1  0.326959829558  0.163176000000
 CLG16   OPER     1  0.318427692534  0.188901923946
 CLG16     OS     1  0.326959829558  0.163176000000
 CLG16   OSIA     1  0.326959829558  0.163176000000
 CLG16   OSIE     1  0.326959829558  0.163176000000
 CLG16   OSIH     1  0.326959829558  0.163176000000
 CLG16    OSL     1  0.316269044940  0.132309697301
 CLG16   OSLP     1  0.316269044940  0.132309697301
 CLG16    OST     1  0.320010819556  0.169954883425
 CLG16     OT     1  0.326799467788  0.163176000000
 CLG16     OX     1  0.320723538531  0.144938011577
 CLG16      P     1  0.360813980847  0.320014464673
 CLG16     P2     1  0.360813980847  0.320014464673
 CLG16     P3     1  0.360813980847  0.320014464673
 CLG16     P4     1  0.360813980847  0.320014464673
 CLG16     PB     1  0.328073452955  0.716185437439
 CLG16   PB2P     1  0.325890751096  0.204716924713
 CLG16     PC     1  0.360813980847  0.320014464673
 CLG16     PD     1  0.294842930769  1.037598257516
 CLG16   PD2P     1  0.251865976605  0.174628752363
 CLG16    PG0     1  0.360813980847  0.320014464673
 CLG16    PG1     1  0.360813980847  0.320014464673
 CLG16    PG2     1  0.360813980847  0.320014464673
 CLG16     PL     1  0.360813980847  0.320014464673
 CLG16   PM3P     1  0.316910492017  0.176275053255
 CLG16    POT     1  0.326403017859  0.123410269913
 CLG16   PR3P     1  0.317079762773  0.178642591472
 CLG16     PT     1  0.296001099102  1.168527606863
 CLG16   PT2P     1  0.240284293270  0.168973521997
 CLG16   PU3P     1  0.318024115415  0.179522368790
 CLG16   RA2P     1  0.355459679551  0.229891668540
 CLG16   RH3P     1  0.210367914314  0.149983415617
 CLG16    RUB     1  0.338541512893  0.162045623205
 CLG16      S     1  0.347450500075  0.280671252536
 CLG16     SC     1  0.356359487256  0.286840588481
 CLG16   SC3P     1  0.266993436839  0.157109060719
 CLG16  SEGD1     1  0.363041227642  0.330244580395
 CLG16  SG2D1     1  0.351904993665  0.314496560236
 CLG16  SG2P1     1  0.355798221064  0.332305491450
 CLG16  SG2P2     1  0.352314807076  0.329421919951
 CLG16 SG2R50     1  0.347450500075  0.280671252536
 CLG16  SG301     1  0.345223253279  0.257919081884
 CLG16  SG302     1  0.365268474438  0.286840588481
 CLG16  SG311     1  0.347450500075  0.280671252536
 CLG16  SG3O1     1  0.356359487256  0.286840588481
 CLG16  SG3O2     1  0.347450500075  0.247528778125
 CLG16  SG3O3     1  0.347450500075  0.247528778125
 CLG16     SI     1  0.365268474438  0.324091246411
 CLG16   SIH3     1  0.365268474438  0.324091246411
 CLG16     SL     1  0.356359487256  0.286840588481
 CLG16     SM     1  0.345223253279  0.257919081884
 CLG16   SM2P     1  0.334666103469  0.207012887251
 CLG16   SM3P     1  0.308847858618  0.175378986746
 CLG16   SN2P     1  0.316981763914  0.181365662197
 CLG16    SOD     1  0.294954293108  0.090610410351
 CLG16     SP     1  0.365268474438  0.280671252536
 CLG16   SR2P     1  0.334612649546  0.200133451797
 CLG16     SS     1  0.365268474438  0.286840588481
 CLG16   TB3P     1  0.300678317372  0.172155203837
 CLG16   TI1P     1  0.341276571958  0.266826378666
 CLG16   TI3P     1  0.243117351193  0.149983415617
 CLG16   TL3P     1  0.246716582015  0.168869889039
 CLG16   TM3P     1  0.289417357575  0.168402751521
 CLG16    U3P     1  0.320830446377  0.182184255566
 CLG16    V2P     1  0.267599247968  0.167830039933
 CLG16    V3P     1  0.223989755715  0.147096016316
 CLG16    Y3P     1  0.295190381269  0.170263611896
 CLG16   YB2P     1  0.312616360195  0.189623385225
 CLG16   YB3P     1  0.284659958420  0.167569069413
 CLG16     ZN     1  0.266378716724  0.209200000000
 CLGA1    CN6     1  0.339432411611  0.245040988571
 CLGA1    CN7     1  0.339432411611  0.245040988571
 CLGA1   CN7B     1  0.339432411611  0.245040988571
 CLGA1   CN7E     1  0.339432411611  0.245040988571
 CLGA1    CN8     1  0.339432411611  0.245040988571
 CLGA1   CN8B     1  0.339432411611  0.245040988571
 CLGA1    CN9     1  0.339432411611  0.245040988571
 CLGA1    CP1     1  0.339432411611  0.245040988571
 CLGA1    CP2     1  0.339432411611  0.245040988571
 CLGA1    CP3     1  0.339432411611  0.245040988571
 CLGA1   CPD1     1  0.339432411611  0.245040988571
 CLGA1   CR33     1  0.339432411611  0.245040988571
 CLGA1   CRL1     1  0.339432411611  0.245040988571
 CLGA1   CRL2     1  0.339432411611  0.245040988571
 CLGA1     CT     1  0.339432411611  0.245040988571
 CLGA1    CT1     1  0.339432411611  0.245040988571
 CLGA1   CT1X     1  0.339432411611  0.245040988571
 CLGA1    CT2     1  0.339432411611  0.245040988571
 CLGA1   CT2A     1  0.339432411611  0.245040988571
 CLGA1   CT2P     1  0.339432411611  0.245040988571
 CLGA1   CT2X     1  0.339432411611  0.245040988571
 CLGA1    CT3     1  0.339432411611  0.245040988571
 CLGA1   CT3X     1  0.339432411611  0.245040988571
 CLGA1   CTD1     1  0.339432411611  0.245040988571
 CLGA1   CTL1     1  0.339432411611  0.245040988571
 CLGA1   CTL2     1  0.339432411611  0.245040988571
 CLGA1   CTL3     1  0.339432411611  0.245040988571
 CLGA1   CTL5     1  0.339432411611  0.245040988571
 CLGA1   CTO1     1  0.339432411611  0.245040988571
 CLGA1   CTO2     1  0.339432411611  0.245040988571
 CLGA1     HP     1  0.291163519063  0.424423442142
 CLGA1      N     1  0.334977918021  0.024504098857
 CLGA1  NC2D1     1  0.308250956477  1.095856615438
 CLGA1  NG2S0     1  0.334977918021  0.024504098857
 CLGA1  NG2S1     1  0.308250956477  1.095856615438
 CLGA1    NH1     1  0.308250956477  1.095856615438
 CLGA1    NHL     1  0.308250956477  1.095856615438
 CLGA1      O     1  0.294887475704  0.848846884285
 CLGA1     OB     1  0.294887475704  0.848846884285
 CLGA1    OBL     1  0.294887475704  0.848846884285
 CLGA1  OC2D1     1  0.294887475704  0.848846884285
 CLGA1  OC2D3     1  0.294887475704  0.848846884285
 CLGA1  OC2D4     1  0.294887475704  0.848846884285
 CLGA1    OCA     1  0.294887475704  0.848846884285
 CLGA1  OG2D1     1  0.294887475704  0.848846884285
 CLGA1  OG2D3     1  0.294887475704  0.848846884285
 CLGA1   OLG1     1  0.294887475704  0.848846884285
 CLGA3    CN6     1  0.339432411611  0.232955260941
 CLGA3    CN7     1  0.339432411611  0.232955260941
 CLGA3   CN7B     1  0.339432411611  0.232955260941
 CLGA3   CN7E     1  0.339432411611  0.232955260941
 CLGA3    CN8     1  0.339432411611  0.232955260941
 CLGA3   CN8B     1  0.339432411611  0.232955260941
 CLGA3    CN9     1  0.339432411611  0.232955260941
 CLGA3    CP1     1  0.339432411611  0.232955260941
 CLGA3    CP2     1  0.339432411611  0.232955260941
 CLGA3    CP3     1  0.339432411611  0.232955260941
 CLGA3   CPD1     1  0.339432411611  0.232955260941
 CLGA3   CR33     1  0.339432411611  0.232955260941
 CLGA3   CRL1     1  0.339432411611  0.232955260941
 CLGA3   CRL2     1  0.339432411611  0.232955260941
 CLGA3     CT     1  0.339432411611  0.232955260941
 CLGA3    CT1     1  0.339432411611  0.232955260941
 CLGA3   CT1X     1  0.339432411611  0.232955260941
 CLGA3    CT2     1  0.339432411611  0.232955260941
 CLGA3   CT2A     1  0.339432411611  0.232955260941
 CLGA3   CT2P     1  0.339432411611  0.232955260941
 CLGA3   CT2X     1  0.339432411611  0.232955260941
 CLGA3    CT3     1  0.339432411611  0.232955260941
 CLGA3   CT3X     1  0.339432411611  0.232955260941
 CLGA3   CTD1     1  0.339432411611  0.232955260941
 CLGA3   CTL1     1  0.339432411611  0.232955260941
 CLGA3   CTL2     1  0.339432411611  0.232955260941
 CLGA3   CTL3     1  0.339432411611  0.232955260941
 CLGA3   CTL5     1  0.339432411611  0.232955260941
 CLGA3   CTO1     1  0.339432411611  0.232955260941
 CLGA3   CTO2     1  0.339432411611  0.232955260941
 CLGA3     HP     1  0.291163519063  0.403490347840
 CLGA3      N     1  0.334977918021  0.023295526094
 CLGA3  NC2D1     1  0.308250956477  1.041807598360
 CLGA3  NG2S0     1  0.334977918021  0.023295526094
 CLGA3  NG2S1     1  0.308250956477  1.041807598360
 CLGA3    NH1     1  0.308250956477  1.041807598360
 CLGA3    NHL     1  0.308250956477  1.041807598360
 CLGA3      O     1  0.294887475704  0.806980695680
 CLGA3     OB     1  0.294887475704  0.806980695680
 CLGA3    OBL     1  0.294887475704  0.806980695680
 CLGA3  OC2D1     1  0.294887475704  0.806980695680
 CLGA3  OC2D3     1  0.294887475704  0.806980695680
 CLGA3  OC2D4     1  0.294887475704  0.806980695680
 CLGA3    OCA     1  0.294887475704  0.806980695680
 CLGA3  OG2D1     1  0.294887475704  0.806980695680
 CLGA3  OG2D3     1  0.294887475704  0.806980695680
 CLGA3   OLG1     1  0.294887475704  0.806980695680
 CLGR1    CN6     1  0.334977918021  0.200657590935
 CLGR1    CN7     1  0.334977918021  0.200657590935
 CLGR1   CN7B     1  0.334977918021  0.200657590935
 CLGR1   CN7E     1  0.334977918021  0.200657590935
 CLGR1    CN8     1  0.334977918021  0.200657590935
 CLGR1   CN8B     1  0.334977918021  0.200657590935
 CLGR1    CN9     1  0.334977918021  0.200657590935
 CLGR1    CP1     1  0.334977918021  0.200657590935
 CLGR1    CP2     1  0.334977918021  0.200657590935
 CLGR1    CP3     1  0.334977918021  0.200657590935
 CLGR1   CPD1     1  0.334977918021  0.200657590935
 CLGR1   CR33     1  0.334977918021  0.200657590935
 CLGR1   CRL1     1  0.334977918021  0.200657590935
 CLGR1   CRL2     1  0.334977918021  0.200657590935
 CLGR1     CT     1  0.334977918021  0.200657590935
 CLGR1    CT1     1  0.334977918021  0.200657590935
 CLGR1   CT1X     1  0.334977918021  0.200657590935
 CLGR1    CT2     1  0.334977918021  0.200657590935
 CLGR1   CT2A     1  0.334977918021  0.200657590935
 CLGR1   CT2P     1  0.334977918021  0.200657590935
 CLGR1   CT2X     1  0.334977918021  0.200657590935
 CLGR1    CT3     1  0.334977918021  0.200657590935
 CLGR1   CT3X     1  0.334977918021  0.200657590935
 CLGR1   CTD1     1  0.334977918021  0.200657590935
 CLGR1   CTL1     1  0.334977918021  0.200657590935
 CLGR1   CTL2     1  0.334977918021  0.200657590935
 CLGR1   CTL3     1  0.334977918021  0.200657590935
 CLGR1   CTL5     1  0.334977918021  0.200657590935
 CLGR1   CTO1     1  0.334977918021  0.200657590935
 CLGR1   CTO2     1  0.334977918021  0.200657590935
 CLGR1   HGP3     1  0.251233438516  0.836800000000
 CLGR1     HP     1  0.286709025472  0.347549142424
 CLGR1     HS     1  0.251233438516  0.836800000000
 CLGR1      N     1  0.330523424430  0.020065759094
 CLGR1    NC2     1  0.311814551349  4.393200000000
 CLGR1  NC2D1     1  0.303796462886  0.897368027066
 CLGR1  NG2P1     1  0.311814551349  4.393200000000
 CLGR1 NG2R50     1  0.304687361604  1.924640000000
 CLGR1 NG2R51     1  0.334087019303  2.008320000000
 CLGR1  NG2S0     1  0.330523424430  0.020065759094
 CLGR1  NG2S1     1  0.345668702638  1.673600000000
 CLGR1  NG2S2     1  0.345668702638  1.673600000000
 CLGR1  NG3P3     1  0.283305792369 15.062400000000
 CLGR1    NH1     1  0.345668702638  1.673600000000
 CLGR1    NH2     1  0.345668702638  1.673600000000
 CLGR1    NH3     1  0.283305792369 15.062400000000
 CLGR1   NH3L     1  0.283305792369 15.062400000000
 CLGR1    NHL     1  0.303796462886  0.897368027066
 CLGR1    NN1     1  0.345668702638  1.673600000000
 CLGR1    NN2     1  0.334087019303  2.008320000000
 CLGR1   NN2G     1  0.334087019303  2.008320000000
 CLGR1   NN2U     1  0.334087019303  2.008320000000
 CLGR1    NN3     1  0.304687361604  1.924640000000
 CLGR1   NN3A     1  0.304687361604  1.924640000000
 CLGR1   NN3G     1  0.304687361604  1.924640000000
 CLGR1    NN4     1  0.304687361604  1.924640000000
 CLGR1    NR1     1  0.334087019303  2.008320000000
 CLGR1    NR2     1  0.304687361604  1.924640000000
 CLGR1     NY     1  0.334087019303  2.008320000000
 CLGR1      O     1  0.302905564168  0.836800000000
 CLGR1     OB     1  0.290432982114  0.695098284849
 CLGR1    OBL     1  0.302905564168  0.836800000000
 CLGR1     OC     1  0.249451641079 10.460000000000
 CLGR1  OC2D1     1  0.302905564168  0.836800000000
 CLGR1  OC2D2     1  0.249451641079 10.460000000000
 CLGR1  OC2D3     1  0.302905564168  0.836800000000
 CLGR1  OC2D4     1  0.302905564168  0.836800000000
 CLGR1    OCA     1  0.290432982114  0.695098284849
 CLGR1    OCL     1  0.249451641079 10.460000000000
 CLGR1  OG2D1     1  0.302905564168  0.836800000000
 CLGR1  OG2D2     1  0.249451641079 10.460000000000
 CLGR1  OG2D3     1  0.290432982114  0.695098284849
 CLGR1   OLG1     1  0.290432982114  0.695098284849
 CLGR1    ON1     1  0.302905564168  0.836800000000
 CLGR1   ON1C     1  0.302905564168  0.836800000000
 CLGR1      S     1  0.341214209048  1.589920000000
 CLGR1  SG311     1  0.341214209048  1.589920000000
    CM    CN6     1  0.356359487256  0.138767581228
    CM    CN7     1  0.356359487256  0.138767581228
    CM   CN7B     1  0.356359487256  0.138767581228
    CM   CN7E     1  0.356359487256  0.138767581228
    CM    CN8     1  0.356359487256  0.138767581228
    CM   CN8B     1  0.356359487256  0.138767581228
    CM    CN9     1  0.356359487256  0.138767581228
    CM    CP1     1  0.356359487256  0.138767581228
    CM    CP2     1  0.356359487256  0.138767581228
    CM    CP3     1  0.356359487256  0.138767581228
    CM   CPD1     1  0.356359487256  0.138767581228
    CM   CR33     1  0.356359487256  0.138767581228
    CM   CRL1     1  0.356359487256  0.138767581228
    CM   CRL2     1  0.356359487256  0.138767581228
    CM     CT     1  0.356359487256  0.138767581228
    CM    CT1     1  0.356359487256  0.138767581228
    CM   CT1X     1  0.356359487256  0.138767581228
    CM    CT2     1  0.356359487256  0.138767581228
    CM   CT2A     1  0.356359487256  0.138767581228
    CM   CT2P     1  0.356359487256  0.138767581228
    CM   CT2X     1  0.356359487256  0.138767581228
    CM    CT3     1  0.356359487256  0.138767581228
    CM   CT3X     1  0.356359487256  0.138767581228
    CM   CTD1     1  0.356359487256  0.138767581228
    CM   CTL1     1  0.356359487256  0.138767581228
    CM   CTL2     1  0.356359487256  0.138767581228
    CM   CTL3     1  0.356359487256  0.138767581228
    CM   CTL5     1  0.356359487256  0.138767581228
    CM   CTO1     1  0.356359487256  0.138767581228
    CM   CTO2     1  0.356359487256  0.138767581228
    CM     HP     1  0.308090594707  0.240352501131
    CM      N     1  0.351904993665  0.013876758123
    CM  NC2D1     1  0.325178032121  0.620587489400
    CM  NG2S0     1  0.351904993665  0.013876758123
    CM  NG2S1     1  0.325178032121  0.620587489400
    CM    NH1     1  0.325178032121  0.620587489400
    CM    NHL     1  0.325178032121  0.620587489400
    CM      O     1  0.311814551349  0.480705002262
    CM     OB     1  0.311814551349  0.480705002262
    CM    OBL     1  0.311814551349  0.480705002262
    CM  OC2D1     1  0.311814551349  0.480705002262
    CM  OC2D3     1  0.311814551349  0.480705002262
    CM  OC2D4     1  0.311814551349  0.480705002262
    CM    OCA     1  0.311814551349  0.480705002262
    CM  OG2D1     1  0.311814551349  0.480705002262
    CM  OG2D3     1  0.311814551349  0.480705002262
    CM   OLG1     1  0.311814551349  0.480705002262
    CN    CN6     1  0.325178032121  0.187114168357
    CN    CN7     1  0.325178032121  0.187114168357
    CN   CN7B     1  0.325178032121  0.187114168357
    CN   CN7E     1  0.325178032121  0.187114168357
    CN    CN8     1  0.325178032121  0.187114168357
    CN   CN8B     1  0.325178032121  0.187114168357
    CN    CN9     1  0.325178032121  0.187114168357
    CN    CP1     1  0.325178032121  0.187114168357
    CN    CP2     1  0.325178032121  0.187114168357
    CN    CP3     1  0.325178032121  0.187114168357
    CN   CPD1     1  0.325178032121  0.187114168357
    CN   CR33     1  0.325178032121  0.187114168357
    CN   CRL1     1  0.325178032121  0.187114168357
    CN   CRL2     1  0.325178032121  0.187114168357
    CN     CT     1  0.325178032121  0.187114168357
    CN    CT1     1  0.325178032121  0.187114168357
    CN   CT1X     1  0.325178032121  0.187114168357
    CN    CT2     1  0.325178032121  0.187114168357
    CN   CT2A     1  0.325178032121  0.187114168357
    CN   CT2P     1  0.325178032121  0.187114168357
    CN   CT2X     1  0.325178032121  0.187114168357
    CN    CT3     1  0.325178032121  0.187114168357
    CN   CT3X     1  0.325178032121  0.187114168357
    CN   CTD1     1  0.325178032121  0.187114168357
    CN   CTL1     1  0.325178032121  0.187114168357
    CN   CTL2     1  0.325178032121  0.187114168357
    CN   CTL3     1  0.325178032121  0.187114168357
    CN   CTL5     1  0.325178032121  0.187114168357
    CN   CTO1     1  0.325178032121  0.187114168357
    CN   CTO2     1  0.325178032121  0.187114168357
    CN     HP     1  0.276909139572  0.324091246411
    CN      N     1  0.320723538531  0.018711416836
    CN  NC2D1     1  0.293996576986  0.836800000000
    CN  NG2S0     1  0.320723538531  0.018711416836
    CN  NG2S1     1  0.293996576986  0.836800000000
    CN    NH1     1  0.293996576986  0.836800000000
    CN    NHL     1  0.293996576986  0.836800000000
    CN      O     1  0.280633096214  0.648182492821
    CN     OB     1  0.280633096214  0.648182492821
    CN    OBL     1  0.280633096214  0.648182492821
    CN  OC2D1     1  0.280633096214  0.648182492821
    CN  OC2D3     1  0.280633096214  0.648182492821
    CN  OC2D4     1  0.280633096214  0.648182492821
    CN    OCA     1  0.280633096214  0.648182492821
    CN  OG2D1     1  0.280633096214  0.648182492821
    CN  OG2D3     1  0.280633096214  0.648182492821
    CN   OLG1     1  0.280633096214  0.648182492821
   CN1    CN6     1  0.338541512893  0.132309697301
   CN1    CN7     1  0.338541512893  0.132309697301
   CN1   CN7B     1  0.338541512893  0.132309697301
   CN1   CN7E     1  0.338541512893  0.132309697301
   CN1    CN8     1  0.338541512893  0.132309697301
   CN1   CN8B     1  0.338541512893  0.132309697301
   CN1    CN9     1  0.338541512893  0.132309697301
   CN1    CP1     1  0.338541512893  0.132309697301
   CN1    CP2     1  0.338541512893  0.132309697301
   CN1    CP3     1  0.338541512893  0.132309697301
   CN1   CPD1     1  0.338541512893  0.132309697301
   CN1   CR33     1  0.338541512893  0.132309697301
   CN1   CRL1     1  0.338541512893  0.132309697301
   CN1   CRL2     1  0.338541512893  0.132309697301
   CN1     CT     1  0.338541512893  0.132309697301
   CN1    CT1     1  0.338541512893  0.132309697301
   CN1   CT1X     1  0.338541512893  0.132309697301
   CN1    CT2     1  0.338541512893  0.132309697301
   CN1   CT2A     1  0.338541512893  0.132309697301
   CN1   CT2P     1  0.338541512893  0.132309697301
   CN1   CT2X     1  0.338541512893  0.132309697301
   CN1    CT3     1  0.338541512893  0.132309697301
   CN1   CT3X     1  0.338541512893  0.132309697301
   CN1   CTD1     1  0.338541512893  0.132309697301
   CN1   CTL1     1  0.338541512893  0.132309697301
   CN1   CTL2     1  0.338541512893  0.132309697301
   CN1   CTL3     1  0.338541512893  0.132309697301
   CN1   CTL5     1  0.338541512893  0.132309697301
   CN1   CTO1     1  0.338541512893  0.132309697301
   CN1   CTO2     1  0.338541512893  0.132309697301
   CN1     HP     1  0.290272620344  0.229167118060
   CN1      N     1  0.334087019303  0.013230969730
   CN1  NC2D1     1  0.307360057758  0.591706954497
   CN1  NG2S0     1  0.334087019303  0.013230969730
   CN1  NG2S1     1  0.307360057758  0.591706954497
   CN1    NH1     1  0.307360057758  0.591706954497
   CN1    NHL     1  0.307360057758  0.591706954497
   CN1      O     1  0.293996576986  0.458334236120
   CN1     OB     1  0.293996576986  0.458334236120
   CN1    OBL     1  0.293996576986  0.458334236120
   CN1  OC2D1     1  0.293996576986  0.458334236120
   CN1  OC2D3     1  0.293996576986  0.458334236120
   CN1  OC2D4     1  0.293996576986  0.458334236120
   CN1    OCA     1  0.293996576986  0.458334236120
   CN1  OG2D1     1  0.293996576986  0.458334236120
   CN1  OG2D3     1  0.293996576986  0.458334236120
   CN1   OLG1     1  0.293996576986  0.458334236120
  CN1A    CN6     1  0.347450500075  0.110698234855
  CN1A    CN7     1  0.347450500075  0.110698234855
  CN1A   CN7B     1  0.347450500075  0.110698234855
  CN1A   CN7E     1  0.347450500075  0.110698234855
  CN1A    CN8     1  0.347450500075  0.110698234855
  CN1A   CN8B     1  0.347450500075  0.110698234855
  CN1A    CN9     1  0.347450500075  0.110698234855
  CN1A    CP1     1  0.347450500075  0.110698234855
  CN1A    CP2     1  0.347450500075  0.110698234855
  CN1A    CP3     1  0.347450500075  0.110698234855
  CN1A   CPD1     1  0.347450500075  0.110698234855
  CN1A   CR33     1  0.347450500075  0.110698234855
  CN1A   CRL1     1  0.347450500075  0.110698234855
  CN1A   CRL2     1  0.347450500075  0.110698234855
  CN1A     CT     1  0.347450500075  0.110698234855
  CN1A    CT1     1  0.347450500075  0.110698234855
  CN1A   CT1X     1  0.347450500075  0.110698234855
  CN1A    CT2     1  0.347450500075  0.110698234855
  CN1A   CT2A     1  0.347450500075  0.110698234855
  CN1A   CT2P     1  0.347450500075  0.110698234855
  CN1A   CT2X     1  0.347450500075  0.110698234855
  CN1A    CT3     1  0.347450500075  0.110698234855
  CN1A   CT3X     1  0.347450500075  0.110698234855
  CN1A   CTD1     1  0.347450500075  0.110698234855
  CN1A   CTL1     1  0.347450500075  0.110698234855
  CN1A   CTL2     1  0.347450500075  0.110698234855
  CN1A   CTL3     1  0.347450500075  0.110698234855
  CN1A   CTL5     1  0.347450500075  0.110698234855
  CN1A   CTO1     1  0.347450500075  0.110698234855
  CN1A   CTO2     1  0.347450500075  0.110698234855
  CN1A     HP     1  0.299181607526  0.191734967077
  CN1A      N     1  0.342996006484  0.011069823485
  CN1A  NC2D1     1  0.316269044940  0.495057556250
  CN1A  NG2S0     1  0.342996006484  0.011069823485
  CN1A  NG2S1     1  0.316269044940  0.495057556250
  CN1A    NH1     1  0.316269044940  0.495057556250
  CN1A    NHL     1  0.316269044940  0.495057556250
  CN1A      O     1  0.302905564168  0.383469934154
  CN1A     OB     1  0.302905564168  0.383469934154
  CN1A    OBL     1  0.302905564168  0.383469934154
  CN1A  OC2D1     1  0.302905564168  0.383469934154
  CN1A  OC2D3     1  0.302905564168  0.383469934154
  CN1A  OC2D4     1  0.302905564168  0.383469934154
  CN1A    OCA     1  0.302905564168  0.383469934154
  CN1A  OG2D1     1  0.302905564168  0.383469934154
  CN1A  OG2D3     1  0.302905564168  0.383469934154
  CN1A   OLG1     1  0.302905564168  0.383469934154
  CN1T    CN6     1  0.338541512893  0.132309697301
  CN1T    CN7     1  0.338541512893  0.132309697301
  CN1T   CN7B     1  0.338541512893  0.132309697301
  CN1T   CN7E     1  0.338541512893  0.132309697301
  CN1T    CN8     1  0.338541512893  0.132309697301
  CN1T   CN8B     1  0.338541512893  0.132309697301
  CN1T    CN9     1  0.338541512893  0.132309697301
  CN1T    CP1     1  0.338541512893  0.132309697301
  CN1T    CP2     1  0.338541512893  0.132309697301
  CN1T    CP3     1  0.338541512893  0.132309697301
  CN1T   CPD1     1  0.338541512893  0.132309697301
  CN1T   CR33     1  0.338541512893  0.132309697301
  CN1T   CRL1     1  0.338541512893  0.132309697301
  CN1T   CRL2     1  0.338541512893  0.132309697301
  CN1T     CT     1  0.338541512893  0.132309697301
  CN1T    CT1     1  0.338541512893  0.132309697301
  CN1T   CT1X     1  0.338541512893  0.132309697301
  CN1T    CT2     1  0.338541512893  0.132309697301
  CN1T   CT2A     1  0.338541512893  0.132309697301
  CN1T   CT2P     1  0.338541512893  0.132309697301
  CN1T   CT2X     1  0.338541512893  0.132309697301
  CN1T    CT3     1  0.338541512893  0.132309697301
  CN1T   CT3X     1  0.338541512893  0.132309697301
  CN1T   CTD1     1  0.338541512893  0.132309697301
  CN1T   CTL1     1  0.338541512893  0.132309697301
  CN1T   CTL2     1  0.338541512893  0.132309697301
  CN1T   CTL3     1  0.338541512893  0.132309697301
  CN1T   CTL5     1  0.338541512893  0.132309697301
  CN1T   CTO1     1  0.338541512893  0.132309697301
  CN1T   CTO2     1  0.338541512893  0.132309697301
  CN1T     HP     1  0.290272620344  0.229167118060
  CN1T      N     1  0.334087019303  0.013230969730
  CN1T  NC2D1     1  0.307360057758  0.591706954497
  CN1T  NG2S0     1  0.334087019303  0.013230969730
  CN1T  NG2S1     1  0.307360057758  0.591706954497
  CN1T    NH1     1  0.307360057758  0.591706954497
  CN1T    NHL     1  0.307360057758  0.591706954497
  CN1T      O     1  0.293996576986  0.458334236120
  CN1T     OB     1  0.293996576986  0.458334236120
  CN1T    OBL     1  0.293996576986  0.458334236120
  CN1T  OC2D1     1  0.293996576986  0.458334236120
  CN1T  OC2D3     1  0.293996576986  0.458334236120
  CN1T  OC2D4     1  0.293996576986  0.458334236120
  CN1T    OCA     1  0.293996576986  0.458334236120
  CN1T  OG2D1     1  0.293996576986  0.458334236120
  CN1T  OG2D3     1  0.293996576986  0.458334236120
  CN1T   OLG1     1  0.293996576986  0.458334236120
   CN2    CN6     1  0.338541512893  0.132309697301
   CN2    CN7     1  0.338541512893  0.132309697301
   CN2   CN7B     1  0.338541512893  0.132309697301
   CN2   CN7E     1  0.338541512893  0.132309697301
   CN2    CN8     1  0.338541512893  0.132309697301
   CN2   CN8B     1  0.338541512893  0.132309697301
   CN2    CN9     1  0.338541512893  0.132309697301
   CN2    CP1     1  0.338541512893  0.132309697301
   CN2    CP2     1  0.338541512893  0.132309697301
   CN2    CP3     1  0.338541512893  0.132309697301
   CN2   CPD1     1  0.338541512893  0.132309697301
   CN2   CR33     1  0.338541512893  0.132309697301
   CN2   CRL1     1  0.338541512893  0.132309697301
   CN2   CRL2     1  0.338541512893  0.132309697301
   CN2     CT     1  0.338541512893  0.132309697301
   CN2    CT1     1  0.338541512893  0.132309697301
   CN2   CT1X     1  0.338541512893  0.132309697301
   CN2    CT2     1  0.338541512893  0.132309697301
   CN2   CT2A     1  0.338541512893  0.132309697301
   CN2   CT2P     1  0.338541512893  0.132309697301
   CN2   CT2X     1  0.338541512893  0.132309697301
   CN2    CT3     1  0.338541512893  0.132309697301
   CN2   CT3X     1  0.338541512893  0.132309697301
   CN2   CTD1     1  0.338541512893  0.132309697301
   CN2   CTL1     1  0.338541512893  0.132309697301
   CN2   CTL2     1  0.338541512893  0.132309697301
   CN2   CTL3     1  0.338541512893  0.132309697301
   CN2   CTL5     1  0.338541512893  0.132309697301
   CN2   CTO1     1  0.338541512893  0.132309697301
   CN2   CTO2     1  0.338541512893  0.132309697301
   CN2     HP     1  0.290272620344  0.229167118060
   CN2      N     1  0.334087019303  0.013230969730
   CN2  NC2D1     1  0.307360057758  0.591706954497
   CN2  NG2S0     1  0.334087019303  0.013230969730
   CN2  NG2S1     1  0.307360057758  0.591706954497
   CN2    NH1     1  0.307360057758  0.591706954497
   CN2    NHL     1  0.307360057758  0.591706954497
   CN2      O     1  0.293996576986  0.458334236120
   CN2     OB     1  0.293996576986  0.458334236120
   CN2    OBL     1  0.293996576986  0.458334236120
   CN2  OC2D1     1  0.293996576986  0.458334236120
   CN2  OC2D3     1  0.293996576986  0.458334236120
   CN2  OC2D4     1  0.293996576986  0.458334236120
   CN2    OCA     1  0.293996576986  0.458334236120
   CN2  OG2D1     1  0.293996576986  0.458334236120
   CN2  OG2D3     1  0.293996576986  0.458334236120
   CN2   OLG1     1  0.293996576986  0.458334236120
   CN3    CN6     1  0.338541512893  0.125520000000
   CN3    CN7     1  0.338541512893  0.125520000000
   CN3   CN7B     1  0.338541512893  0.125520000000
   CN3   CN7E     1  0.338541512893  0.125520000000
   CN3    CN8     1  0.338541512893  0.125520000000
   CN3   CN8B     1  0.338541512893  0.125520000000
   CN3    CN9     1  0.338541512893  0.125520000000
   CN3    CP1     1  0.338541512893  0.125520000000
   CN3    CP2     1  0.338541512893  0.125520000000
   CN3    CP3     1  0.338541512893  0.125520000000
   CN3   CPD1     1  0.338541512893  0.125520000000
   CN3   CR33     1  0.338541512893  0.125520000000
   CN3   CRL1     1  0.338541512893  0.125520000000
   CN3   CRL2     1  0.338541512893  0.125520000000
   CN3     CT     1  0.338541512893  0.125520000000
   CN3    CT1     1  0.338541512893  0.125520000000
   CN3   CT1X     1  0.338541512893  0.125520000000
   CN3    CT2     1  0.338541512893  0.125520000000
   CN3   CT2A     1  0.338541512893  0.125520000000
   CN3   CT2P     1  0.338541512893  0.125520000000
   CN3   CT2X     1  0.338541512893  0.125520000000
   CN3    CT3     1  0.338541512893  0.125520000000
   CN3   CT3X     1  0.338541512893  0.125520000000
   CN3   CTD1     1  0.338541512893  0.125520000000
   CN3   CTL1     1  0.338541512893  0.125520000000
   CN3   CTL2     1  0.338541512893  0.125520000000
   CN3   CTL3     1  0.338541512893  0.125520000000
   CN3   CTL5     1  0.338541512893  0.125520000000
   CN3   CTO1     1  0.338541512893  0.125520000000
   CN3   CTO2     1  0.338541512893  0.125520000000
   CN3     HP     1  0.290272620344  0.217407017366
   CN3      N     1  0.334087019303  0.012552000000
   CN3  NC2D1     1  0.307360057758  0.561342505072
   CN3  NG2S0     1  0.334087019303  0.012552000000
   CN3  NG2S1     1  0.307360057758  0.561342505072
   CN3    NH1     1  0.307360057758  0.561342505072
   CN3    NHL     1  0.307360057758  0.561342505072
   CN3      O     1  0.293996576986  0.434814034732
   CN3     OB     1  0.293996576986  0.434814034732
   CN3    OBL     1  0.293996576986  0.434814034732
   CN3  OC2D1     1  0.293996576986  0.434814034732
   CN3  OC2D3     1  0.293996576986  0.434814034732
   CN3  OC2D4     1  0.293996576986  0.434814034732
   CN3    OCA     1  0.293996576986  0.434814034732
   CN3  OG2D1     1  0.293996576986  0.434814034732
   CN3  OG2D3     1  0.293996576986  0.434814034732
   CN3   OLG1     1  0.293996576986  0.434814034732
  CN3A    CN6     1  0.329632525712  0.177512086349
  CN3A    CN7     1  0.329632525712  0.177512086349
  CN3A   CN7B     1  0.329632525712  0.177512086349
  CN3A   CN7E     1  0.329632525712  0.177512086349
  CN3A    CN8     1  0.329632525712  0.177512086349
  CN3A   CN8B     1  0.329632525712  0.177512086349
  CN3A    CN9     1  0.329632525712  0.177512086349
  CN3A    CP1     1  0.329632525712  0.177512086349
  CN3A    CP2     1  0.329632525712  0.177512086349
  CN3A    CP3     1  0.329632525712  0.177512086349
  CN3A   CPD1     1  0.329632525712  0.177512086349
  CN3A   CR33     1  0.329632525712  0.177512086349
  CN3A   CRL1     1  0.329632525712  0.177512086349
  CN3A   CRL2     1  0.329632525712  0.177512086349
  CN3A     CT     1  0.329632525712  0.177512086349
  CN3A    CT1     1  0.329632525712  0.177512086349
  CN3A   CT1X     1  0.329632525712  0.177512086349
  CN3A    CT2     1  0.329632525712  0.177512086349
  CN3A   CT2A     1  0.329632525712  0.177512086349
  CN3A   CT2P     1  0.329632525712  0.177512086349
  CN3A   CT2X     1  0.329632525712  0.177512086349
  CN3A    CT3     1  0.329632525712  0.177512086349
  CN3A   CT3X     1  0.329632525712  0.177512086349
  CN3A   CTD1     1  0.329632525712  0.177512086349
  CN3A   CTL1     1  0.329632525712  0.177512086349
  CN3A   CTL2     1  0.329632525712  0.177512086349
  CN3A   CTL3     1  0.329632525712  0.177512086349
  CN3A   CTL5     1  0.329632525712  0.177512086349
  CN3A   CTO1     1  0.329632525712  0.177512086349
  CN3A   CTO2     1  0.329632525712  0.177512086349
  CN3A     HP     1  0.281363633163  0.307459952514
  CN3A      N     1  0.325178032121  0.017751208635
  CN3A  NC2D1     1  0.298451070577  0.793858183809
  CN3A  NG2S0     1  0.325178032121  0.017751208635
  CN3A  NG2S1     1  0.298451070577  0.793858183809
  CN3A    NH1     1  0.298451070577  0.793858183809
  CN3A    NHL     1  0.298451070577  0.793858183809
  CN3A      O     1  0.285087589805  0.614919905028
  CN3A     OB     1  0.285087589805  0.614919905028
  CN3A    OBL     1  0.285087589805  0.614919905028
  CN3A  OC2D1     1  0.285087589805  0.614919905028
  CN3A  OC2D3     1  0.285087589805  0.614919905028
  CN3A  OC2D4     1  0.285087589805  0.614919905028
  CN3A    OCA     1  0.285087589805  0.614919905028
  CN3A  OG2D1     1  0.285087589805  0.614919905028
  CN3A  OG2D3     1  0.285087589805  0.614919905028
  CN3A   OLG1     1  0.285087589805  0.614919905028
  CN3B    CN6     1  0.329632525712  0.177512086349
  CN3B    CN7     1  0.329632525712  0.177512086349
  CN3B   CN7B     1  0.329632525712  0.177512086349
  CN3B   CN7E     1  0.329632525712  0.177512086349
  CN3B    CN8     1  0.329632525712  0.177512086349
  CN3B   CN8B     1  0.329632525712  0.177512086349
  CN3B    CN9     1  0.329632525712  0.177512086349
  CN3B    CP1     1  0.329632525712  0.177512086349
  CN3B    CP2     1  0.329632525712  0.177512086349
  CN3B    CP3     1  0.329632525712  0.177512086349
  CN3B   CPD1     1  0.329632525712  0.177512086349
  CN3B   CR33     1  0.329632525712  0.177512086349
  CN3B   CRL1     1  0.329632525712  0.177512086349
  CN3B   CRL2     1  0.329632525712  0.177512086349
  CN3B     CT     1  0.329632525712  0.177512086349
  CN3B    CT1     1  0.329632525712  0.177512086349
  CN3B   CT1X     1  0.329632525712  0.177512086349
  CN3B    CT2     1  0.329632525712  0.177512086349
  CN3B   CT2A     1  0.329632525712  0.177512086349
  CN3B   CT2P     1  0.329632525712  0.177512086349
  CN3B   CT2X     1  0.329632525712  0.177512086349
  CN3B    CT3     1  0.329632525712  0.177512086349
  CN3B   CT3X     1  0.329632525712  0.177512086349
  CN3B   CTD1     1  0.329632525712  0.177512086349
  CN3B   CTL1     1  0.329632525712  0.177512086349
  CN3B   CTL2     1  0.329632525712  0.177512086349
  CN3B   CTL3     1  0.329632525712  0.177512086349
  CN3B   CTL5     1  0.329632525712  0.177512086349
  CN3B   CTO1     1  0.329632525712  0.177512086349
  CN3B   CTO2     1  0.329632525712  0.177512086349
  CN3B     HP     1  0.281363633163  0.307459952514
  CN3B      N     1  0.325178032121  0.017751208635
  CN3B  NC2D1     1  0.298451070577  0.793858183809
  CN3B  NG2S0     1  0.325178032121  0.017751208635
  CN3B  NG2S1     1  0.298451070577  0.793858183809
  CN3B    NH1     1  0.298451070577  0.793858183809
  CN3B    NHL     1  0.298451070577  0.793858183809
  CN3B      O     1  0.285087589805  0.614919905028
  CN3B     OB     1  0.285087589805  0.614919905028
  CN3B    OBL     1  0.285087589805  0.614919905028
  CN3B  OC2D1     1  0.285087589805  0.614919905028
  CN3B  OC2D3     1  0.285087589805  0.614919905028
  CN3B  OC2D4     1  0.285087589805  0.614919905028
  CN3B    OCA     1  0.285087589805  0.614919905028
  CN3B  OG2D1     1  0.285087589805  0.614919905028
  CN3B  OG2D3     1  0.285087589805  0.614919905028
  CN3B   OLG1     1  0.285087589805  0.614919905028
  CN3C    CN6     1  0.329632525712  0.177512086349
  CN3C    CN7     1  0.329632525712  0.177512086349
  CN3C   CN7B     1  0.329632525712  0.177512086349
  CN3C   CN7E     1  0.329632525712  0.177512086349
  CN3C    CN8     1  0.329632525712  0.177512086349
  CN3C   CN8B     1  0.329632525712  0.177512086349
  CN3C    CN9     1  0.329632525712  0.177512086349
  CN3C    CP1     1  0.329632525712  0.177512086349
  CN3C    CP2     1  0.329632525712  0.177512086349
  CN3C    CP3     1  0.329632525712  0.177512086349
  CN3C   CPD1     1  0.329632525712  0.177512086349
  CN3C   CR33     1  0.329632525712  0.177512086349
  CN3C   CRL1     1  0.329632525712  0.177512086349
  CN3C   CRL2     1  0.329632525712  0.177512086349
  CN3C     CT     1  0.329632525712  0.177512086349
  CN3C    CT1     1  0.329632525712  0.177512086349
  CN3C   CT1X     1  0.329632525712  0.177512086349
  CN3C    CT2     1  0.329632525712  0.177512086349
  CN3C   CT2A     1  0.329632525712  0.177512086349
  CN3C   CT2P     1  0.329632525712  0.177512086349
  CN3C   CT2X     1  0.329632525712  0.177512086349
  CN3C    CT3     1  0.329632525712  0.177512086349
  CN3C   CT3X     1  0.329632525712  0.177512086349
  CN3C   CTD1     1  0.329632525712  0.177512086349
  CN3C   CTL1     1  0.329632525712  0.177512086349
  CN3C   CTL2     1  0.329632525712  0.177512086349
  CN3C   CTL3     1  0.329632525712  0.177512086349
  CN3C   CTL5     1  0.329632525712  0.177512086349
  CN3C   CTO1     1  0.329632525712  0.177512086349
  CN3C   CTO2     1  0.329632525712  0.177512086349
  CN3C     HP     1  0.281363633163  0.307459952514
  CN3C      N     1  0.325178032121  0.017751208635
  CN3C  NC2D1     1  0.298451070577  0.793858183809
  CN3C  NG2S0     1  0.325178032121  0.017751208635
  CN3C  NG2S1     1  0.298451070577  0.793858183809
  CN3C    NH1     1  0.298451070577  0.793858183809
  CN3C    NHL     1  0.298451070577  0.793858183809
  CN3C      O     1  0.285087589805  0.614919905028
  CN3C     OB     1  0.285087589805  0.614919905028
  CN3C    OBL     1  0.285087589805  0.614919905028
  CN3C  OC2D1     1  0.285087589805  0.614919905028
  CN3C  OC2D3     1  0.285087589805  0.614919905028
  CN3C  OC2D4     1  0.285087589805  0.614919905028
  CN3C    OCA     1  0.285087589805  0.614919905028
  CN3C  OG2D1     1  0.285087589805  0.614919905028
  CN3C  OG2D3     1  0.285087589805  0.614919905028
  CN3C   OLG1     1  0.285087589805  0.614919905028
  CN3D    CN6     1  0.338541512893  0.125520000000
  CN3D    CN7     1  0.338541512893  0.125520000000
  CN3D   CN7B     1  0.338541512893  0.125520000000
  CN3D   CN7E     1  0.338541512893  0.125520000000
  CN3D    CN8     1  0.338541512893  0.125520000000
  CN3D   CN8B     1  0.338541512893  0.125520000000
  CN3D    CN9     1  0.338541512893  0.125520000000
  CN3D    CP1     1  0.338541512893  0.125520000000
  CN3D    CP2     1  0.338541512893  0.125520000000
  CN3D    CP3     1  0.338541512893  0.125520000000
  CN3D   CPD1     1  0.338541512893  0.125520000000
  CN3D   CR33     1  0.338541512893  0.125520000000
  CN3D   CRL1     1  0.338541512893  0.125520000000
  CN3D   CRL2     1  0.338541512893  0.125520000000
  CN3D     CT     1  0.338541512893  0.125520000000
  CN3D    CT1     1  0.338541512893  0.125520000000
  CN3D   CT1X     1  0.338541512893  0.125520000000
  CN3D    CT2     1  0.338541512893  0.125520000000
  CN3D   CT2A     1  0.338541512893  0.125520000000
  CN3D   CT2P     1  0.338541512893  0.125520000000
  CN3D   CT2X     1  0.338541512893  0.125520000000
  CN3D    CT3     1  0.338541512893  0.125520000000
  CN3D   CT3X     1  0.338541512893  0.125520000000
  CN3D   CTD1     1  0.338541512893  0.125520000000
  CN3D   CTL1     1  0.338541512893  0.125520000000
  CN3D   CTL2     1  0.338541512893  0.125520000000
  CN3D   CTL3     1  0.338541512893  0.125520000000
  CN3D   CTL5     1  0.338541512893  0.125520000000
  CN3D   CTO1     1  0.338541512893  0.125520000000
  CN3D   CTO2     1  0.338541512893  0.125520000000
  CN3D     HP     1  0.290272620344  0.217407017366
  CN3D      N     1  0.334087019303  0.012552000000
  CN3D  NC2D1     1  0.307360057758  0.561342505072
  CN3D  NG2S0     1  0.334087019303  0.012552000000
  CN3D  NG2S1     1  0.307360057758  0.561342505072
  CN3D    NH1     1  0.307360057758  0.561342505072
  CN3D    NHL     1  0.307360057758  0.561342505072
  CN3D      O     1  0.293996576986  0.434814034732
  CN3D     OB     1  0.293996576986  0.434814034732
  CN3D    OBL     1  0.293996576986  0.434814034732
  CN3D  OC2D1     1  0.293996576986  0.434814034732
  CN3D  OC2D3     1  0.293996576986  0.434814034732
  CN3D  OC2D4     1  0.293996576986  0.434814034732
  CN3D    OCA     1  0.293996576986  0.434814034732
  CN3D  OG2D1     1  0.293996576986  0.434814034732
  CN3D  OG2D3     1  0.293996576986  0.434814034732
  CN3D   OLG1     1  0.293996576986  0.434814034732
  CN3T    CN6     1  0.338541512893  0.125520000000
  CN3T    CN7     1  0.338541512893  0.125520000000
  CN3T   CN7B     1  0.338541512893  0.125520000000
  CN3T   CN7E     1  0.338541512893  0.125520000000
  CN3T    CN8     1  0.338541512893  0.125520000000
  CN3T   CN8B     1  0.338541512893  0.125520000000
  CN3T    CN9     1  0.338541512893  0.125520000000
  CN3T    CP1     1  0.338541512893  0.125520000000
  CN3T    CP2     1  0.338541512893  0.125520000000
  CN3T    CP3     1  0.338541512893  0.125520000000
  CN3T   CPD1     1  0.338541512893  0.125520000000
  CN3T   CR33     1  0.338541512893  0.125520000000
  CN3T   CRL1     1  0.338541512893  0.125520000000
  CN3T   CRL2     1  0.338541512893  0.125520000000
  CN3T     CT     1  0.338541512893  0.125520000000
  CN3T    CT1     1  0.338541512893  0.125520000000
  CN3T   CT1X     1  0.338541512893  0.125520000000
  CN3T    CT2     1  0.338541512893  0.125520000000
  CN3T   CT2A     1  0.338541512893  0.125520000000
  CN3T   CT2P     1  0.338541512893  0.125520000000
  CN3T   CT2X     1  0.338541512893  0.125520000000
  CN3T    CT3     1  0.338541512893  0.125520000000
  CN3T   CT3X     1  0.338541512893  0.125520000000
  CN3T   CTD1     1  0.338541512893  0.125520000000
  CN3T   CTL1     1  0.338541512893  0.125520000000
  CN3T   CTL2     1  0.338541512893  0.125520000000
  CN3T   CTL3     1  0.338541512893  0.125520000000
  CN3T   CTL5     1  0.338541512893  0.125520000000
  CN3T   CTO1     1  0.338541512893  0.125520000000
  CN3T   CTO2     1  0.338541512893  0.125520000000
  CN3T     HP     1  0.290272620344  0.217407017366
  CN3T      N     1  0.334087019303  0.012552000000
  CN3T  NC2D1     1  0.307360057758  0.561342505072
  CN3T  NG2S0     1  0.334087019303  0.012552000000
  CN3T  NG2S1     1  0.307360057758  0.561342505072
  CN3T    NH1     1  0.307360057758  0.561342505072
  CN3T    NHL     1  0.307360057758  0.561342505072
  CN3T      O     1  0.293996576986  0.434814034732
  CN3T     OB     1  0.293996576986  0.434814034732
  CN3T    OBL     1  0.293996576986  0.434814034732
  CN3T  OC2D1     1  0.293996576986  0.434814034732
  CN3T  OC2D3     1  0.293996576986  0.434814034732
  CN3T  OC2D4     1  0.293996576986  0.434814034732
  CN3T    OCA     1  0.293996576986  0.434814034732
  CN3T  OG2D1     1  0.293996576986  0.434814034732
  CN3T  OG2D3     1  0.293996576986  0.434814034732
  CN3T   OLG1     1  0.293996576986  0.434814034732
   CN4    CN6     1  0.338541512893  0.114583559030
   CN4    CN7     1  0.338541512893  0.114583559030
   CN4   CN7B     1  0.338541512893  0.114583559030
   CN4   CN7E     1  0.338541512893  0.114583559030
   CN4    CN8     1  0.338541512893  0.114583559030
   CN4   CN8B     1  0.338541512893  0.114583559030
   CN4    CN9     1  0.338541512893  0.114583559030
   CN4    CP1     1  0.338541512893  0.114583559030
   CN4    CP2     1  0.338541512893  0.114583559030
   CN4    CP3     1  0.338541512893  0.114583559030
   CN4   CPD1     1  0.338541512893  0.114583559030
   CN4   CR33     1  0.338541512893  0.114583559030
   CN4   CRL1     1  0.338541512893  0.114583559030
   CN4   CRL2     1  0.338541512893  0.114583559030
   CN4     CT     1  0.338541512893  0.114583559030
   CN4    CT1     1  0.338541512893  0.114583559030
   CN4   CT1X     1  0.338541512893  0.114583559030
   CN4    CT2     1  0.338541512893  0.114583559030
   CN4   CT2A     1  0.338541512893  0.114583559030
   CN4   CT2P     1  0.338541512893  0.114583559030
   CN4   CT2X     1  0.338541512893  0.114583559030
   CN4    CT3     1  0.338541512893  0.114583559030
   CN4   CT3X     1  0.338541512893  0.114583559030
   CN4   CTD1     1  0.338541512893  0.114583559030
   CN4   CTL1     1  0.338541512893  0.114583559030
   CN4   CTL2     1  0.338541512893  0.114583559030
   CN4   CTL3     1  0.338541512893  0.114583559030
   CN4   CTL5     1  0.338541512893  0.114583559030
   CN4   CTO1     1  0.338541512893  0.114583559030
   CN4   CTO2     1  0.338541512893  0.114583559030
   CN4     HP     1  0.290272620344  0.198464545952
   CN4      N     1  0.334087019303  0.011458355903
   CN4  NC2D1     1  0.307360057758  0.512433254190
   CN4  NG2S0     1  0.334087019303  0.011458355903
   CN4  NG2S1     1  0.307360057758  0.512433254190
   CN4    NH1     1  0.307360057758  0.512433254190
   CN4    NHL     1  0.307360057758  0.512433254190
   CN4      O     1  0.293996576986  0.396929091904
   CN4     OB     1  0.293996576986  0.396929091904
   CN4    OBL     1  0.293996576986  0.396929091904
   CN4  OC2D1     1  0.293996576986  0.396929091904
   CN4  OC2D3     1  0.293996576986  0.396929091904
   CN4  OC2D4     1  0.293996576986  0.396929091904
   CN4    OCA     1  0.293996576986  0.396929091904
   CN4  OG2D1     1  0.293996576986  0.396929091904
   CN4  OG2D3     1  0.293996576986  0.396929091904
   CN4   OLG1     1  0.293996576986  0.396929091904
   CN5    CN6     1  0.338541512893  0.114583559030
   CN5    CN7     1  0.338541512893  0.114583559030
   CN5   CN7B     1  0.338541512893  0.114583559030
   CN5   CN7E     1  0.338541512893  0.114583559030
   CN5    CN8     1  0.338541512893  0.114583559030
   CN5   CN8B     1  0.338541512893  0.114583559030
   CN5    CN9     1  0.338541512893  0.114583559030
   CN5    CP1     1  0.338541512893  0.114583559030
   CN5    CP2     1  0.338541512893  0.114583559030
   CN5    CP3     1  0.338541512893  0.114583559030
   CN5   CPD1     1  0.338541512893  0.114583559030
   CN5   CR33     1  0.338541512893  0.114583559030
   CN5   CRL1     1  0.338541512893  0.114583559030
   CN5   CRL2     1  0.338541512893  0.114583559030
   CN5     CT     1  0.338541512893  0.114583559030
   CN5    CT1     1  0.338541512893  0.114583559030
   CN5   CT1X     1  0.338541512893  0.114583559030
   CN5    CT2     1  0.338541512893  0.114583559030
   CN5   CT2A     1  0.338541512893  0.114583559030
   CN5   CT2P     1  0.338541512893  0.114583559030
   CN5   CT2X     1  0.338541512893  0.114583559030
   CN5    CT3     1  0.338541512893  0.114583559030
   CN5   CT3X     1  0.338541512893  0.114583559030
   CN5   CTD1     1  0.338541512893  0.114583559030
   CN5   CTL1     1  0.338541512893  0.114583559030
   CN5   CTL2     1  0.338541512893  0.114583559030
   CN5   CTL3     1  0.338541512893  0.114583559030
   CN5   CTL5     1  0.338541512893  0.114583559030
   CN5   CTO1     1  0.338541512893  0.114583559030
   CN5   CTO2     1  0.338541512893  0.114583559030
   CN5     HP     1  0.290272620344  0.198464545952
   CN5      N     1  0.334087019303  0.011458355903
   CN5  NC2D1     1  0.307360057758  0.512433254190
   CN5  NG2S0     1  0.334087019303  0.011458355903
   CN5  NG2S1     1  0.307360057758  0.512433254190
   CN5    NH1     1  0.307360057758  0.512433254190
   CN5    NHL     1  0.307360057758  0.512433254190
   CN5      O     1  0.293996576986  0.396929091904
   CN5     OB     1  0.293996576986  0.396929091904
   CN5    OBL     1  0.293996576986  0.396929091904
   CN5  OC2D1     1  0.293996576986  0.396929091904
   CN5  OC2D3     1  0.293996576986  0.396929091904
   CN5  OC2D4     1  0.293996576986  0.396929091904
   CN5    OCA     1  0.293996576986  0.396929091904
   CN5  OG2D1     1  0.293996576986  0.396929091904
   CN5  OG2D3     1  0.293996576986  0.396929091904
   CN5   OLG1     1  0.293996576986  0.396929091904
  CN5G    CN6     1  0.338541512893  0.114583559030
  CN5G    CN7     1  0.338541512893  0.114583559030
  CN5G   CN7B     1  0.338541512893  0.114583559030
  CN5G   CN7E     1  0.338541512893  0.114583559030
  CN5G    CN8     1  0.338541512893  0.114583559030
  CN5G   CN8B     1  0.338541512893  0.114583559030
  CN5G    CN9     1  0.338541512893  0.114583559030
  CN5G    CP1     1  0.338541512893  0.114583559030
  CN5G    CP2     1  0.338541512893  0.114583559030
  CN5G    CP3     1  0.338541512893  0.114583559030
  CN5G   CPD1     1  0.338541512893  0.114583559030
  CN5G   CR33     1  0.338541512893  0.114583559030
  CN5G   CRL1     1  0.338541512893  0.114583559030
  CN5G   CRL2     1  0.338541512893  0.114583559030
  CN5G     CT     1  0.338541512893  0.114583559030
  CN5G    CT1     1  0.338541512893  0.114583559030
  CN5G   CT1X     1  0.338541512893  0.114583559030
  CN5G    CT2     1  0.338541512893  0.114583559030
  CN5G   CT2A     1  0.338541512893  0.114583559030
  CN5G   CT2P     1  0.338541512893  0.114583559030
  CN5G   CT2X     1  0.338541512893  0.114583559030
  CN5G    CT3     1  0.338541512893  0.114583559030
  CN5G   CT3X     1  0.338541512893  0.114583559030
  CN5G   CTD1     1  0.338541512893  0.114583559030
  CN5G   CTL1     1  0.338541512893  0.114583559030
  CN5G   CTL2     1  0.338541512893  0.114583559030
  CN5G   CTL3     1  0.338541512893  0.114583559030
  CN5G   CTL5     1  0.338541512893  0.114583559030
  CN5G   CTO1     1  0.338541512893  0.114583559030
  CN5G   CTO2     1  0.338541512893  0.114583559030
  CN5G     HP     1  0.290272620344  0.198464545952
  CN5G      N     1  0.334087019303  0.011458355903
  CN5G  NC2D1     1  0.307360057758  0.512433254190
  CN5G  NG2S0     1  0.334087019303  0.011458355903
  CN5G  NG2S1     1  0.307360057758  0.512433254190
  CN5G    NH1     1  0.307360057758  0.512433254190
  CN5G    NHL     1  0.307360057758  0.512433254190
  CN5G      O     1  0.293996576986  0.396929091904
  CN5G     OB     1  0.293996576986  0.396929091904
  CN5G    OBL     1  0.293996576986  0.396929091904
  CN5G  OC2D1     1  0.293996576986  0.396929091904
  CN5G  OC2D3     1  0.293996576986  0.396929091904
  CN5G  OC2D4     1  0.293996576986  0.396929091904
  CN5G    OCA     1  0.293996576986  0.396929091904
  CN5G  OG2D1     1  0.293996576986  0.396929091904
  CN5G  OG2D3     1  0.293996576986  0.396929091904
  CN5G   OLG1     1  0.293996576986  0.396929091904
   CN6    CN6     1  0.338541512893  0.041840000000
   CN6    CN7     1  0.338541512893  0.041840000000
   CN6   CN7B     1  0.338541512893  0.041840000000
   CN6   CN7E     1  0.338541512893  0.041840000000
   CN6    CN8     1  0.338541512893  0.041840000000
   CN6   CN8B     1  0.338541512893  0.041840000000
   CN6    CN9     1  0.338541512893  0.041840000000
   CN6    CNA     1  0.346773417049  0.110698234855
   CN6   CNA2     1  0.338541512893  0.110698234855
   CN6   CNE1     1  0.355468588538  0.109105371453
   CN6   CNE2     1  0.354577689820  0.105847757841
   CN6    CNG     1  0.347450500075  0.138767581228
   CN6   CO2P     1  0.251910521541  0.164138698618
   CN6   CO3P     1  0.192264852362  0.144393471099
   CN6    COA     1  0.347450500075  0.138767581228
   CN6    CP1     1  0.338541512893  0.041840000000
   CN6    CP2     1  0.338541512893  0.041840000000
   CN6    CP3     1  0.338541512893  0.041840000000
   CN6    CPA     1  0.329632525712  0.125520000000
   CN6    CPB     1  0.329632525712  0.125520000000
   CN6   CPD1     1  0.338541512893  0.041840000000
   CN6   CPH1     1  0.329632525712  0.093557084179
   CN6   CPH2     1  0.329632525712  0.093557084179
   CN6    CPM     1  0.329632525712  0.125520000000
   CN6    CPT     1  0.334977918021  0.131646486622
   CN6   CR2P     1  0.263634748672  0.170828164985
   CN6   CR33     1  0.338541512893  0.041840000000
   CN6   CR3P     1  0.244382427373  0.145299904804
   CN6   CRL1     1  0.338541512893  0.041840000000
   CN6   CRL2     1  0.338541512893  0.041840000000
   CN6   CRN1     1  0.347450500075  0.138767581228
   CN6     CS     1  0.365268474438  0.138767581228
   CN6    CST     1  0.308518226092  0.100764063435
   CN6     CT     1  0.338541512893  0.041840000000
   CN6    CT1     1  0.338541512893  0.041840000000
   CN6   CT1X     1  0.338541512893  0.041840000000
   CN6    CT2     1  0.338541512893  0.041840000000
   CN6   CT2A     1  0.338541512893  0.041840000000
   CN6   CT2P     1  0.338541512893  0.041840000000
   CN6   CT2X     1  0.338541512893  0.041840000000
   CN6    CT3     1  0.338541512893  0.041840000000
   CN6   CT3X     1  0.338541512893  0.041840000000
   CN6   CTD1     1  0.338541512893  0.041840000000
   CN6   CTL1     1  0.338541512893  0.041840000000
   CN6   CTL2     1  0.338541512893  0.041840000000
   CN6   CTL3     1  0.338541512893  0.041840000000
   CN6   CTL5     1  0.338541512893  0.041840000000
   CN6   CTO1     1  0.338541512893  0.041840000000
   CN6   CTO2     1  0.338541512893  0.041840000000
   CN6     CU     1  0.285800308779  0.908997471504
   CN6   CU1P     1  0.246066225950  0.180057894334
   CN6   CU2P     1  0.233869822499  0.162315474555
   CN6     CY     1  0.346559601357  0.113045454929
   CN6    DUM     1  0.169270756447  0.000000000000
   CN6   DY3P     1  0.297952167295  0.171135318061
   CN6   ER3P     1  0.291083338178  0.169232326746
   CN6   EU2P     1  0.333231756533  0.203602227414
   CN6   EU3P     1  0.304954631219  0.174528477447
   CN6     F1     1  0.314487247504  0.153729976257
   CN6     F2     1  0.314487247504  0.135577095411
   CN6     F3     1  0.311814551349  0.130309939452
   CN6     FA     1  0.320723538531  0.144938011577
   CN6     FE     1  0.227179173126  0.000000000000
   CN6   FE2P     1  0.265496726993  0.167098295383
   CN6   FE3P     1  0.219722350855  0.148045032716
   CN6   FGA1     1  0.314487247504  0.153729976257
   CN6   FGA2     1  0.314487247504  0.135577095411
   CN6   FGA3     1  0.311814551349  0.130309939452
   CN6   FGP1     1  0.311814551349  0.130309939452
   CN6   FGR1     1  0.320723538531  0.144938011577
   CN6    FNA     1  0.320723538531  0.144938011577
   CN6   GA3P     1  0.189485248361  0.145299904804
   CN6   GD3P     1  0.303351013527  0.173673803114
   CN6      H     1  0.189271432669  0.089736802707
   CN6     HA     1  0.286869387241  0.062058748940
   CN6    HA1     1  0.288651184677  0.088756043175
   CN6    HA2     1  0.288651184677  0.077149148019
   CN6    HA3     1  0.288651184677  0.064818249282
   CN6    HAL     1  0.286869387241  0.062058748940
   CN6   HAL1     1  0.286869387241  0.062058748940
   CN6   HAL2     1  0.288651184677  0.070011711020
   CN6   HAL3     1  0.288651184677  0.064818249282
   CN6     HB     1  0.286869387241  0.062058748940
   CN6    HB1     1  0.286869387241  0.062058748940
   CN6    HB2     1  0.288651184677  0.070011711020
   CN6    HBL     1  0.286869387241  0.062058748940
   CN6     HC     1  0.189271432669  0.089736802707
   CN6   HCA1     1  0.288651184677  0.088756043175
   CN6  HCA1A     1  0.288651184677  0.088756043175
   CN6 HCA1C2     1  0.288651184677  0.088756043175
   CN6   HCA2     1  0.288651184677  0.078275472531
   CN6 HCA25A     1  0.285087589805  0.078275472531
   CN6  HCA2A     1  0.288651184677  0.078275472531
   CN6 HCA2C2     1  0.285087589805  0.078275472531
   CN6   HCA3     1  0.288651184677  0.064818249282
   CN6  HCA3A     1  0.288651184677  0.064818249282
   CN6  HCA3M     1  0.288651184677  0.064818249282
   CN6    HCL     1  0.189271432669  0.089736802707
   CN6   HCP1     1  0.189271432669  0.089736802707
   CN6  HCP1M     1  0.189271432669  0.089736802707
   CN6   HCR1     1  0.240542653898  0.089736802707
   CN6     HE     1  0.301123766731  0.061020452073
   CN6    HE1     1  0.280633096214  0.073666921749
   CN6    HE2     1  0.281523994932  0.067464972838
   CN6   HEL1     1  0.280633096214  0.073666921749
   CN6   HEL2     1  0.281523994932  0.067464972838
   CN6    HF1     1  0.286869387241  0.070011711020
   CN6    HF2     1  0.285087589805  0.072469005789
   CN6   HG2P     1  0.274557166956  0.189623385225
   CN6   HGA1     1  0.288651184677  0.088756043175
   CN6   HGA2     1  0.288651184677  0.078275472531
   CN6   HGA3     1  0.288651184677  0.064818249282
   CN6   HGA4     1  0.280633096214  0.073666921749
   CN6   HGA5     1  0.281523994932  0.067464972838
   CN6   HGA6     1  0.286869387241  0.070011711020
   CN6   HGA7     1  0.285087589805  0.072469005789
   CN6 HGAAM0     1  0.283305792369  0.070011711020
   CN6 HGAAM1     1  0.283305792369  0.070011711020
   CN6 HGAAM2     1  0.281523994932  0.083680000000
   CN6   HGP1     1  0.189271432669  0.089736802707
   CN6   HGP2     1  0.189271432669  0.089736802707
   CN6   HGP3     1  0.209361198763  0.132309697301
   CN6   HGP4     1  0.189271432669  0.089736802707
   CN6   HGP5     1  0.231633666716  0.089736802707
   CN6 HGPAM1     1  0.247224394284  0.039692909190
   CN6 HGPAM2     1  0.247224394284  0.041840000000
   CN6 HGPAM3     1  0.246778944925  0.045833423612
   CN6  HGR51     1  0.290272620344  0.072469005789
   CN6  HGR52     1  0.249451641079  0.089736802707
   CN6  HGR53     1  0.231633666716  0.089736802707
   CN6  HGR61     1  0.290272620344  0.072469005789
   CN6  HGR62     1  0.267269615442  0.089736802707
   CN6  HGR63     1  0.249451641079  0.089736802707
   CN6  HGR71     1  0.290272620344  0.072469005789
   CN6     HL     1  0.231633666716  0.089736802707
   CN6  HLGA1     1  0.288651184677  0.088756043175
   CN6  HLGA2     1  0.288651184677  0.078275472531
   CN6  HLGA3     1  0.288651184677  0.064818249282
   CN6  HLGA4     1  0.280633096214  0.073666921749
   CN6  HLGP1     1  0.189271432669  0.089736802707
   CN6 HLGR52     1  0.249451641079  0.089736802707
   CN6 HLGR61     1  0.290272620344  0.072469005789
   CN6 HLGR62     1  0.267269615442  0.089736802707
   CN6    HN1     1  0.189271432669  0.089736802707
   CN6    HN2     1  0.189271432669  0.089736802707
   CN6    HN3     1  0.267269615442  0.089736802707
   CN6   HN3B     1  0.249451641079  0.089736802707
   CN6    HN4     1  0.189271432669  0.089736802707
   CN6    HN5     1  0.189271432669  0.089736802707
   CN6    HN6     1  0.286869387241  0.062058748940
   CN6    HN7     1  0.286869387241  0.062058748940
   CN6    HN8     1  0.288651184677  0.070011711020
   CN6    HN9     1  0.288651184677  0.064818249282
   CN6   HNE1     1  0.280633096214  0.073666921749
   CN6   HNE2     1  0.281523994932  0.067464972838
   CN6    HNP     1  0.290272620344  0.072469005789
   CN6   HO3P     1  0.293168041178  0.170263611896
   CN6    HOL     1  0.189271432669  0.089736802707
   CN6     HP     1  0.290272620344  0.072469005789
   CN6   HPER     1  0.189271432669  0.089736802707
   CN6    HR1     1  0.249451641079  0.089736802707
   CN6    HR2     1  0.231633666716  0.089736802707
   CN6    HR3     1  0.300054688270  0.036952087465
   CN6   HRA3     1  0.288651184677  0.064818249282
   CN6   HRM1     1  0.247224394284  0.039692909190
   CN6   HRM2     1  0.247224394284  0.041840000000
   CN6   HRP2     1  0.189271432669  0.089736802707
   CN6     HS     1  0.209361198763  0.132309697301
   CN6   HSIA     1  0.286869387241  0.062058748940
   CN6   HSIO     1  0.189271432669  0.089736802707
   CN6     HT     1  0.189271432669  0.089736802707
   CN6     HX     1  0.189271432669  0.089736802707
   CN6   IGR1     1  0.368832069310  0.301712530731
   CN6   IN3P     1  0.246449312399  0.160580590010
   CN6   LA3P     1  0.327200372211  0.182184255566
   CN6    LIT     1  0.284864865125  0.020196198771
   CN6    LPH     1  0.169270756447  0.000000000000
   CN6   LU3P     1  0.289648991242  0.166731218816
   CN6     MG     1  0.274842254546  0.051243325419
   CN6   MN2P     1  0.276508235149  0.171747976291
   CN6   MN3P     1  0.203516903172  0.148045032716
   CN6      N     1  0.334087019303  0.004184000000
   CN6     NC     1  0.334087019303  0.324091246411
   CN6    NC2     1  0.334087019303  0.187114168357
   CN6  NC2D1     1  0.307360057758  0.187114168357
   CN6  NC311     1  0.347450500075  0.088756043175
   CN6   ND3P     1  0.313587439798  0.177117175768
   CN6     NE     1  0.305578260322  0.122698965603
   CN6  NG1T1     1  0.328741626994  0.177512086349
   CN6  NG2D1     1  0.334087019303  0.187114168357
   CN6  NG2O1     1  0.334087019303  0.187114168357
   CN6  NG2P1     1  0.334087019303  0.187114168357
   CN6 NG2R43     1  0.334087019303  0.187114168357
   CN6 NG2R50     1  0.334087019303  0.187114168357
   CN6 NG2R51     1  0.334087019303  0.187114168357
   CN6 NG2R52     1  0.334087019303  0.187114168357
   CN6 NG2R53     1  0.334087019303  0.187114168357
   CN6 NG2R57     1  0.334087019303  0.187114168357
   CN6 NG2R60     1  0.337650614175  0.102486650838
   CN6 NG2R61     1  0.334087019303  0.187114168357
   CN6 NG2R62     1  0.352795892384  0.093557084179
   CN6 NG2R67     1  0.334087019303  0.187114168357
   CN6 NG2RC0     1  0.334087019303  0.187114168357
   CN6  NG2S0     1  0.334087019303  0.004184000000
   CN6  NG2S1     1  0.307360057758  0.187114168357
   CN6  NG2S2     1  0.334087019303  0.187114168357
   CN6  NG2S3     1  0.334087019303  0.187114168357
   CN6  NG301     1  0.347450500075  0.078275472531
   CN6  NG311     1  0.347450500075  0.088756043175
   CN6  NG321     1  0.346559601357  0.102486650838
   CN6  NG331     1  0.345668702638  0.110698234855
   CN6 NG3C51     1  0.334087019303  0.187114168357
   CN6  NG3N1     1  0.351904993665  0.102486650838
   CN6  NG3P0     1  0.334087019303  0.187114168357
   CN6  NG3P1     1  0.334087019303  0.187114168357
   CN6  NG3P2     1  0.334087019303  0.187114168357
   CN6  NG3P3     1  0.334087019303  0.187114168357
   CN6    NH1     1  0.307360057758  0.187114168357
   CN6    NH2     1  0.334087019303  0.187114168357
   CN6    NH3     1  0.334087019303  0.187114168357
   CN6   NH3L     1  0.334087019303  0.187114168357
   CN6    NHL     1  0.307360057758  0.187114168357
   CN6     NI     1  0.282949432881  0.994525446633
   CN6   NI2P     1  0.238787583423  0.158440517242
   CN6    NN1     1  0.334087019303  0.187114168357
   CN6   NN1C     1  0.334087019303  0.187114168357
   CN6    NN2     1  0.334087019303  0.187114168357
   CN6   NN2B     1  0.334087019303  0.187114168357
   CN6   NN2C     1  0.334087019303  0.187114168357
   CN6   NN2G     1  0.334087019303  0.187114168357
   CN6   NN2U     1  0.334087019303  0.187114168357
   CN6    NN3     1  0.334087019303  0.187114168357
   CN6   NN3A     1  0.334087019303  0.187114168357
   CN6   NN3G     1  0.334087019303  0.187114168357
   CN6   NN3I     1  0.334087019303  0.187114168357
   CN6    NN4     1  0.334087019303  0.187114168357
   CN6    NN6     1  0.334087019303  0.187114168357
   CN6    NNG     1  0.334087019303  0.187114168357
   CN6     NP     1  0.334087019303  0.187114168357
   CN6    NPH     1  0.334087019303  0.187114168357
   CN6    NR1     1  0.334087019303  0.187114168357
   CN6    NR2     1  0.334087019303  0.187114168357
   CN6    NR3     1  0.334087019303  0.187114168357
   CN6   NRC4     1  0.334087019303  0.187114168357
   CN6   NRN1     1  0.347450500075  0.280671252536
   CN6   NRN2     1  0.346559601357  0.102486650838
   CN6    NS1     1  0.334087019303  0.187114168357
   CN6    NS2     1  0.334087019303  0.187114168357
   CN6    NTL     1  0.334087019303  0.187114168357
   CN6     NY     1  0.334087019303  0.187114168357
   CN6      O     1  0.293996576986  0.144938011577
   CN6    O2L     1  0.320723538531  0.144938011577
   CN6    OAL     1  0.326959829558  0.163176000000
   CN6     OB     1  0.293996576986  0.144938011577
   CN6    OBL     1  0.293996576986  0.144938011577
   CN6     OC     1  0.320723538531  0.144938011577
   CN6  OC2D1     1  0.293996576986  0.144938011577
   CN6  OC2D2     1  0.320723538531  0.144938011577
   CN6  OC2D3     1  0.293996576986  0.144938011577
   CN6  OC2D4     1  0.293996576986  0.144938011577
   CN6  OC2DP     1  0.320723538531  0.144938011577
   CN6  OC301     1  0.316269044940  0.132309697301
   CN6  OC302     1  0.316269044940  0.132309697301
   CN6  OC303     1  0.316269044940  0.132309697301
   CN6 OC305A     1  0.316269044940  0.132309697301
   CN6  OC30A     1  0.316269044940  0.132309697301
   CN6  OC30P     1  0.326959829558  0.163176000000
   CN6  OC311     1  0.326514380198  0.183381431383
   CN6 OC311M     1  0.326514380198  0.183381431383
   CN6  OC312     1  0.326959829558  0.163176000000
   CN6 OC3C51     1  0.316269044940  0.132309697301
   CN6 OC3C5M     1  0.316269044940  0.132309697301
   CN6 OC3C61     1  0.316269044940  0.132309697301
   CN6    OCA     1  0.293996576986  0.144938011577
   CN6    OCL     1  0.320723538531  0.144938011577
   CN6  OG2D1     1  0.293996576986  0.144938011577
   CN6  OG2D2     1  0.320723538531  0.144938011577
   CN6  OG2D3     1  0.293996576986  0.144938011577
   CN6  OG2D4     1  0.320723538531  0.144938011577
   CN6  OG2D5     1  0.320010819556  0.169954883425
   CN6  OG2N1     1  0.320723538531  0.144938011577
   CN6  OG2P1     1  0.320723538531  0.144938011577
   CN6 OG2R50     1  0.320723538531  0.144938011577
   CN6  OG2S1     1  0.318906105146  0.157831660601
   CN6  OG301     1  0.316269044940  0.132309697301
   CN6  OG302     1  0.316269044940  0.132309697301
   CN6  OG303     1  0.316269044940  0.132309697301
   CN6  OG304     1  0.316269044940  0.132309697301
   CN6  OG311     1  0.326514380198  0.183381431383
   CN6  OG312     1  0.325178032121  0.144938011577
   CN6 OG3C31     1  0.316269044940  0.132309697301
   CN6 OG3C51     1  0.316269044940  0.132309697301
   CN6 OG3C61     1  0.316269044940  0.132309697301
   CN6 OG3R60     1  0.316269044940  0.132309697301
   CN6    OH1     1  0.326959829558  0.163176000000
   CN6    OHL     1  0.326959829558  0.163176000000
   CN6   OLG1     1  0.293996576986  0.144938011577
   CN6   OLG2     1  0.320723538531  0.144938011577
   CN6   OLG3     1  0.320723538531  0.144938011577
   CN6   OLG4     1  0.316269044940  0.132309697301
   CN6   OLG5     1  0.316269044940  0.132309697301
   CN6   OLG6     1  0.326514380198  0.183381431383
   CN6   OLG7     1  0.316269044940  0.132309697301
   CN6   OLG8     1  0.316269044940  0.132309697301
   CN6     OM     1  0.320723538531  0.144938011577
   CN6    ON1     1  0.320723538531  0.144938011577
   CN6   ON1C     1  0.320723538531  0.144938011577
   CN6    ON2     1  0.326959829558  0.163176000000
   CN6   ON2B     1  0.326959829558  0.163176000000
   CN6   ON2M     1  0.316269044940  0.132309697301
   CN6    ON3     1  0.320723538531  0.144938011577
   CN6    ON4     1  0.326959829558  0.163176000000
   CN6    ON5     1  0.326959829558  0.163176000000
   CN6    ON6     1  0.326959829558  0.163176000000
   CN6   ON6B     1  0.326959829558  0.163176000000
   CN6   OPER     1  0.318427692534  0.188901923946
   CN6     OS     1  0.326959829558  0.163176000000
   CN6   OSIA     1  0.326959829558  0.163176000000
   CN6   OSIE     1  0.326959829558  0.163176000000
   CN6   OSIH     1  0.326959829558  0.163176000000
   CN6    OSL     1  0.316269044940  0.132309697301
   CN6   OSLP     1  0.316269044940  0.132309697301
   CN6    OST     1  0.320010819556  0.169954883425
   CN6     OT     1  0.326799467788  0.163176000000
   CN6     OX     1  0.320723538531  0.144938011577
   CN6      P     1  0.360813980847  0.320014464673
   CN6     P2     1  0.360813980847  0.320014464673
   CN6     P3     1  0.360813980847  0.320014464673
   CN6     P4     1  0.360813980847  0.320014464673
   CN6     PB     1  0.328073452955  0.716185437439
   CN6   PB2P     1  0.325890751096  0.204716924713
   CN6     PC     1  0.360813980847  0.320014464673
   CN6     PD     1  0.294842930769  1.037598257516
   CN6   PD2P     1  0.251865976605  0.174628752363
   CN6    PG0     1  0.360813980847  0.320014464673
   CN6    PG1     1  0.360813980847  0.320014464673
   CN6    PG2     1  0.360813980847  0.320014464673
   CN6     PL     1  0.360813980847  0.320014464673
   CN6   PM3P     1  0.316910492017  0.176275053255
   CN6    POT     1  0.326403017859  0.123410269913
   CN6   PR3P     1  0.317079762773  0.178642591472
   CN6     PT     1  0.296001099102  1.168527606863
   CN6   PT2P     1  0.240284293270  0.168973521997
   CN6   PU3P     1  0.318024115415  0.179522368790
   CN6   RA2P     1  0.355459679551  0.229891668540
   CN6   RH3P     1  0.210367914314  0.149983415617
   CN6    RUB     1  0.338541512893  0.162045623205
   CN6      S     1  0.347450500075  0.280671252536
   CN6     SC     1  0.356359487256  0.286840588481
   CN6   SC3P     1  0.266993436839  0.157109060719
   CN6  SEGD1     1  0.363041227642  0.330244580395
   CN6  SG2D1     1  0.351904993665  0.314496560236
   CN6  SG2P1     1  0.355798221064  0.332305491450
   CN6  SG2P2     1  0.352314807076  0.329421919951
   CN6 SG2R50     1  0.347450500075  0.280671252536
   CN6  SG301     1  0.345223253279  0.257919081884
   CN6  SG302     1  0.365268474438  0.286840588481
   CN6  SG311     1  0.347450500075  0.280671252536
   CN6  SG3O1     1  0.356359487256  0.286840588481
   CN6  SG3O2     1  0.347450500075  0.247528778125
   CN6  SG3O3     1  0.347450500075  0.247528778125
   CN6     SI     1  0.365268474438  0.324091246411
   CN6   SIH3     1  0.365268474438  0.324091246411
   CN6     SL     1  0.356359487256  0.286840588481
   CN6     SM     1  0.345223253279  0.257919081884
   CN6   SM2P     1  0.334666103469  0.207012887251
   CN6   SM3P     1  0.308847858618  0.175378986746
   CN6   SN2P     1  0.316981763914  0.181365662197
   CN6    SOD     1  0.294954293108  0.090610410351
   CN6     SP     1  0.365268474438  0.280671252536
   CN6   SR2P     1  0.334612649546  0.200133451797
   CN6     SS     1  0.365268474438  0.286840588481
   CN6   TB3P     1  0.300678317372  0.172155203837
   CN6   TI1P     1  0.341276571958  0.266826378666
   CN6   TI3P     1  0.243117351193  0.149983415617
   CN6   TL3P     1  0.246716582015  0.168869889039
   CN6   TM3P     1  0.289417357575  0.168402751521
   CN6    U3P     1  0.320830446377  0.182184255566
   CN6    V2P     1  0.267599247968  0.167830039933
   CN6    V3P     1  0.223989755715  0.147096016316
   CN6    Y3P     1  0.295190381269  0.170263611896
   CN6   YB2P     1  0.312616360195  0.189623385225
   CN6   YB3P     1  0.284659958420  0.167569069413
   CN6     ZN     1  0.266378716724  0.209200000000
   CN7    CN7     1  0.338541512893  0.041840000000
   CN7   CN7B     1  0.338541512893  0.041840000000
   CN7   CN7E     1  0.338541512893  0.041840000000
   CN7    CN8     1  0.338541512893  0.041840000000
   CN7   CN8B     1  0.338541512893  0.041840000000
   CN7    CN9     1  0.338541512893  0.041840000000
   CN7    CNA     1  0.346773417049  0.110698234855
   CN7   CNA2     1  0.338541512893  0.110698234855
   CN7   CNE1     1  0.355468588538  0.109105371453
   CN7   CNE2     1  0.354577689820  0.105847757841
   CN7    CNG     1  0.347450500075  0.138767581228
   CN7   CO2P     1  0.251910521541  0.164138698618
   CN7   CO3P     1  0.192264852362  0.144393471099
   CN7    COA     1  0.347450500075  0.138767581228
   CN7    CP1     1  0.338541512893  0.041840000000
   CN7    CP2     1  0.338541512893  0.041840000000
   CN7    CP3     1  0.338541512893  0.041840000000
   CN7    CPA     1  0.329632525712  0.125520000000
   CN7    CPB     1  0.329632525712  0.125520000000
   CN7   CPD1     1  0.338541512893  0.041840000000
   CN7   CPH1     1  0.329632525712  0.093557084179
   CN7   CPH2     1  0.329632525712  0.093557084179
   CN7    CPM     1  0.329632525712  0.125520000000
   CN7    CPT     1  0.334977918021  0.131646486622
   CN7   CR2P     1  0.263634748672  0.170828164985
   CN7   CR33     1  0.338541512893  0.041840000000
   CN7   CR3P     1  0.244382427373  0.145299904804
   CN7   CRL1     1  0.338541512893  0.041840000000
   CN7   CRL2     1  0.338541512893  0.041840000000
   CN7   CRN1     1  0.347450500075  0.138767581228
   CN7     CS     1  0.365268474438  0.138767581228
   CN7    CST     1  0.308518226092  0.100764063435
   CN7     CT     1  0.338541512893  0.041840000000
   CN7    CT1     1  0.338541512893  0.041840000000
   CN7   CT1X     1  0.338541512893  0.041840000000
   CN7    CT2     1  0.338541512893  0.041840000000
   CN7   CT2A     1  0.338541512893  0.041840000000
   CN7   CT2P     1  0.338541512893  0.041840000000
   CN7   CT2X     1  0.338541512893  0.041840000000
   CN7    CT3     1  0.338541512893  0.041840000000
   CN7   CT3X     1  0.338541512893  0.041840000000
   CN7   CTD1     1  0.338541512893  0.041840000000
   CN7   CTL1     1  0.338541512893  0.041840000000
   CN7   CTL2     1  0.338541512893  0.041840000000
   CN7   CTL3     1  0.338541512893  0.041840000000
   CN7   CTL5     1  0.338541512893  0.041840000000
   CN7   CTO1     1  0.338541512893  0.041840000000
   CN7   CTO2     1  0.338541512893  0.041840000000
   CN7     CU     1  0.285800308779  0.908997471504
   CN7   CU1P     1  0.246066225950  0.180057894334
   CN7   CU2P     1  0.233869822499  0.162315474555
   CN7     CY     1  0.346559601357  0.113045454929
   CN7    DUM     1  0.169270756447  0.000000000000
   CN7   DY3P     1  0.297952167295  0.171135318061
   CN7   ER3P     1  0.291083338178  0.169232326746
   CN7   EU2P     1  0.333231756533  0.203602227414
   CN7   EU3P     1  0.304954631219  0.174528477447
   CN7     F1     1  0.314487247504  0.153729976257
   CN7     F2     1  0.314487247504  0.135577095411
   CN7     F3     1  0.311814551349  0.130309939452
   CN7     FA     1  0.320723538531  0.144938011577
   CN7     FE     1  0.227179173126  0.000000000000
   CN7   FE2P     1  0.265496726993  0.167098295383
   CN7   FE3P     1  0.219722350855  0.148045032716
   CN7   FGA1     1  0.314487247504  0.153729976257
   CN7   FGA2     1  0.314487247504  0.135577095411
   CN7   FGA3     1  0.311814551349  0.130309939452
   CN7   FGP1     1  0.311814551349  0.130309939452
   CN7   FGR1     1  0.320723538531  0.144938011577
   CN7    FNA     1  0.320723538531  0.144938011577
   CN7   GA3P     1  0.189485248361  0.145299904804
   CN7   GD3P     1  0.303351013527  0.173673803114
   CN7      H     1  0.189271432669  0.089736802707
   CN7     HA     1  0.286869387241  0.062058748940
   CN7    HA1     1  0.288651184677  0.088756043175
   CN7    HA2     1  0.288651184677  0.077149148019
   CN7    HA3     1  0.288651184677  0.064818249282
   CN7    HAL     1  0.286869387241  0.062058748940
   CN7   HAL1     1  0.286869387241  0.062058748940
   CN7   HAL2     1  0.288651184677  0.070011711020
   CN7   HAL3     1  0.288651184677  0.064818249282
   CN7     HB     1  0.286869387241  0.062058748940
   CN7    HB1     1  0.286869387241  0.062058748940
   CN7    HB2     1  0.288651184677  0.070011711020
   CN7    HBL     1  0.286869387241  0.062058748940
   CN7     HC     1  0.189271432669  0.089736802707
   CN7   HCA1     1  0.288651184677  0.088756043175
   CN7  HCA1A     1  0.288651184677  0.088756043175
   CN7 HCA1C2     1  0.288651184677  0.088756043175
   CN7   HCA2     1  0.288651184677  0.078275472531
   CN7 HCA25A     1  0.285087589805  0.078275472531
   CN7  HCA2A     1  0.288651184677  0.078275472531
   CN7 HCA2C2     1  0.285087589805  0.078275472531
   CN7   HCA3     1  0.288651184677  0.064818249282
   CN7  HCA3A     1  0.288651184677  0.064818249282
   CN7  HCA3M     1  0.288651184677  0.064818249282
   CN7    HCL     1  0.189271432669  0.089736802707
   CN7   HCP1     1  0.189271432669  0.089736802707
   CN7  HCP1M     1  0.189271432669  0.089736802707
   CN7   HCR1     1  0.240542653898  0.089736802707
   CN7     HE     1  0.301123766731  0.061020452073
   CN7    HE1     1  0.280633096214  0.073666921749
   CN7    HE2     1  0.281523994932  0.067464972838
   CN7   HEL1     1  0.280633096214  0.073666921749
   CN7   HEL2     1  0.281523994932  0.067464972838
   CN7    HF1     1  0.286869387241  0.070011711020
   CN7    HF2     1  0.285087589805  0.072469005789
   CN7   HG2P     1  0.274557166956  0.189623385225
   CN7   HGA1     1  0.288651184677  0.088756043175
   CN7   HGA2     1  0.288651184677  0.078275472531
   CN7   HGA3     1  0.288651184677  0.064818249282
   CN7   HGA4     1  0.280633096214  0.073666921749
   CN7   HGA5     1  0.281523994932  0.067464972838
   CN7   HGA6     1  0.286869387241  0.070011711020
   CN7   HGA7     1  0.285087589805  0.072469005789
   CN7 HGAAM0     1  0.283305792369  0.070011711020
   CN7 HGAAM1     1  0.283305792369  0.070011711020
   CN7 HGAAM2     1  0.281523994932  0.083680000000
   CN7   HGP1     1  0.189271432669  0.089736802707
   CN7   HGP2     1  0.189271432669  0.089736802707
   CN7   HGP3     1  0.209361198763  0.132309697301
   CN7   HGP4     1  0.189271432669  0.089736802707
   CN7   HGP5     1  0.231633666716  0.089736802707
   CN7 HGPAM1     1  0.247224394284  0.039692909190
   CN7 HGPAM2     1  0.247224394284  0.041840000000
   CN7 HGPAM3     1  0.246778944925  0.045833423612
   CN7  HGR51     1  0.290272620344  0.072469005789
   CN7  HGR52     1  0.249451641079  0.089736802707
   CN7  HGR53     1  0.231633666716  0.089736802707
   CN7  HGR61     1  0.290272620344  0.072469005789
   CN7  HGR62     1  0.267269615442  0.089736802707
   CN7  HGR63     1  0.249451641079  0.089736802707
   CN7  HGR71     1  0.290272620344  0.072469005789
   CN7     HL     1  0.231633666716  0.089736802707
   CN7  HLGA1     1  0.288651184677  0.088756043175
   CN7  HLGA2     1  0.288651184677  0.078275472531
   CN7  HLGA3     1  0.288651184677  0.064818249282
   CN7  HLGA4     1  0.280633096214  0.073666921749
   CN7  HLGP1     1  0.189271432669  0.089736802707
   CN7 HLGR52     1  0.249451641079  0.089736802707
   CN7 HLGR61     1  0.290272620344  0.072469005789
   CN7 HLGR62     1  0.267269615442  0.089736802707
   CN7    HN1     1  0.189271432669  0.089736802707
   CN7    HN2     1  0.189271432669  0.089736802707
   CN7    HN3     1  0.267269615442  0.089736802707
   CN7   HN3B     1  0.249451641079  0.089736802707
   CN7    HN4     1  0.189271432669  0.089736802707
   CN7    HN5     1  0.189271432669  0.089736802707
   CN7    HN6     1  0.286869387241  0.062058748940
   CN7    HN7     1  0.286869387241  0.062058748940
   CN7    HN8     1  0.288651184677  0.070011711020
   CN7    HN9     1  0.288651184677  0.064818249282
   CN7   HNE1     1  0.280633096214  0.073666921749
   CN7   HNE2     1  0.281523994932  0.067464972838
   CN7    HNP     1  0.290272620344  0.072469005789
   CN7   HO3P     1  0.293168041178  0.170263611896
   CN7    HOL     1  0.189271432669  0.089736802707
   CN7     HP     1  0.290272620344  0.072469005789
   CN7   HPER     1  0.189271432669  0.089736802707
   CN7    HR1     1  0.249451641079  0.089736802707
   CN7    HR2     1  0.231633666716  0.089736802707
   CN7    HR3     1  0.300054688270  0.036952087465
   CN7   HRA3     1  0.288651184677  0.064818249282
   CN7   HRM1     1  0.247224394284  0.039692909190
   CN7   HRM2     1  0.247224394284  0.041840000000
   CN7   HRP2     1  0.189271432669  0.089736802707
   CN7     HS     1  0.209361198763  0.132309697301
   CN7   HSIA     1  0.286869387241  0.062058748940
   CN7   HSIO     1  0.189271432669  0.089736802707
   CN7     HT     1  0.189271432669  0.089736802707
   CN7     HX     1  0.189271432669  0.089736802707
   CN7   IGR1     1  0.368832069310  0.301712530731
   CN7   IN3P     1  0.246449312399  0.160580590010
   CN7   LA3P     1  0.327200372211  0.182184255566
   CN7    LIT     1  0.284864865125  0.020196198771
   CN7    LPH     1  0.169270756447  0.000000000000
   CN7   LU3P     1  0.289648991242  0.166731218816
   CN7     MG     1  0.274842254546  0.051243325419
   CN7   MN2P     1  0.276508235149  0.171747976291
   CN7   MN3P     1  0.203516903172  0.148045032716
   CN7      N     1  0.334087019303  0.004184000000
   CN7     NC     1  0.334087019303  0.324091246411
   CN7    NC2     1  0.334087019303  0.187114168357
   CN7  NC2D1     1  0.307360057758  0.187114168357
   CN7  NC311     1  0.347450500075  0.088756043175
   CN7   ND3P     1  0.313587439798  0.177117175768
   CN7     NE     1  0.305578260322  0.122698965603
   CN7  NG1T1     1  0.328741626994  0.177512086349
   CN7  NG2D1     1  0.334087019303  0.187114168357
   CN7  NG2O1     1  0.334087019303  0.187114168357
   CN7  NG2P1     1  0.334087019303  0.187114168357
   CN7 NG2R43     1  0.334087019303  0.187114168357
   CN7 NG2R50     1  0.334087019303  0.187114168357
   CN7 NG2R51     1  0.334087019303  0.187114168357
   CN7 NG2R52     1  0.334087019303  0.187114168357
   CN7 NG2R53     1  0.334087019303  0.187114168357
   CN7 NG2R57     1  0.334087019303  0.187114168357
   CN7 NG2R60     1  0.337650614175  0.102486650838
   CN7 NG2R61     1  0.334087019303  0.187114168357
   CN7 NG2R62     1  0.352795892384  0.093557084179
   CN7 NG2R67     1  0.334087019303  0.187114168357
   CN7 NG2RC0     1  0.334087019303  0.187114168357
   CN7  NG2S0     1  0.334087019303  0.004184000000
   CN7  NG2S1     1  0.307360057758  0.187114168357
   CN7  NG2S2     1  0.334087019303  0.187114168357
   CN7  NG2S3     1  0.334087019303  0.187114168357
   CN7  NG301     1  0.347450500075  0.078275472531
   CN7  NG311     1  0.347450500075  0.088756043175
   CN7  NG321     1  0.346559601357  0.102486650838
   CN7  NG331     1  0.345668702638  0.110698234855
   CN7 NG3C51     1  0.334087019303  0.187114168357
   CN7  NG3N1     1  0.351904993665  0.102486650838
   CN7  NG3P0     1  0.334087019303  0.187114168357
   CN7  NG3P1     1  0.334087019303  0.187114168357
   CN7  NG3P2     1  0.334087019303  0.187114168357
   CN7  NG3P3     1  0.334087019303  0.187114168357
   CN7    NH1     1  0.307360057758  0.187114168357
   CN7    NH2     1  0.334087019303  0.187114168357
   CN7    NH3     1  0.334087019303  0.187114168357
   CN7   NH3L     1  0.334087019303  0.187114168357
   CN7    NHL     1  0.307360057758  0.187114168357
   CN7     NI     1  0.282949432881  0.994525446633
   CN7   NI2P     1  0.238787583423  0.158440517242
   CN7    NN1     1  0.334087019303  0.187114168357
   CN7   NN1C     1  0.334087019303  0.187114168357
   CN7    NN2     1  0.334087019303  0.187114168357
   CN7   NN2B     1  0.334087019303  0.187114168357
   CN7   NN2C     1  0.334087019303  0.187114168357
   CN7   NN2G     1  0.334087019303  0.187114168357
   CN7   NN2U     1  0.334087019303  0.187114168357
   CN7    NN3     1  0.334087019303  0.187114168357
   CN7   NN3A     1  0.334087019303  0.187114168357
   CN7   NN3G     1  0.334087019303  0.187114168357
   CN7   NN3I     1  0.334087019303  0.187114168357
   CN7    NN4     1  0.334087019303  0.187114168357
   CN7    NN6     1  0.334087019303  0.187114168357
   CN7    NNG     1  0.334087019303  0.187114168357
   CN7     NP     1  0.334087019303  0.187114168357
   CN7    NPH     1  0.334087019303  0.187114168357
   CN7    NR1     1  0.334087019303  0.187114168357
   CN7    NR2     1  0.334087019303  0.187114168357
   CN7    NR3     1  0.334087019303  0.187114168357
   CN7   NRC4     1  0.334087019303  0.187114168357
   CN7   NRN1     1  0.347450500075  0.280671252536
   CN7   NRN2     1  0.346559601357  0.102486650838
   CN7    NS1     1  0.334087019303  0.187114168357
   CN7    NS2     1  0.334087019303  0.187114168357
   CN7    NTL     1  0.334087019303  0.187114168357
   CN7     NY     1  0.334087019303  0.187114168357
   CN7      O     1  0.293996576986  0.144938011577
   CN7    O2L     1  0.320723538531  0.144938011577
   CN7    OAL     1  0.326959829558  0.163176000000
   CN7     OB     1  0.293996576986  0.144938011577
   CN7    OBL     1  0.293996576986  0.144938011577
   CN7     OC     1  0.320723538531  0.144938011577
   CN7  OC2D1     1  0.293996576986  0.144938011577
   CN7  OC2D2     1  0.320723538531  0.144938011577
   CN7  OC2D3     1  0.293996576986  0.144938011577
   CN7  OC2D4     1  0.293996576986  0.144938011577
   CN7  OC2DP     1  0.320723538531  0.144938011577
   CN7  OC301     1  0.316269044940  0.132309697301
   CN7  OC302     1  0.316269044940  0.132309697301
   CN7  OC303     1  0.316269044940  0.132309697301
   CN7 OC305A     1  0.316269044940  0.132309697301
   CN7  OC30A     1  0.316269044940  0.132309697301
   CN7  OC30P     1  0.326959829558  0.163176000000
   CN7  OC311     1  0.326514380198  0.183381431383
   CN7 OC311M     1  0.326514380198  0.183381431383
   CN7  OC312     1  0.326959829558  0.163176000000
   CN7 OC3C51     1  0.316269044940  0.132309697301
   CN7 OC3C5M     1  0.316269044940  0.132309697301
   CN7 OC3C61     1  0.316269044940  0.132309697301
   CN7    OCA     1  0.293996576986  0.144938011577
   CN7    OCL     1  0.320723538531  0.144938011577
   CN7  OG2D1     1  0.293996576986  0.144938011577
   CN7  OG2D2     1  0.320723538531  0.144938011577
   CN7  OG2D3     1  0.293996576986  0.144938011577
   CN7  OG2D4     1  0.320723538531  0.144938011577
   CN7  OG2D5     1  0.320010819556  0.169954883425
   CN7  OG2N1     1  0.320723538531  0.144938011577
   CN7  OG2P1     1  0.320723538531  0.144938011577
   CN7 OG2R50     1  0.320723538531  0.144938011577
   CN7  OG2S1     1  0.318906105146  0.157831660601
   CN7  OG301     1  0.316269044940  0.132309697301
   CN7  OG302     1  0.316269044940  0.132309697301
   CN7  OG303     1  0.316269044940  0.132309697301
   CN7  OG304     1  0.316269044940  0.132309697301
   CN7  OG311     1  0.326514380198  0.183381431383
   CN7  OG312     1  0.325178032121  0.144938011577
   CN7 OG3C31     1  0.316269044940  0.132309697301
   CN7 OG3C51     1  0.316269044940  0.132309697301
   CN7 OG3C61     1  0.316269044940  0.132309697301
   CN7 OG3R60     1  0.316269044940  0.132309697301
   CN7    OH1     1  0.326959829558  0.163176000000
   CN7    OHL     1  0.326959829558  0.163176000000
   CN7   OLG1     1  0.293996576986  0.144938011577
   CN7   OLG2     1  0.320723538531  0.144938011577
   CN7   OLG3     1  0.320723538531  0.144938011577
   CN7   OLG4     1  0.316269044940  0.132309697301
   CN7   OLG5     1  0.316269044940  0.132309697301
   CN7   OLG6     1  0.326514380198  0.183381431383
   CN7   OLG7     1  0.316269044940  0.132309697301
   CN7   OLG8     1  0.316269044940  0.132309697301
   CN7     OM     1  0.320723538531  0.144938011577
   CN7    ON1     1  0.320723538531  0.144938011577
   CN7   ON1C     1  0.320723538531  0.144938011577
   CN7    ON2     1  0.326959829558  0.163176000000
   CN7   ON2B     1  0.326959829558  0.163176000000
   CN7   ON2M     1  0.316269044940  0.132309697301
   CN7    ON3     1  0.320723538531  0.144938011577
   CN7    ON4     1  0.326959829558  0.163176000000
   CN7    ON5     1  0.326959829558  0.163176000000
   CN7    ON6     1  0.326959829558  0.163176000000
   CN7   ON6B     1  0.326959829558  0.163176000000
   CN7   OPER     1  0.318427692534  0.188901923946
   CN7     OS     1  0.326959829558  0.163176000000
   CN7   OSIA     1  0.326959829558  0.163176000000
   CN7   OSIE     1  0.326959829558  0.163176000000
   CN7   OSIH     1  0.326959829558  0.163176000000
   CN7    OSL     1  0.316269044940  0.132309697301
   CN7   OSLP     1  0.316269044940  0.132309697301
   CN7    OST     1  0.320010819556  0.169954883425
   CN7     OT     1  0.326799467788  0.163176000000
   CN7     OX     1  0.320723538531  0.144938011577
   CN7      P     1  0.360813980847  0.320014464673
   CN7     P2     1  0.360813980847  0.320014464673
   CN7     P3     1  0.360813980847  0.320014464673
   CN7     P4     1  0.360813980847  0.320014464673
   CN7     PB     1  0.328073452955  0.716185437439
   CN7   PB2P     1  0.325890751096  0.204716924713
   CN7     PC     1  0.360813980847  0.320014464673
   CN7     PD     1  0.294842930769  1.037598257516
   CN7   PD2P     1  0.251865976605  0.174628752363
   CN7    PG0     1  0.360813980847  0.320014464673
   CN7    PG1     1  0.360813980847  0.320014464673
   CN7    PG2     1  0.360813980847  0.320014464673
   CN7     PL     1  0.360813980847  0.320014464673
   CN7   PM3P     1  0.316910492017  0.176275053255
   CN7    POT     1  0.326403017859  0.123410269913
   CN7   PR3P     1  0.317079762773  0.178642591472
   CN7     PT     1  0.296001099102  1.168527606863
   CN7   PT2P     1  0.240284293270  0.168973521997
   CN7   PU3P     1  0.318024115415  0.179522368790
   CN7   RA2P     1  0.355459679551  0.229891668540
   CN7   RH3P     1  0.210367914314  0.149983415617
   CN7    RUB     1  0.338541512893  0.162045623205
   CN7      S     1  0.347450500075  0.280671252536
   CN7     SC     1  0.356359487256  0.286840588481
   CN7   SC3P     1  0.266993436839  0.157109060719
   CN7  SEGD1     1  0.363041227642  0.330244580395
   CN7  SG2D1     1  0.351904993665  0.314496560236
   CN7  SG2P1     1  0.355798221064  0.332305491450
   CN7  SG2P2     1  0.352314807076  0.329421919951
   CN7 SG2R50     1  0.347450500075  0.280671252536
   CN7  SG301     1  0.345223253279  0.257919081884
   CN7  SG302     1  0.365268474438  0.286840588481
   CN7  SG311     1  0.347450500075  0.280671252536
   CN7  SG3O1     1  0.356359487256  0.286840588481
   CN7  SG3O2     1  0.347450500075  0.247528778125
   CN7  SG3O3     1  0.347450500075  0.247528778125
   CN7     SI     1  0.365268474438  0.324091246411
   CN7   SIH3     1  0.365268474438  0.324091246411
   CN7     SL     1  0.356359487256  0.286840588481
   CN7     SM     1  0.345223253279  0.257919081884
   CN7   SM2P     1  0.334666103469  0.207012887251
   CN7   SM3P     1  0.308847858618  0.175378986746
   CN7   SN2P     1  0.316981763914  0.181365662197
   CN7    SOD     1  0.294954293108  0.090610410351
   CN7     SP     1  0.365268474438  0.280671252536
   CN7   SR2P     1  0.334612649546  0.200133451797
   CN7     SS     1  0.365268474438  0.286840588481
   CN7   TB3P     1  0.300678317372  0.172155203837
   CN7   TI1P     1  0.341276571958  0.266826378666
   CN7   TI3P     1  0.243117351193  0.149983415617
   CN7   TL3P     1  0.246716582015  0.168869889039
   CN7   TM3P     1  0.289417357575  0.168402751521
   CN7    U3P     1  0.320830446377  0.182184255566
   CN7    V2P     1  0.267599247968  0.167830039933
   CN7    V3P     1  0.223989755715  0.147096016316
   CN7    Y3P     1  0.295190381269  0.170263611896
   CN7   YB2P     1  0.312616360195  0.189623385225
   CN7   YB3P     1  0.284659958420  0.167569069413
   CN7     ZN     1  0.266378716724  0.209200000000
  CN7B   CN7B     1  0.338541512893  0.041840000000
  CN7B   CN7E     1  0.338541512893  0.041840000000
  CN7B    CN8     1  0.338541512893  0.041840000000
  CN7B   CN8B     1  0.338541512893  0.041840000000
  CN7B    CN9     1  0.338541512893  0.041840000000
  CN7B    CNA     1  0.346773417049  0.110698234855
  CN7B   CNA2     1  0.338541512893  0.110698234855
  CN7B   CNE1     1  0.355468588538  0.109105371453
  CN7B   CNE2     1  0.354577689820  0.105847757841
  CN7B    CNG     1  0.347450500075  0.138767581228
  CN7B   CO2P     1  0.251910521541  0.164138698618
  CN7B   CO3P     1  0.192264852362  0.144393471099
  CN7B    COA     1  0.347450500075  0.138767581228
  CN7B    CP1     1  0.338541512893  0.041840000000
  CN7B    CP2     1  0.338541512893  0.041840000000
  CN7B    CP3     1  0.338541512893  0.041840000000
  CN7B    CPA     1  0.329632525712  0.125520000000
  CN7B    CPB     1  0.329632525712  0.125520000000
  CN7B   CPD1     1  0.338541512893  0.041840000000
  CN7B   CPH1     1  0.329632525712  0.093557084179
  CN7B   CPH2     1  0.329632525712  0.093557084179
  CN7B    CPM     1  0.329632525712  0.125520000000
  CN7B    CPT     1  0.334977918021  0.131646486622
  CN7B   CR2P     1  0.263634748672  0.170828164985
  CN7B   CR33     1  0.338541512893  0.041840000000
  CN7B   CR3P     1  0.244382427373  0.145299904804
  CN7B   CRL1     1  0.338541512893  0.041840000000
  CN7B   CRL2     1  0.338541512893  0.041840000000
  CN7B   CRN1     1  0.347450500075  0.138767581228
  CN7B     CS     1  0.365268474438  0.138767581228
  CN7B    CST     1  0.308518226092  0.100764063435
  CN7B     CT     1  0.338541512893  0.041840000000
  CN7B    CT1     1  0.338541512893  0.041840000000
  CN7B   CT1X     1  0.338541512893  0.041840000000
  CN7B    CT2     1  0.338541512893  0.041840000000
  CN7B   CT2A     1  0.338541512893  0.041840000000
  CN7B   CT2P     1  0.338541512893  0.041840000000
  CN7B   CT2X     1  0.338541512893  0.041840000000
  CN7B    CT3     1  0.338541512893  0.041840000000
  CN7B   CT3X     1  0.338541512893  0.041840000000
  CN7B   CTD1     1  0.338541512893  0.041840000000
  CN7B   CTL1     1  0.338541512893  0.041840000000
  CN7B   CTL2     1  0.338541512893  0.041840000000
  CN7B   CTL3     1  0.338541512893  0.041840000000
  CN7B   CTL5     1  0.338541512893  0.041840000000
  CN7B   CTO1     1  0.338541512893  0.041840000000
  CN7B   CTO2     1  0.338541512893  0.041840000000
  CN7B     CU     1  0.285800308779  0.908997471504
  CN7B   CU1P     1  0.246066225950  0.180057894334
  CN7B   CU2P     1  0.233869822499  0.162315474555
  CN7B     CY     1  0.346559601357  0.113045454929
  CN7B    DUM     1  0.169270756447  0.000000000000
  CN7B   DY3P     1  0.297952167295  0.171135318061
  CN7B   ER3P     1  0.291083338178  0.169232326746
  CN7B   EU2P     1  0.333231756533  0.203602227414
  CN7B   EU3P     1  0.304954631219  0.174528477447
  CN7B     F1     1  0.314487247504  0.153729976257
  CN7B     F2     1  0.314487247504  0.135577095411
  CN7B     F3     1  0.311814551349  0.130309939452
  CN7B     FA     1  0.320723538531  0.144938011577
  CN7B     FE     1  0.227179173126  0.000000000000
  CN7B   FE2P     1  0.265496726993  0.167098295383
  CN7B   FE3P     1  0.219722350855  0.148045032716
  CN7B   FGA1     1  0.314487247504  0.153729976257
  CN7B   FGA2     1  0.314487247504  0.135577095411
  CN7B   FGA3     1  0.311814551349  0.130309939452
  CN7B   FGP1     1  0.311814551349  0.130309939452
  CN7B   FGR1     1  0.320723538531  0.144938011577
  CN7B    FNA     1  0.320723538531  0.144938011577
  CN7B   GA3P     1  0.189485248361  0.145299904804
  CN7B   GD3P     1  0.303351013527  0.173673803114
  CN7B      H     1  0.189271432669  0.089736802707
  CN7B     HA     1  0.286869387241  0.062058748940
  CN7B    HA1     1  0.288651184677  0.088756043175
  CN7B    HA2     1  0.288651184677  0.077149148019
  CN7B    HA3     1  0.288651184677  0.064818249282
  CN7B    HAL     1  0.286869387241  0.062058748940
  CN7B   HAL1     1  0.286869387241  0.062058748940
  CN7B   HAL2     1  0.288651184677  0.070011711020
  CN7B   HAL3     1  0.288651184677  0.064818249282
  CN7B     HB     1  0.286869387241  0.062058748940
  CN7B    HB1     1  0.286869387241  0.062058748940
  CN7B    HB2     1  0.288651184677  0.070011711020
  CN7B    HBL     1  0.286869387241  0.062058748940
  CN7B     HC     1  0.189271432669  0.089736802707
  CN7B   HCA1     1  0.288651184677  0.088756043175
  CN7B  HCA1A     1  0.288651184677  0.088756043175
  CN7B HCA1C2     1  0.288651184677  0.088756043175
  CN7B   HCA2     1  0.288651184677  0.078275472531
  CN7B HCA25A     1  0.285087589805  0.078275472531
  CN7B  HCA2A     1  0.288651184677  0.078275472531
  CN7B HCA2C2     1  0.285087589805  0.078275472531
  CN7B   HCA3     1  0.288651184677  0.064818249282
  CN7B  HCA3A     1  0.288651184677  0.064818249282
  CN7B  HCA3M     1  0.288651184677  0.064818249282
  CN7B    HCL     1  0.189271432669  0.089736802707
  CN7B   HCP1     1  0.189271432669  0.089736802707
  CN7B  HCP1M     1  0.189271432669  0.089736802707
  CN7B   HCR1     1  0.240542653898  0.089736802707
  CN7B     HE     1  0.301123766731  0.061020452073
  CN7B    HE1     1  0.280633096214  0.073666921749
  CN7B    HE2     1  0.281523994932  0.067464972838
  CN7B   HEL1     1  0.280633096214  0.073666921749
  CN7B   HEL2     1  0.281523994932  0.067464972838
  CN7B    HF1     1  0.286869387241  0.070011711020
  CN7B    HF2     1  0.285087589805  0.072469005789
  CN7B   HG2P     1  0.274557166956  0.189623385225
  CN7B   HGA1     1  0.288651184677  0.088756043175
  CN7B   HGA2     1  0.288651184677  0.078275472531
  CN7B   HGA3     1  0.288651184677  0.064818249282
  CN7B   HGA4     1  0.280633096214  0.073666921749
  CN7B   HGA5     1  0.281523994932  0.067464972838
  CN7B   HGA6     1  0.286869387241  0.070011711020
  CN7B   HGA7     1  0.285087589805  0.072469005789
  CN7B HGAAM0     1  0.283305792369  0.070011711020
  CN7B HGAAM1     1  0.283305792369  0.070011711020
  CN7B HGAAM2     1  0.281523994932  0.083680000000
  CN7B   HGP1     1  0.189271432669  0.089736802707
  CN7B   HGP2     1  0.189271432669  0.089736802707
  CN7B   HGP3     1  0.209361198763  0.132309697301
  CN7B   HGP4     1  0.189271432669  0.089736802707
  CN7B   HGP5     1  0.231633666716  0.089736802707
  CN7B HGPAM1     1  0.247224394284  0.039692909190
  CN7B HGPAM2     1  0.247224394284  0.041840000000
  CN7B HGPAM3     1  0.246778944925  0.045833423612
  CN7B  HGR51     1  0.290272620344  0.072469005789
  CN7B  HGR52     1  0.249451641079  0.089736802707
  CN7B  HGR53     1  0.231633666716  0.089736802707
  CN7B  HGR61     1  0.290272620344  0.072469005789
  CN7B  HGR62     1  0.267269615442  0.089736802707
  CN7B  HGR63     1  0.249451641079  0.089736802707
  CN7B  HGR71     1  0.290272620344  0.072469005789
  CN7B     HL     1  0.231633666716  0.089736802707
  CN7B  HLGA1     1  0.288651184677  0.088756043175
  CN7B  HLGA2     1  0.288651184677  0.078275472531
  CN7B  HLGA3     1  0.288651184677  0.064818249282
  CN7B  HLGA4     1  0.280633096214  0.073666921749
  CN7B  HLGP1     1  0.189271432669  0.089736802707
  CN7B HLGR52     1  0.249451641079  0.089736802707
  CN7B HLGR61     1  0.290272620344  0.072469005789
  CN7B HLGR62     1  0.267269615442  0.089736802707
  CN7B    HN1     1  0.189271432669  0.089736802707
  CN7B    HN2     1  0.189271432669  0.089736802707
  CN7B    HN3     1  0.267269615442  0.089736802707
  CN7B   HN3B     1  0.249451641079  0.089736802707
  CN7B    HN4     1  0.189271432669  0.089736802707
  CN7B    HN5     1  0.189271432669  0.089736802707
  CN7B    HN6     1  0.286869387241  0.062058748940
  CN7B    HN7     1  0.286869387241  0.062058748940
  CN7B    HN8     1  0.288651184677  0.070011711020
  CN7B    HN9     1  0.288651184677  0.064818249282
  CN7B   HNE1     1  0.280633096214  0.073666921749
  CN7B   HNE2     1  0.281523994932  0.067464972838
  CN7B    HNP     1  0.290272620344  0.072469005789
  CN7B   HO3P     1  0.293168041178  0.170263611896
  CN7B    HOL     1  0.189271432669  0.089736802707
  CN7B     HP     1  0.290272620344  0.072469005789
  CN7B   HPER     1  0.189271432669  0.089736802707
  CN7B    HR1     1  0.249451641079  0.089736802707
  CN7B    HR2     1  0.231633666716  0.089736802707
  CN7B    HR3     1  0.300054688270  0.036952087465
  CN7B   HRA3     1  0.288651184677  0.064818249282
  CN7B   HRM1     1  0.247224394284  0.039692909190
  CN7B   HRM2     1  0.247224394284  0.041840000000
  CN7B   HRP2     1  0.189271432669  0.089736802707
  CN7B     HS     1  0.209361198763  0.132309697301
  CN7B   HSIA     1  0.286869387241  0.062058748940
  CN7B   HSIO     1  0.189271432669  0.089736802707
  CN7B     HT     1  0.189271432669  0.089736802707
  CN7B     HX     1  0.189271432669  0.089736802707
  CN7B   IGR1     1  0.368832069310  0.301712530731
  CN7B   IN3P     1  0.246449312399  0.160580590010
  CN7B   LA3P     1  0.327200372211  0.182184255566
  CN7B    LIT     1  0.284864865125  0.020196198771
  CN7B    LPH     1  0.169270756447  0.000000000000
  CN7B   LU3P     1  0.289648991242  0.166731218816
  CN7B     MG     1  0.274842254546  0.051243325419
  CN7B   MN2P     1  0.276508235149  0.171747976291
  CN7B   MN3P     1  0.203516903172  0.148045032716
  CN7B      N     1  0.334087019303  0.004184000000
  CN7B     NC     1  0.334087019303  0.324091246411
  CN7B    NC2     1  0.334087019303  0.187114168357
  CN7B  NC2D1     1  0.307360057758  0.187114168357
  CN7B  NC311     1  0.347450500075  0.088756043175
  CN7B   ND3P     1  0.313587439798  0.177117175768
  CN7B     NE     1  0.305578260322  0.122698965603
  CN7B  NG1T1     1  0.328741626994  0.177512086349
  CN7B  NG2D1     1  0.334087019303  0.187114168357
  CN7B  NG2O1     1  0.334087019303  0.187114168357
  CN7B  NG2P1     1  0.334087019303  0.187114168357
  CN7B NG2R43     1  0.334087019303  0.187114168357
  CN7B NG2R50     1  0.334087019303  0.187114168357
  CN7B NG2R51     1  0.334087019303  0.187114168357
  CN7B NG2R52     1  0.334087019303  0.187114168357
  CN7B NG2R53     1  0.334087019303  0.187114168357
  CN7B NG2R57     1  0.334087019303  0.187114168357
  CN7B NG2R60     1  0.337650614175  0.102486650838
  CN7B NG2R61     1  0.334087019303  0.187114168357
  CN7B NG2R62     1  0.352795892384  0.093557084179
  CN7B NG2R67     1  0.334087019303  0.187114168357
  CN7B NG2RC0     1  0.334087019303  0.187114168357
  CN7B  NG2S0     1  0.334087019303  0.004184000000
  CN7B  NG2S1     1  0.307360057758  0.187114168357
  CN7B  NG2S2     1  0.334087019303  0.187114168357
  CN7B  NG2S3     1  0.334087019303  0.187114168357
  CN7B  NG301     1  0.347450500075  0.078275472531
  CN7B  NG311     1  0.347450500075  0.088756043175
  CN7B  NG321     1  0.346559601357  0.102486650838
  CN7B  NG331     1  0.345668702638  0.110698234855
  CN7B NG3C51     1  0.334087019303  0.187114168357
  CN7B  NG3N1     1  0.351904993665  0.102486650838
  CN7B  NG3P0     1  0.334087019303  0.187114168357
  CN7B  NG3P1     1  0.334087019303  0.187114168357
  CN7B  NG3P2     1  0.334087019303  0.187114168357
  CN7B  NG3P3     1  0.334087019303  0.187114168357
  CN7B    NH1     1  0.307360057758  0.187114168357
  CN7B    NH2     1  0.334087019303  0.187114168357
  CN7B    NH3     1  0.334087019303  0.187114168357
  CN7B   NH3L     1  0.334087019303  0.187114168357
  CN7B    NHL     1  0.307360057758  0.187114168357
  CN7B     NI     1  0.282949432881  0.994525446633
  CN7B   NI2P     1  0.238787583423  0.158440517242
  CN7B    NN1     1  0.334087019303  0.187114168357
  CN7B   NN1C     1  0.334087019303  0.187114168357
  CN7B    NN2     1  0.334087019303  0.187114168357
  CN7B   NN2B     1  0.334087019303  0.187114168357
  CN7B   NN2C     1  0.334087019303  0.187114168357
  CN7B   NN2G     1  0.334087019303  0.187114168357
  CN7B   NN2U     1  0.334087019303  0.187114168357
  CN7B    NN3     1  0.334087019303  0.187114168357
  CN7B   NN3A     1  0.334087019303  0.187114168357
  CN7B   NN3G     1  0.334087019303  0.187114168357
  CN7B   NN3I     1  0.334087019303  0.187114168357
  CN7B    NN4     1  0.334087019303  0.187114168357
  CN7B    NN6     1  0.334087019303  0.187114168357
  CN7B    NNG     1  0.334087019303  0.187114168357
  CN7B     NP     1  0.334087019303  0.187114168357
  CN7B    NPH     1  0.334087019303  0.187114168357
  CN7B    NR1     1  0.334087019303  0.187114168357
  CN7B    NR2     1  0.334087019303  0.187114168357
  CN7B    NR3     1  0.334087019303  0.187114168357
  CN7B   NRC4     1  0.334087019303  0.187114168357
  CN7B   NRN1     1  0.347450500075  0.280671252536
  CN7B   NRN2     1  0.346559601357  0.102486650838
  CN7B    NS1     1  0.334087019303  0.187114168357
  CN7B    NS2     1  0.334087019303  0.187114168357
  CN7B    NTL     1  0.334087019303  0.187114168357
  CN7B     NY     1  0.334087019303  0.187114168357
  CN7B      O     1  0.293996576986  0.144938011577
  CN7B    O2L     1  0.320723538531  0.144938011577
  CN7B    OAL     1  0.326959829558  0.163176000000
  CN7B     OB     1  0.293996576986  0.144938011577
  CN7B    OBL     1  0.293996576986  0.144938011577
  CN7B     OC     1  0.320723538531  0.144938011577
  CN7B  OC2D1     1  0.293996576986  0.144938011577
  CN7B  OC2D2     1  0.320723538531  0.144938011577
  CN7B  OC2D3     1  0.293996576986  0.144938011577
  CN7B  OC2D4     1  0.293996576986  0.144938011577
  CN7B  OC2DP     1  0.320723538531  0.144938011577
  CN7B  OC301     1  0.316269044940  0.132309697301
  CN7B  OC302     1  0.316269044940  0.132309697301
  CN7B  OC303     1  0.316269044940  0.132309697301
  CN7B OC305A     1  0.316269044940  0.132309697301
  CN7B  OC30A     1  0.316269044940  0.132309697301
  CN7B  OC30P     1  0.326959829558  0.163176000000
  CN7B  OC311     1  0.326514380198  0.183381431383
  CN7B OC311M     1  0.326514380198  0.183381431383
  CN7B  OC312     1  0.326959829558  0.163176000000
  CN7B OC3C51     1  0.316269044940  0.132309697301
  CN7B OC3C5M     1  0.316269044940  0.132309697301
  CN7B OC3C61     1  0.316269044940  0.132309697301
  CN7B    OCA     1  0.293996576986  0.144938011577
  CN7B    OCL     1  0.320723538531  0.144938011577
  CN7B  OG2D1     1  0.293996576986  0.144938011577
  CN7B  OG2D2     1  0.320723538531  0.144938011577
  CN7B  OG2D3     1  0.293996576986  0.144938011577
  CN7B  OG2D4     1  0.320723538531  0.144938011577
  CN7B  OG2D5     1  0.320010819556  0.169954883425
  CN7B  OG2N1     1  0.320723538531  0.144938011577
  CN7B  OG2P1     1  0.320723538531  0.144938011577
  CN7B OG2R50     1  0.320723538531  0.144938011577
  CN7B  OG2S1     1  0.318906105146  0.157831660601
  CN7B  OG301     1  0.316269044940  0.132309697301
  CN7B  OG302     1  0.316269044940  0.132309697301
  CN7B  OG303     1  0.316269044940  0.132309697301
  CN7B  OG304     1  0.316269044940  0.132309697301
  CN7B  OG311     1  0.326514380198  0.183381431383
  CN7B  OG312     1  0.325178032121  0.144938011577
  CN7B OG3C31     1  0.316269044940  0.132309697301
  CN7B OG3C51     1  0.316269044940  0.132309697301
  CN7B OG3C61     1  0.316269044940  0.132309697301
  CN7B OG3R60     1  0.316269044940  0.132309697301
  CN7B    OH1     1  0.326959829558  0.163176000000
  CN7B    OHL     1  0.326959829558  0.163176000000
  CN7B   OLG1     1  0.293996576986  0.144938011577
  CN7B   OLG2     1  0.320723538531  0.144938011577
  CN7B   OLG3     1  0.320723538531  0.144938011577
  CN7B   OLG4     1  0.316269044940  0.132309697301
  CN7B   OLG5     1  0.316269044940  0.132309697301
  CN7B   OLG6     1  0.326514380198  0.183381431383
  CN7B   OLG7     1  0.316269044940  0.132309697301
  CN7B   OLG8     1  0.316269044940  0.132309697301
  CN7B     OM     1  0.320723538531  0.144938011577
  CN7B    ON1     1  0.320723538531  0.144938011577
  CN7B   ON1C     1  0.320723538531  0.144938011577
  CN7B    ON2     1  0.326959829558  0.163176000000
  CN7B   ON2B     1  0.326959829558  0.163176000000
  CN7B   ON2M     1  0.316269044940  0.132309697301
  CN7B    ON3     1  0.320723538531  0.144938011577
  CN7B    ON4     1  0.326959829558  0.163176000000
  CN7B    ON5     1  0.326959829558  0.163176000000
  CN7B    ON6     1  0.326959829558  0.163176000000
  CN7B   ON6B     1  0.326959829558  0.163176000000
  CN7B   OPER     1  0.318427692534  0.188901923946
  CN7B     OS     1  0.326959829558  0.163176000000
  CN7B   OSIA     1  0.326959829558  0.163176000000
  CN7B   OSIE     1  0.326959829558  0.163176000000
  CN7B   OSIH     1  0.326959829558  0.163176000000
  CN7B    OSL     1  0.316269044940  0.132309697301
  CN7B   OSLP     1  0.316269044940  0.132309697301
  CN7B    OST     1  0.320010819556  0.169954883425
  CN7B     OT     1  0.326799467788  0.163176000000
  CN7B     OX     1  0.320723538531  0.144938011577
  CN7B      P     1  0.360813980847  0.320014464673
  CN7B     P2     1  0.360813980847  0.320014464673
  CN7B     P3     1  0.360813980847  0.320014464673
  CN7B     P4     1  0.360813980847  0.320014464673
  CN7B     PB     1  0.328073452955  0.716185437439
  CN7B   PB2P     1  0.325890751096  0.204716924713
  CN7B     PC     1  0.360813980847  0.320014464673
  CN7B     PD     1  0.294842930769  1.037598257516
  CN7B   PD2P     1  0.251865976605  0.174628752363
  CN7B    PG0     1  0.360813980847  0.320014464673
  CN7B    PG1     1  0.360813980847  0.320014464673
  CN7B    PG2     1  0.360813980847  0.320014464673
  CN7B     PL     1  0.360813980847  0.320014464673
  CN7B   PM3P     1  0.316910492017  0.176275053255
  CN7B    POT     1  0.326403017859  0.123410269913
  CN7B   PR3P     1  0.317079762773  0.178642591472
  CN7B     PT     1  0.296001099102  1.168527606863
  CN7B   PT2P     1  0.240284293270  0.168973521997
  CN7B   PU3P     1  0.318024115415  0.179522368790
  CN7B   RA2P     1  0.355459679551  0.229891668540
  CN7B   RH3P     1  0.210367914314  0.149983415617
  CN7B    RUB     1  0.338541512893  0.162045623205
  CN7B      S     1  0.347450500075  0.280671252536
  CN7B     SC     1  0.356359487256  0.286840588481
  CN7B   SC3P     1  0.266993436839  0.157109060719
  CN7B  SEGD1     1  0.363041227642  0.330244580395
  CN7B  SG2D1     1  0.351904993665  0.314496560236
  CN7B  SG2P1     1  0.355798221064  0.332305491450
  CN7B  SG2P2     1  0.352314807076  0.329421919951
  CN7B SG2R50     1  0.347450500075  0.280671252536
  CN7B  SG301     1  0.345223253279  0.257919081884
  CN7B  SG302     1  0.365268474438  0.286840588481
  CN7B  SG311     1  0.347450500075  0.280671252536
  CN7B  SG3O1     1  0.356359487256  0.286840588481
  CN7B  SG3O2     1  0.347450500075  0.247528778125
  CN7B  SG3O3     1  0.347450500075  0.247528778125
  CN7B     SI     1  0.365268474438  0.324091246411
  CN7B   SIH3     1  0.365268474438  0.324091246411
  CN7B     SL     1  0.356359487256  0.286840588481
  CN7B     SM     1  0.345223253279  0.257919081884
  CN7B   SM2P     1  0.334666103469  0.207012887251
  CN7B   SM3P     1  0.308847858618  0.175378986746
  CN7B   SN2P     1  0.316981763914  0.181365662197
  CN7B    SOD     1  0.294954293108  0.090610410351
  CN7B     SP     1  0.365268474438  0.280671252536
  CN7B   SR2P     1  0.334612649546  0.200133451797
  CN7B     SS     1  0.365268474438  0.286840588481
  CN7B   TB3P     1  0.300678317372  0.172155203837
  CN7B   TI1P     1  0.341276571958  0.266826378666
  CN7B   TI3P     1  0.243117351193  0.149983415617
  CN7B   TL3P     1  0.246716582015  0.168869889039
  CN7B   TM3P     1  0.289417357575  0.168402751521
  CN7B    U3P     1  0.320830446377  0.182184255566
  CN7B    V2P     1  0.267599247968  0.167830039933
  CN7B    V3P     1  0.223989755715  0.147096016316
  CN7B    Y3P     1  0.295190381269  0.170263611896
  CN7B   YB2P     1  0.312616360195  0.189623385225
  CN7B   YB3P     1  0.284659958420  0.167569069413
  CN7B     ZN     1  0.266378716724  0.209200000000
  CN7E   CN7E     1  0.338541512893  0.041840000000
  CN7E    CN8     1  0.338541512893  0.041840000000
  CN7E   CN8B     1  0.338541512893  0.041840000000
  CN7E    CN9     1  0.338541512893  0.041840000000
  CN7E    CNA     1  0.346773417049  0.110698234855
  CN7E   CNA2     1  0.338541512893  0.110698234855
  CN7E   CNE1     1  0.355468588538  0.109105371453
  CN7E   CNE2     1  0.354577689820  0.105847757841
  CN7E    CNG     1  0.347450500075  0.138767581228
  CN7E   CO2P     1  0.251910521541  0.164138698618
  CN7E   CO3P     1  0.192264852362  0.144393471099
  CN7E    COA     1  0.347450500075  0.138767581228
  CN7E    CP1     1  0.338541512893  0.041840000000
  CN7E    CP2     1  0.338541512893  0.041840000000
  CN7E    CP3     1  0.338541512893  0.041840000000
  CN7E    CPA     1  0.329632525712  0.125520000000
  CN7E    CPB     1  0.329632525712  0.125520000000
  CN7E   CPD1     1  0.338541512893  0.041840000000
  CN7E   CPH1     1  0.329632525712  0.093557084179
  CN7E   CPH2     1  0.329632525712  0.093557084179
  CN7E    CPM     1  0.329632525712  0.125520000000
  CN7E    CPT     1  0.334977918021  0.131646486622
  CN7E   CR2P     1  0.263634748672  0.170828164985
  CN7E   CR33     1  0.338541512893  0.041840000000
  CN7E   CR3P     1  0.244382427373  0.145299904804
  CN7E   CRL1     1  0.338541512893  0.041840000000
  CN7E   CRL2     1  0.338541512893  0.041840000000
  CN7E   CRN1     1  0.347450500075  0.138767581228
  CN7E     CS     1  0.365268474438  0.138767581228
  CN7E    CST     1  0.308518226092  0.100764063435
  CN7E     CT     1  0.338541512893  0.041840000000
  CN7E    CT1     1  0.338541512893  0.041840000000
  CN7E   CT1X     1  0.338541512893  0.041840000000
  CN7E    CT2     1  0.338541512893  0.041840000000
  CN7E   CT2A     1  0.338541512893  0.041840000000
  CN7E   CT2P     1  0.338541512893  0.041840000000
  CN7E   CT2X     1  0.338541512893  0.041840000000
  CN7E    CT3     1  0.338541512893  0.041840000000
  CN7E   CT3X     1  0.338541512893  0.041840000000
  CN7E   CTD1     1  0.338541512893  0.041840000000
  CN7E   CTL1     1  0.338541512893  0.041840000000
  CN7E   CTL2     1  0.338541512893  0.041840000000
  CN7E   CTL3     1  0.338541512893  0.041840000000
  CN7E   CTL5     1  0.338541512893  0.041840000000
  CN7E   CTO1     1  0.338541512893  0.041840000000
  CN7E   CTO2     1  0.338541512893  0.041840000000
  CN7E     CU     1  0.285800308779  0.908997471504
  CN7E   CU1P     1  0.246066225950  0.180057894334
  CN7E   CU2P     1  0.233869822499  0.162315474555
  CN7E     CY     1  0.346559601357  0.113045454929
  CN7E    DUM     1  0.169270756447  0.000000000000
  CN7E   DY3P     1  0.297952167295  0.171135318061
  CN7E   ER3P     1  0.291083338178  0.169232326746
  CN7E   EU2P     1  0.333231756533  0.203602227414
  CN7E   EU3P     1  0.304954631219  0.174528477447
  CN7E     F1     1  0.314487247504  0.153729976257
  CN7E     F2     1  0.314487247504  0.135577095411
  CN7E     F3     1  0.311814551349  0.130309939452
  CN7E     FA     1  0.320723538531  0.144938011577
  CN7E     FE     1  0.227179173126  0.000000000000
  CN7E   FE2P     1  0.265496726993  0.167098295383
  CN7E   FE3P     1  0.219722350855  0.148045032716
  CN7E   FGA1     1  0.314487247504  0.153729976257
  CN7E   FGA2     1  0.314487247504  0.135577095411
  CN7E   FGA3     1  0.311814551349  0.130309939452
  CN7E   FGP1     1  0.311814551349  0.130309939452
  CN7E   FGR1     1  0.320723538531  0.144938011577
  CN7E    FNA     1  0.320723538531  0.144938011577
  CN7E   GA3P     1  0.189485248361  0.145299904804
  CN7E   GD3P     1  0.303351013527  0.173673803114
  CN7E      H     1  0.189271432669  0.089736802707
  CN7E     HA     1  0.286869387241  0.062058748940
  CN7E    HA1     1  0.288651184677  0.088756043175
  CN7E    HA2     1  0.288651184677  0.077149148019
  CN7E    HA3     1  0.288651184677  0.064818249282
  CN7E    HAL     1  0.286869387241  0.062058748940
  CN7E   HAL1     1  0.286869387241  0.062058748940
  CN7E   HAL2     1  0.288651184677  0.070011711020
  CN7E   HAL3     1  0.288651184677  0.064818249282
  CN7E     HB     1  0.286869387241  0.062058748940
  CN7E    HB1     1  0.286869387241  0.062058748940
  CN7E    HB2     1  0.288651184677  0.070011711020
  CN7E    HBL     1  0.286869387241  0.062058748940
  CN7E     HC     1  0.189271432669  0.089736802707
  CN7E   HCA1     1  0.288651184677  0.088756043175
  CN7E  HCA1A     1  0.288651184677  0.088756043175
  CN7E HCA1C2     1  0.288651184677  0.088756043175
  CN7E   HCA2     1  0.288651184677  0.078275472531
  CN7E HCA25A     1  0.285087589805  0.078275472531
  CN7E  HCA2A     1  0.288651184677  0.078275472531
  CN7E HCA2C2     1  0.285087589805  0.078275472531
  CN7E   HCA3     1  0.288651184677  0.064818249282
  CN7E  HCA3A     1  0.288651184677  0.064818249282
  CN7E  HCA3M     1  0.288651184677  0.064818249282
  CN7E    HCL     1  0.189271432669  0.089736802707
  CN7E   HCP1     1  0.189271432669  0.089736802707
  CN7E  HCP1M     1  0.189271432669  0.089736802707
  CN7E   HCR1     1  0.240542653898  0.089736802707
  CN7E     HE     1  0.301123766731  0.061020452073
  CN7E    HE1     1  0.280633096214  0.073666921749
  CN7E    HE2     1  0.281523994932  0.067464972838
  CN7E   HEL1     1  0.280633096214  0.073666921749
  CN7E   HEL2     1  0.281523994932  0.067464972838
  CN7E    HF1     1  0.286869387241  0.070011711020
  CN7E    HF2     1  0.285087589805  0.072469005789
  CN7E   HG2P     1  0.274557166956  0.189623385225
  CN7E   HGA1     1  0.288651184677  0.088756043175
  CN7E   HGA2     1  0.288651184677  0.078275472531
  CN7E   HGA3     1  0.288651184677  0.064818249282
  CN7E   HGA4     1  0.280633096214  0.073666921749
  CN7E   HGA5     1  0.281523994932  0.067464972838
  CN7E   HGA6     1  0.286869387241  0.070011711020
  CN7E   HGA7     1  0.285087589805  0.072469005789
  CN7E HGAAM0     1  0.283305792369  0.070011711020
  CN7E HGAAM1     1  0.283305792369  0.070011711020
  CN7E HGAAM2     1  0.281523994932  0.083680000000
  CN7E   HGP1     1  0.189271432669  0.089736802707
  CN7E   HGP2     1  0.189271432669  0.089736802707
  CN7E   HGP3     1  0.209361198763  0.132309697301
  CN7E   HGP4     1  0.189271432669  0.089736802707
  CN7E   HGP5     1  0.231633666716  0.089736802707
  CN7E HGPAM1     1  0.247224394284  0.039692909190
  CN7E HGPAM2     1  0.247224394284  0.041840000000
  CN7E HGPAM3     1  0.246778944925  0.045833423612
  CN7E  HGR51     1  0.290272620344  0.072469005789
  CN7E  HGR52     1  0.249451641079  0.089736802707
  CN7E  HGR53     1  0.231633666716  0.089736802707
  CN7E  HGR61     1  0.290272620344  0.072469005789
  CN7E  HGR62     1  0.267269615442  0.089736802707
  CN7E  HGR63     1  0.249451641079  0.089736802707
  CN7E  HGR71     1  0.290272620344  0.072469005789
  CN7E     HL     1  0.231633666716  0.089736802707
  CN7E  HLGA1     1  0.288651184677  0.088756043175
  CN7E  HLGA2     1  0.288651184677  0.078275472531
  CN7E  HLGA3     1  0.288651184677  0.064818249282
  CN7E  HLGA4     1  0.280633096214  0.073666921749
  CN7E  HLGP1     1  0.189271432669  0.089736802707
  CN7E HLGR52     1  0.249451641079  0.089736802707
  CN7E HLGR61     1  0.290272620344  0.072469005789
  CN7E HLGR62     1  0.267269615442  0.089736802707
  CN7E    HN1     1  0.189271432669  0.089736802707
  CN7E    HN2     1  0.189271432669  0.089736802707
  CN7E    HN3     1  0.267269615442  0.089736802707
  CN7E   HN3B     1  0.249451641079  0.089736802707
  CN7E    HN4     1  0.189271432669  0.089736802707
  CN7E    HN5     1  0.189271432669  0.089736802707
  CN7E    HN6     1  0.286869387241  0.062058748940
  CN7E    HN7     1  0.286869387241  0.062058748940
  CN7E    HN8     1  0.288651184677  0.070011711020
  CN7E    HN9     1  0.288651184677  0.064818249282
  CN7E   HNE1     1  0.280633096214  0.073666921749
  CN7E   HNE2     1  0.281523994932  0.067464972838
  CN7E    HNP     1  0.290272620344  0.072469005789
  CN7E   HO3P     1  0.293168041178  0.170263611896
  CN7E    HOL     1  0.189271432669  0.089736802707
  CN7E     HP     1  0.290272620344  0.072469005789
  CN7E   HPER     1  0.189271432669  0.089736802707
  CN7E    HR1     1  0.249451641079  0.089736802707
  CN7E    HR2     1  0.231633666716  0.089736802707
  CN7E    HR3     1  0.300054688270  0.036952087465
  CN7E   HRA3     1  0.288651184677  0.064818249282
  CN7E   HRM1     1  0.247224394284  0.039692909190
  CN7E   HRM2     1  0.247224394284  0.041840000000
  CN7E   HRP2     1  0.189271432669  0.089736802707
  CN7E     HS     1  0.209361198763  0.132309697301
  CN7E   HSIA     1  0.286869387241  0.062058748940
  CN7E   HSIO     1  0.189271432669  0.089736802707
  CN7E     HT     1  0.189271432669  0.089736802707
  CN7E     HX     1  0.189271432669  0.089736802707
  CN7E   IGR1     1  0.368832069310  0.301712530731
  CN7E   IN3P     1  0.246449312399  0.160580590010
  CN7E   LA3P     1  0.327200372211  0.182184255566
  CN7E    LIT     1  0.284864865125  0.020196198771
  CN7E    LPH     1  0.169270756447  0.000000000000
  CN7E   LU3P     1  0.289648991242  0.166731218816
  CN7E     MG     1  0.274842254546  0.051243325419
  CN7E   MN2P     1  0.276508235149  0.171747976291
  CN7E   MN3P     1  0.203516903172  0.148045032716
  CN7E      N     1  0.334087019303  0.004184000000
  CN7E     NC     1  0.334087019303  0.324091246411
  CN7E    NC2     1  0.334087019303  0.187114168357
  CN7E  NC2D1     1  0.307360057758  0.187114168357
  CN7E  NC311     1  0.347450500075  0.088756043175
  CN7E   ND3P     1  0.313587439798  0.177117175768
  CN7E     NE     1  0.305578260322  0.122698965603
  CN7E  NG1T1     1  0.328741626994  0.177512086349
  CN7E  NG2D1     1  0.334087019303  0.187114168357
  CN7E  NG2O1     1  0.334087019303  0.187114168357
  CN7E  NG2P1     1  0.334087019303  0.187114168357
  CN7E NG2R43     1  0.334087019303  0.187114168357
  CN7E NG2R50     1  0.334087019303  0.187114168357
  CN7E NG2R51     1  0.334087019303  0.187114168357
  CN7E NG2R52     1  0.334087019303  0.187114168357
  CN7E NG2R53     1  0.334087019303  0.187114168357
  CN7E NG2R57     1  0.334087019303  0.187114168357
  CN7E NG2R60     1  0.337650614175  0.102486650838
  CN7E NG2R61     1  0.334087019303  0.187114168357
  CN7E NG2R62     1  0.352795892384  0.093557084179
  CN7E NG2R67     1  0.334087019303  0.187114168357
  CN7E NG2RC0     1  0.334087019303  0.187114168357
  CN7E  NG2S0     1  0.334087019303  0.004184000000
  CN7E  NG2S1     1  0.307360057758  0.187114168357
  CN7E  NG2S2     1  0.334087019303  0.187114168357
  CN7E  NG2S3     1  0.334087019303  0.187114168357
  CN7E  NG301     1  0.347450500075  0.078275472531
  CN7E  NG311     1  0.347450500075  0.088756043175
  CN7E  NG321     1  0.346559601357  0.102486650838
  CN7E  NG331     1  0.345668702638  0.110698234855
  CN7E NG3C51     1  0.334087019303  0.187114168357
  CN7E  NG3N1     1  0.351904993665  0.102486650838
  CN7E  NG3P0     1  0.334087019303  0.187114168357
  CN7E  NG3P1     1  0.334087019303  0.187114168357
  CN7E  NG3P2     1  0.334087019303  0.187114168357
  CN7E  NG3P3     1  0.334087019303  0.187114168357
  CN7E    NH1     1  0.307360057758  0.187114168357
  CN7E    NH2     1  0.334087019303  0.187114168357
  CN7E    NH3     1  0.334087019303  0.187114168357
  CN7E   NH3L     1  0.334087019303  0.187114168357
  CN7E    NHL     1  0.307360057758  0.187114168357
  CN7E     NI     1  0.282949432881  0.994525446633
  CN7E   NI2P     1  0.238787583423  0.158440517242
  CN7E    NN1     1  0.334087019303  0.187114168357
  CN7E   NN1C     1  0.334087019303  0.187114168357
  CN7E    NN2     1  0.334087019303  0.187114168357
  CN7E   NN2B     1  0.334087019303  0.187114168357
  CN7E   NN2C     1  0.334087019303  0.187114168357
  CN7E   NN2G     1  0.334087019303  0.187114168357
  CN7E   NN2U     1  0.334087019303  0.187114168357
  CN7E    NN3     1  0.334087019303  0.187114168357
  CN7E   NN3A     1  0.334087019303  0.187114168357
  CN7E   NN3G     1  0.334087019303  0.187114168357
  CN7E   NN3I     1  0.334087019303  0.187114168357
  CN7E    NN4     1  0.334087019303  0.187114168357
  CN7E    NN6     1  0.334087019303  0.187114168357
  CN7E    NNG     1  0.334087019303  0.187114168357
  CN7E     NP     1  0.334087019303  0.187114168357
  CN7E    NPH     1  0.334087019303  0.187114168357
  CN7E    NR1     1  0.334087019303  0.187114168357
  CN7E    NR2     1  0.334087019303  0.187114168357
  CN7E    NR3     1  0.334087019303  0.187114168357
  CN7E   NRC4     1  0.334087019303  0.187114168357
  CN7E   NRN1     1  0.347450500075  0.280671252536
  CN7E   NRN2     1  0.346559601357  0.102486650838
  CN7E    NS1     1  0.334087019303  0.187114168357
  CN7E    NS2     1  0.334087019303  0.187114168357
  CN7E    NTL     1  0.334087019303  0.187114168357
  CN7E     NY     1  0.334087019303  0.187114168357
  CN7E      O     1  0.293996576986  0.144938011577
  CN7E    O2L     1  0.320723538531  0.144938011577
  CN7E    OAL     1  0.326959829558  0.163176000000
  CN7E     OB     1  0.293996576986  0.144938011577
  CN7E    OBL     1  0.293996576986  0.144938011577
  CN7E     OC     1  0.320723538531  0.144938011577
  CN7E  OC2D1     1  0.293996576986  0.144938011577
  CN7E  OC2D2     1  0.320723538531  0.144938011577
  CN7E  OC2D3     1  0.293996576986  0.144938011577
  CN7E  OC2D4     1  0.293996576986  0.144938011577
  CN7E  OC2DP     1  0.320723538531  0.144938011577
  CN7E  OC301     1  0.316269044940  0.132309697301
  CN7E  OC302     1  0.316269044940  0.132309697301
  CN7E  OC303     1  0.316269044940  0.132309697301
  CN7E OC305A     1  0.316269044940  0.132309697301
  CN7E  OC30A     1  0.316269044940  0.132309697301
  CN7E  OC30P     1  0.326959829558  0.163176000000
  CN7E  OC311     1  0.326514380198  0.183381431383
  CN7E OC311M     1  0.326514380198  0.183381431383
  CN7E  OC312     1  0.326959829558  0.163176000000
  CN7E OC3C51     1  0.316269044940  0.132309697301
  CN7E OC3C5M     1  0.316269044940  0.132309697301
  CN7E OC3C61     1  0.316269044940  0.132309697301
  CN7E    OCA     1  0.293996576986  0.144938011577
  CN7E    OCL     1  0.320723538531  0.144938011577
  CN7E  OG2D1     1  0.293996576986  0.144938011577
  CN7E  OG2D2     1  0.320723538531  0.144938011577
  CN7E  OG2D3     1  0.293996576986  0.144938011577
  CN7E  OG2D4     1  0.320723538531  0.144938011577
  CN7E  OG2D5     1  0.320010819556  0.169954883425
  CN7E  OG2N1     1  0.320723538531  0.144938011577
  CN7E  OG2P1     1  0.320723538531  0.144938011577
  CN7E OG2R50     1  0.320723538531  0.144938011577
  CN7E  OG2S1     1  0.318906105146  0.157831660601
  CN7E  OG301     1  0.316269044940  0.132309697301
  CN7E  OG302     1  0.316269044940  0.132309697301
  CN7E  OG303     1  0.316269044940  0.132309697301
  CN7E  OG304     1  0.316269044940  0.132309697301
  CN7E  OG311     1  0.326514380198  0.183381431383
  CN7E  OG312     1  0.325178032121  0.144938011577
  CN7E OG3C31     1  0.316269044940  0.132309697301
  CN7E OG3C51     1  0.316269044940  0.132309697301
  CN7E OG3C61     1  0.316269044940  0.132309697301
  CN7E OG3R60     1  0.316269044940  0.132309697301
  CN7E    OH1     1  0.326959829558  0.163176000000
  CN7E    OHL     1  0.326959829558  0.163176000000
  CN7E   OLG1     1  0.293996576986  0.144938011577
  CN7E   OLG2     1  0.320723538531  0.144938011577
  CN7E   OLG3     1  0.320723538531  0.144938011577
  CN7E   OLG4     1  0.316269044940  0.132309697301
  CN7E   OLG5     1  0.316269044940  0.132309697301
  CN7E   OLG6     1  0.326514380198  0.183381431383
  CN7E   OLG7     1  0.316269044940  0.132309697301
  CN7E   OLG8     1  0.316269044940  0.132309697301
  CN7E     OM     1  0.320723538531  0.144938011577
  CN7E    ON1     1  0.320723538531  0.144938011577
  CN7E   ON1C     1  0.320723538531  0.144938011577
  CN7E    ON2     1  0.326959829558  0.163176000000
  CN7E   ON2B     1  0.326959829558  0.163176000000
  CN7E   ON2M     1  0.316269044940  0.132309697301
  CN7E    ON3     1  0.320723538531  0.144938011577
  CN7E    ON4     1  0.326959829558  0.163176000000
  CN7E    ON5     1  0.326959829558  0.163176000000
  CN7E    ON6     1  0.326959829558  0.163176000000
  CN7E   ON6B     1  0.326959829558  0.163176000000
  CN7E   OPER     1  0.318427692534  0.188901923946
  CN7E     OS     1  0.326959829558  0.163176000000
  CN7E   OSIA     1  0.326959829558  0.163176000000
  CN7E   OSIE     1  0.326959829558  0.163176000000
  CN7E   OSIH     1  0.326959829558  0.163176000000
  CN7E    OSL     1  0.316269044940  0.132309697301
  CN7E   OSLP     1  0.316269044940  0.132309697301
  CN7E    OST     1  0.320010819556  0.169954883425
  CN7E     OT     1  0.326799467788  0.163176000000
  CN7E     OX     1  0.320723538531  0.144938011577
  CN7E      P     1  0.360813980847  0.320014464673
  CN7E     P2     1  0.360813980847  0.320014464673
  CN7E     P3     1  0.360813980847  0.320014464673
  CN7E     P4     1  0.360813980847  0.320014464673
  CN7E     PB     1  0.328073452955  0.716185437439
  CN7E   PB2P     1  0.325890751096  0.204716924713
  CN7E     PC     1  0.360813980847  0.320014464673
  CN7E     PD     1  0.294842930769  1.037598257516
  CN7E   PD2P     1  0.251865976605  0.174628752363
  CN7E    PG0     1  0.360813980847  0.320014464673
  CN7E    PG1     1  0.360813980847  0.320014464673
  CN7E    PG2     1  0.360813980847  0.320014464673
  CN7E     PL     1  0.360813980847  0.320014464673
  CN7E   PM3P     1  0.316910492017  0.176275053255
  CN7E    POT     1  0.326403017859  0.123410269913
  CN7E   PR3P     1  0.317079762773  0.178642591472
  CN7E     PT     1  0.296001099102  1.168527606863
  CN7E   PT2P     1  0.240284293270  0.168973521997
  CN7E   PU3P     1  0.318024115415  0.179522368790
  CN7E   RA2P     1  0.355459679551  0.229891668540
  CN7E   RH3P     1  0.210367914314  0.149983415617
  CN7E    RUB     1  0.338541512893  0.162045623205
  CN7E      S     1  0.347450500075  0.280671252536
  CN7E     SC     1  0.356359487256  0.286840588481
  CN7E   SC3P     1  0.266993436839  0.157109060719
  CN7E  SEGD1     1  0.363041227642  0.330244580395
  CN7E  SG2D1     1  0.351904993665  0.314496560236
  CN7E  SG2P1     1  0.355798221064  0.332305491450
  CN7E  SG2P2     1  0.352314807076  0.329421919951
  CN7E SG2R50     1  0.347450500075  0.280671252536
  CN7E  SG301     1  0.345223253279  0.257919081884
  CN7E  SG302     1  0.365268474438  0.286840588481
  CN7E  SG311     1  0.347450500075  0.280671252536
  CN7E  SG3O1     1  0.356359487256  0.286840588481
  CN7E  SG3O2     1  0.347450500075  0.247528778125
  CN7E  SG3O3     1  0.347450500075  0.247528778125
  CN7E     SI     1  0.365268474438  0.324091246411
  CN7E   SIH3     1  0.365268474438  0.324091246411
  CN7E     SL     1  0.356359487256  0.286840588481
  CN7E     SM     1  0.345223253279  0.257919081884
  CN7E   SM2P     1  0.334666103469  0.207012887251
  CN7E   SM3P     1  0.308847858618  0.175378986746
  CN7E   SN2P     1  0.316981763914  0.181365662197
  CN7E    SOD     1  0.294954293108  0.090610410351
  CN7E     SP     1  0.365268474438  0.280671252536
  CN7E   SR2P     1  0.334612649546  0.200133451797
  CN7E     SS     1  0.365268474438  0.286840588481
  CN7E   TB3P     1  0.300678317372  0.172155203837
  CN7E   TI1P     1  0.341276571958  0.266826378666
  CN7E   TI3P     1  0.243117351193  0.149983415617
  CN7E   TL3P     1  0.246716582015  0.168869889039
  CN7E   TM3P     1  0.289417357575  0.168402751521
  CN7E    U3P     1  0.320830446377  0.182184255566
  CN7E    V2P     1  0.267599247968  0.167830039933
  CN7E    V3P     1  0.223989755715  0.147096016316
  CN7E    Y3P     1  0.295190381269  0.170263611896
  CN7E   YB2P     1  0.312616360195  0.189623385225
  CN7E   YB3P     1  0.284659958420  0.167569069413
  CN7E     ZN     1  0.266378716724  0.209200000000
   CN8    CN8     1  0.338541512893  0.041840000000
   CN8   CN8B     1  0.338541512893  0.041840000000
   CN8    CN9     1  0.338541512893  0.041840000000
   CN8    CNA     1  0.346773417049  0.110698234855
   CN8   CNA2     1  0.338541512893  0.110698234855
   CN8   CNE1     1  0.355468588538  0.109105371453
   CN8   CNE2     1  0.354577689820  0.105847757841
   CN8    CNG     1  0.347450500075  0.138767581228
   CN8   CO2P     1  0.251910521541  0.164138698618
   CN8   CO3P     1  0.192264852362  0.144393471099
   CN8    COA     1  0.347450500075  0.138767581228
   CN8    CP1     1  0.338541512893  0.041840000000
   CN8    CP2     1  0.338541512893  0.041840000000
   CN8    CP3     1  0.338541512893  0.041840000000
   CN8    CPA     1  0.329632525712  0.125520000000
   CN8    CPB     1  0.329632525712  0.125520000000
   CN8   CPD1     1  0.338541512893  0.041840000000
   CN8   CPH1     1  0.329632525712  0.093557084179
   CN8   CPH2     1  0.329632525712  0.093557084179
   CN8    CPM     1  0.329632525712  0.125520000000
   CN8    CPT     1  0.334977918021  0.131646486622
   CN8   CR2P     1  0.263634748672  0.170828164985
   CN8   CR33     1  0.338541512893  0.041840000000
   CN8   CR3P     1  0.244382427373  0.145299904804
   CN8   CRL1     1  0.338541512893  0.041840000000
   CN8   CRL2     1  0.338541512893  0.041840000000
   CN8   CRN1     1  0.347450500075  0.138767581228
   CN8     CS     1  0.365268474438  0.138767581228
   CN8    CST     1  0.308518226092  0.100764063435
   CN8     CT     1  0.338541512893  0.041840000000
   CN8    CT1     1  0.338541512893  0.041840000000
   CN8   CT1X     1  0.338541512893  0.041840000000
   CN8    CT2     1  0.338541512893  0.041840000000
   CN8   CT2A     1  0.338541512893  0.041840000000
   CN8   CT2P     1  0.338541512893  0.041840000000
   CN8   CT2X     1  0.338541512893  0.041840000000
   CN8    CT3     1  0.338541512893  0.041840000000
   CN8   CT3X     1  0.338541512893  0.041840000000
   CN8   CTD1     1  0.338541512893  0.041840000000
   CN8   CTL1     1  0.338541512893  0.041840000000
   CN8   CTL2     1  0.338541512893  0.041840000000
   CN8   CTL3     1  0.338541512893  0.041840000000
   CN8   CTL5     1  0.338541512893  0.041840000000
   CN8   CTO1     1  0.338541512893  0.041840000000
   CN8   CTO2     1  0.338541512893  0.041840000000
   CN8     CU     1  0.285800308779  0.908997471504
   CN8   CU1P     1  0.246066225950  0.180057894334
   CN8   CU2P     1  0.233869822499  0.162315474555
   CN8     CY     1  0.346559601357  0.113045454929
   CN8    DUM     1  0.169270756447  0.000000000000
   CN8   DY3P     1  0.297952167295  0.171135318061
   CN8   ER3P     1  0.291083338178  0.169232326746
   CN8   EU2P     1  0.333231756533  0.203602227414
   CN8   EU3P     1  0.304954631219  0.174528477447
   CN8     F1     1  0.314487247504  0.153729976257
   CN8     F2     1  0.314487247504  0.135577095411
   CN8     F3     1  0.311814551349  0.130309939452
   CN8     FA     1  0.320723538531  0.144938011577
   CN8     FE     1  0.227179173126  0.000000000000
   CN8   FE2P     1  0.265496726993  0.167098295383
   CN8   FE3P     1  0.219722350855  0.148045032716
   CN8   FGA1     1  0.314487247504  0.153729976257
   CN8   FGA2     1  0.314487247504  0.135577095411
   CN8   FGA3     1  0.311814551349  0.130309939452
   CN8   FGP1     1  0.311814551349  0.130309939452
   CN8   FGR1     1  0.320723538531  0.144938011577
   CN8    FNA     1  0.320723538531  0.144938011577
   CN8   GA3P     1  0.189485248361  0.145299904804
   CN8   GD3P     1  0.303351013527  0.173673803114
   CN8      H     1  0.189271432669  0.089736802707
   CN8     HA     1  0.286869387241  0.062058748940
   CN8    HA1     1  0.288651184677  0.088756043175
   CN8    HA2     1  0.288651184677  0.077149148019
   CN8    HA3     1  0.288651184677  0.064818249282
   CN8    HAL     1  0.286869387241  0.062058748940
   CN8   HAL1     1  0.286869387241  0.062058748940
   CN8   HAL2     1  0.288651184677  0.070011711020
   CN8   HAL3     1  0.288651184677  0.064818249282
   CN8     HB     1  0.286869387241  0.062058748940
   CN8    HB1     1  0.286869387241  0.062058748940
   CN8    HB2     1  0.288651184677  0.070011711020
   CN8    HBL     1  0.286869387241  0.062058748940
   CN8     HC     1  0.189271432669  0.089736802707
   CN8   HCA1     1  0.288651184677  0.088756043175
   CN8  HCA1A     1  0.288651184677  0.088756043175
   CN8 HCA1C2     1  0.288651184677  0.088756043175
   CN8   HCA2     1  0.288651184677  0.078275472531
   CN8 HCA25A     1  0.285087589805  0.078275472531
   CN8  HCA2A     1  0.288651184677  0.078275472531
   CN8 HCA2C2     1  0.285087589805  0.078275472531
   CN8   HCA3     1  0.288651184677  0.064818249282
   CN8  HCA3A     1  0.288651184677  0.064818249282
   CN8  HCA3M     1  0.288651184677  0.064818249282
   CN8    HCL     1  0.189271432669  0.089736802707
   CN8   HCP1     1  0.189271432669  0.089736802707
   CN8  HCP1M     1  0.189271432669  0.089736802707
   CN8   HCR1     1  0.240542653898  0.089736802707
   CN8     HE     1  0.301123766731  0.061020452073
   CN8    HE1     1  0.280633096214  0.073666921749
   CN8    HE2     1  0.281523994932  0.067464972838
   CN8   HEL1     1  0.280633096214  0.073666921749
   CN8   HEL2     1  0.281523994932  0.067464972838
   CN8    HF1     1  0.286869387241  0.070011711020
   CN8    HF2     1  0.285087589805  0.072469005789
   CN8   HG2P     1  0.274557166956  0.189623385225
   CN8   HGA1     1  0.288651184677  0.088756043175
   CN8   HGA2     1  0.288651184677  0.078275472531
   CN8   HGA3     1  0.288651184677  0.064818249282
   CN8   HGA4     1  0.280633096214  0.073666921749
   CN8   HGA5     1  0.281523994932  0.067464972838
   CN8   HGA6     1  0.286869387241  0.070011711020
   CN8   HGA7     1  0.285087589805  0.072469005789
   CN8 HGAAM0     1  0.283305792369  0.070011711020
   CN8 HGAAM1     1  0.283305792369  0.070011711020
   CN8 HGAAM2     1  0.281523994932  0.083680000000
   CN8   HGP1     1  0.189271432669  0.089736802707
   CN8   HGP2     1  0.189271432669  0.089736802707
   CN8   HGP3     1  0.209361198763  0.132309697301
   CN8   HGP4     1  0.189271432669  0.089736802707
   CN8   HGP5     1  0.231633666716  0.089736802707
   CN8 HGPAM1     1  0.247224394284  0.039692909190
   CN8 HGPAM2     1  0.247224394284  0.041840000000
   CN8 HGPAM3     1  0.246778944925  0.045833423612
   CN8  HGR51     1  0.290272620344  0.072469005789
   CN8  HGR52     1  0.249451641079  0.089736802707
   CN8  HGR53     1  0.231633666716  0.089736802707
   CN8  HGR61     1  0.290272620344  0.072469005789
   CN8  HGR62     1  0.267269615442  0.089736802707
   CN8  HGR63     1  0.249451641079  0.089736802707
   CN8  HGR71     1  0.290272620344  0.072469005789
   CN8     HL     1  0.231633666716  0.089736802707
   CN8  HLGA1     1  0.288651184677  0.088756043175
   CN8  HLGA2     1  0.288651184677  0.078275472531
   CN8  HLGA3     1  0.288651184677  0.064818249282
   CN8  HLGA4     1  0.280633096214  0.073666921749
   CN8  HLGP1     1  0.189271432669  0.089736802707
   CN8 HLGR52     1  0.249451641079  0.089736802707
   CN8 HLGR61     1  0.290272620344  0.072469005789
   CN8 HLGR62     1  0.267269615442  0.089736802707
   CN8    HN1     1  0.189271432669  0.089736802707
   CN8    HN2     1  0.189271432669  0.089736802707
   CN8    HN3     1  0.267269615442  0.089736802707
   CN8   HN3B     1  0.249451641079  0.089736802707
   CN8    HN4     1  0.189271432669  0.089736802707
   CN8    HN5     1  0.189271432669  0.089736802707
   CN8    HN6     1  0.286869387241  0.062058748940
   CN8    HN7     1  0.286869387241  0.062058748940
   CN8    HN8     1  0.288651184677  0.070011711020
   CN8    HN9     1  0.288651184677  0.064818249282
   CN8   HNE1     1  0.280633096214  0.073666921749
   CN8   HNE2     1  0.281523994932  0.067464972838
   CN8    HNP     1  0.290272620344  0.072469005789
   CN8   HO3P     1  0.293168041178  0.170263611896
   CN8    HOL     1  0.189271432669  0.089736802707
   CN8     HP     1  0.290272620344  0.072469005789
   CN8   HPER     1  0.189271432669  0.089736802707
   CN8    HR1     1  0.249451641079  0.089736802707
   CN8    HR2     1  0.231633666716  0.089736802707
   CN8    HR3     1  0.300054688270  0.036952087465
   CN8   HRA3     1  0.288651184677  0.064818249282
   CN8   HRM1     1  0.247224394284  0.039692909190
   CN8   HRM2     1  0.247224394284  0.041840000000
   CN8   HRP2     1  0.189271432669  0.089736802707
   CN8     HS     1  0.209361198763  0.132309697301
   CN8   HSIA     1  0.286869387241  0.062058748940
   CN8   HSIO     1  0.189271432669  0.089736802707
   CN8     HT     1  0.189271432669  0.089736802707
   CN8     HX     1  0.189271432669  0.089736802707
   CN8   IGR1     1  0.368832069310  0.301712530731
   CN8   IN3P     1  0.246449312399  0.160580590010
   CN8   LA3P     1  0.327200372211  0.182184255566
   CN8    LIT     1  0.284864865125  0.020196198771
   CN8    LPH     1  0.169270756447  0.000000000000
   CN8   LU3P     1  0.289648991242  0.166731218816
   CN8     MG     1  0.274842254546  0.051243325419
   CN8   MN2P     1  0.276508235149  0.171747976291
   CN8   MN3P     1  0.203516903172  0.148045032716
   CN8      N     1  0.334087019303  0.004184000000
   CN8     NC     1  0.334087019303  0.324091246411
   CN8    NC2     1  0.334087019303  0.187114168357
   CN8  NC2D1     1  0.307360057758  0.187114168357
   CN8  NC311     1  0.347450500075  0.088756043175
   CN8   ND3P     1  0.313587439798  0.177117175768
   CN8     NE     1  0.305578260322  0.122698965603
   CN8  NG1T1     1  0.328741626994  0.177512086349
   CN8  NG2D1     1  0.334087019303  0.187114168357
   CN8  NG2O1     1  0.334087019303  0.187114168357
   CN8  NG2P1     1  0.334087019303  0.187114168357
   CN8 NG2R43     1  0.334087019303  0.187114168357
   CN8 NG2R50     1  0.334087019303  0.187114168357
   CN8 NG2R51     1  0.334087019303  0.187114168357
   CN8 NG2R52     1  0.334087019303  0.187114168357
   CN8 NG2R53     1  0.334087019303  0.187114168357
   CN8 NG2R57     1  0.334087019303  0.187114168357
   CN8 NG2R60     1  0.337650614175  0.102486650838
   CN8 NG2R61     1  0.334087019303  0.187114168357
   CN8 NG2R62     1  0.352795892384  0.093557084179
   CN8 NG2R67     1  0.334087019303  0.187114168357
   CN8 NG2RC0     1  0.334087019303  0.187114168357
   CN8  NG2S0     1  0.334087019303  0.004184000000
   CN8  NG2S1     1  0.307360057758  0.187114168357
   CN8  NG2S2     1  0.334087019303  0.187114168357
   CN8  NG2S3     1  0.334087019303  0.187114168357
   CN8  NG301     1  0.347450500075  0.078275472531
   CN8  NG311     1  0.347450500075  0.088756043175
   CN8  NG321     1  0.346559601357  0.102486650838
   CN8  NG331     1  0.345668702638  0.110698234855
   CN8 NG3C51     1  0.334087019303  0.187114168357
   CN8  NG3N1     1  0.351904993665  0.102486650838
   CN8  NG3P0     1  0.334087019303  0.187114168357
   CN8  NG3P1     1  0.334087019303  0.187114168357
   CN8  NG3P2     1  0.334087019303  0.187114168357
   CN8  NG3P3     1  0.334087019303  0.187114168357
   CN8    NH1     1  0.307360057758  0.187114168357
   CN8    NH2     1  0.334087019303  0.187114168357
   CN8    NH3     1  0.334087019303  0.187114168357
   CN8   NH3L     1  0.334087019303  0.187114168357
   CN8    NHL     1  0.307360057758  0.187114168357
   CN8     NI     1  0.282949432881  0.994525446633
   CN8   NI2P     1  0.238787583423  0.158440517242
   CN8    NN1     1  0.334087019303  0.187114168357
   CN8   NN1C     1  0.334087019303  0.187114168357
   CN8    NN2     1  0.334087019303  0.187114168357
   CN8   NN2B     1  0.334087019303  0.187114168357
   CN8   NN2C     1  0.334087019303  0.187114168357
   CN8   NN2G     1  0.334087019303  0.187114168357
   CN8   NN2U     1  0.334087019303  0.187114168357
   CN8    NN3     1  0.334087019303  0.187114168357
   CN8   NN3A     1  0.334087019303  0.187114168357
   CN8   NN3G     1  0.334087019303  0.187114168357
   CN8   NN3I     1  0.334087019303  0.187114168357
   CN8    NN4     1  0.334087019303  0.187114168357
   CN8    NN6     1  0.334087019303  0.187114168357
   CN8    NNG     1  0.334087019303  0.187114168357
   CN8     NP     1  0.334087019303  0.187114168357
   CN8    NPH     1  0.334087019303  0.187114168357
   CN8    NR1     1  0.334087019303  0.187114168357
   CN8    NR2     1  0.334087019303  0.187114168357
   CN8    NR3     1  0.334087019303  0.187114168357
   CN8   NRC4     1  0.334087019303  0.187114168357
   CN8   NRN1     1  0.347450500075  0.280671252536
   CN8   NRN2     1  0.346559601357  0.102486650838
   CN8    NS1     1  0.334087019303  0.187114168357
   CN8    NS2     1  0.334087019303  0.187114168357
   CN8    NTL     1  0.334087019303  0.187114168357
   CN8     NY     1  0.334087019303  0.187114168357
   CN8      O     1  0.293996576986  0.144938011577
   CN8    O2L     1  0.320723538531  0.144938011577
   CN8    OAL     1  0.326959829558  0.163176000000
   CN8     OB     1  0.293996576986  0.144938011577
   CN8    OBL     1  0.293996576986  0.144938011577
   CN8     OC     1  0.320723538531  0.144938011577
   CN8  OC2D1     1  0.293996576986  0.144938011577
   CN8  OC2D2     1  0.320723538531  0.144938011577
   CN8  OC2D3     1  0.293996576986  0.144938011577
   CN8  OC2D4     1  0.293996576986  0.144938011577
   CN8  OC2DP     1  0.320723538531  0.144938011577
   CN8  OC301     1  0.316269044940  0.132309697301
   CN8  OC302     1  0.316269044940  0.132309697301
   CN8  OC303     1  0.316269044940  0.132309697301
   CN8 OC305A     1  0.316269044940  0.132309697301
   CN8  OC30A     1  0.316269044940  0.132309697301
   CN8  OC30P     1  0.326959829558  0.163176000000
   CN8  OC311     1  0.326514380198  0.183381431383
   CN8 OC311M     1  0.326514380198  0.183381431383
   CN8  OC312     1  0.326959829558  0.163176000000
   CN8 OC3C51     1  0.316269044940  0.132309697301
   CN8 OC3C5M     1  0.316269044940  0.132309697301
   CN8 OC3C61     1  0.316269044940  0.132309697301
   CN8    OCA     1  0.293996576986  0.144938011577
   CN8    OCL     1  0.320723538531  0.144938011577
   CN8  OG2D1     1  0.293996576986  0.144938011577
   CN8  OG2D2     1  0.320723538531  0.144938011577
   CN8  OG2D3     1  0.293996576986  0.144938011577
   CN8  OG2D4     1  0.320723538531  0.144938011577
   CN8  OG2D5     1  0.320010819556  0.169954883425
   CN8  OG2N1     1  0.320723538531  0.144938011577
   CN8  OG2P1     1  0.320723538531  0.144938011577
   CN8 OG2R50     1  0.320723538531  0.144938011577
   CN8  OG2S1     1  0.318906105146  0.157831660601
   CN8  OG301     1  0.316269044940  0.132309697301
   CN8  OG302     1  0.316269044940  0.132309697301
   CN8  OG303     1  0.316269044940  0.132309697301
   CN8  OG304     1  0.316269044940  0.132309697301
   CN8  OG311     1  0.326514380198  0.183381431383
   CN8  OG312     1  0.325178032121  0.144938011577
   CN8 OG3C31     1  0.316269044940  0.132309697301
   CN8 OG3C51     1  0.316269044940  0.132309697301
   CN8 OG3C61     1  0.316269044940  0.132309697301
   CN8 OG3R60     1  0.316269044940  0.132309697301
   CN8    OH1     1  0.326959829558  0.163176000000
   CN8    OHL     1  0.326959829558  0.163176000000
   CN8   OLG1     1  0.293996576986  0.144938011577
   CN8   OLG2     1  0.320723538531  0.144938011577
   CN8   OLG3     1  0.320723538531  0.144938011577
   CN8   OLG4     1  0.316269044940  0.132309697301
   CN8   OLG5     1  0.316269044940  0.132309697301
   CN8   OLG6     1  0.326514380198  0.183381431383
   CN8   OLG7     1  0.316269044940  0.132309697301
   CN8   OLG8     1  0.316269044940  0.132309697301
   CN8     OM     1  0.320723538531  0.144938011577
   CN8    ON1     1  0.320723538531  0.144938011577
   CN8   ON1C     1  0.320723538531  0.144938011577
   CN8    ON2     1  0.326959829558  0.163176000000
   CN8   ON2B     1  0.326959829558  0.163176000000
   CN8   ON2M     1  0.316269044940  0.132309697301
   CN8    ON3     1  0.320723538531  0.144938011577
   CN8    ON4     1  0.326959829558  0.163176000000
   CN8    ON5     1  0.326959829558  0.163176000000
   CN8    ON6     1  0.326959829558  0.163176000000
   CN8   ON6B     1  0.326959829558  0.163176000000
   CN8   OPER     1  0.318427692534  0.188901923946
   CN8     OS     1  0.326959829558  0.163176000000
   CN8   OSIA     1  0.326959829558  0.163176000000
   CN8   OSIE     1  0.326959829558  0.163176000000
   CN8   OSIH     1  0.326959829558  0.163176000000
   CN8    OSL     1  0.316269044940  0.132309697301
   CN8   OSLP     1  0.316269044940  0.132309697301
   CN8    OST     1  0.320010819556  0.169954883425
   CN8     OT     1  0.326799467788  0.163176000000
   CN8     OX     1  0.320723538531  0.144938011577
   CN8      P     1  0.360813980847  0.320014464673
   CN8     P2     1  0.360813980847  0.320014464673
   CN8     P3     1  0.360813980847  0.320014464673
   CN8     P4     1  0.360813980847  0.320014464673
   CN8     PB     1  0.328073452955  0.716185437439
   CN8   PB2P     1  0.325890751096  0.204716924713
   CN8     PC     1  0.360813980847  0.320014464673
   CN8     PD     1  0.294842930769  1.037598257516
   CN8   PD2P     1  0.251865976605  0.174628752363
   CN8    PG0     1  0.360813980847  0.320014464673
   CN8    PG1     1  0.360813980847  0.320014464673
   CN8    PG2     1  0.360813980847  0.320014464673
   CN8     PL     1  0.360813980847  0.320014464673
   CN8   PM3P     1  0.316910492017  0.176275053255
   CN8    POT     1  0.326403017859  0.123410269913
   CN8   PR3P     1  0.317079762773  0.178642591472
   CN8     PT     1  0.296001099102  1.168527606863
   CN8   PT2P     1  0.240284293270  0.168973521997
   CN8   PU3P     1  0.318024115415  0.179522368790
   CN8   RA2P     1  0.355459679551  0.229891668540
   CN8   RH3P     1  0.210367914314  0.149983415617
   CN8    RUB     1  0.338541512893  0.162045623205
   CN8      S     1  0.347450500075  0.280671252536
   CN8     SC     1  0.356359487256  0.286840588481
   CN8   SC3P     1  0.266993436839  0.157109060719
   CN8  SEGD1     1  0.363041227642  0.330244580395
   CN8  SG2D1     1  0.351904993665  0.314496560236
   CN8  SG2P1     1  0.355798221064  0.332305491450
   CN8  SG2P2     1  0.352314807076  0.329421919951
   CN8 SG2R50     1  0.347450500075  0.280671252536
   CN8  SG301     1  0.345223253279  0.257919081884
   CN8  SG302     1  0.365268474438  0.286840588481
   CN8  SG311     1  0.347450500075  0.280671252536
   CN8  SG3O1     1  0.356359487256  0.286840588481
   CN8  SG3O2     1  0.347450500075  0.247528778125
   CN8  SG3O3     1  0.347450500075  0.247528778125
   CN8     SI     1  0.365268474438  0.324091246411
   CN8   SIH3     1  0.365268474438  0.324091246411
   CN8     SL     1  0.356359487256  0.286840588481
   CN8     SM     1  0.345223253279  0.257919081884
   CN8   SM2P     1  0.334666103469  0.207012887251
   CN8   SM3P     1  0.308847858618  0.175378986746
   CN8   SN2P     1  0.316981763914  0.181365662197
   CN8    SOD     1  0.294954293108  0.090610410351
   CN8     SP     1  0.365268474438  0.280671252536
   CN8   SR2P     1  0.334612649546  0.200133451797
   CN8     SS     1  0.365268474438  0.286840588481
   CN8   TB3P     1  0.300678317372  0.172155203837
   CN8   TI1P     1  0.341276571958  0.266826378666
   CN8   TI3P     1  0.243117351193  0.149983415617
   CN8   TL3P     1  0.246716582015  0.168869889039
   CN8   TM3P     1  0.289417357575  0.168402751521
   CN8    U3P     1  0.320830446377  0.182184255566
   CN8    V2P     1  0.267599247968  0.167830039933
   CN8    V3P     1  0.223989755715  0.147096016316
   CN8    Y3P     1  0.295190381269  0.170263611896
   CN8   YB2P     1  0.312616360195  0.189623385225
   CN8   YB3P     1  0.284659958420  0.167569069413
   CN8     ZN     1  0.266378716724  0.209200000000
  CN8B   CN8B     1  0.338541512893  0.041840000000
  CN8B    CN9     1  0.338541512893  0.041840000000
  CN8B    CNA     1  0.346773417049  0.110698234855
  CN8B   CNA2     1  0.338541512893  0.110698234855
  CN8B   CNE1     1  0.355468588538  0.109105371453
  CN8B   CNE2     1  0.354577689820  0.105847757841
  CN8B    CNG     1  0.347450500075  0.138767581228
  CN8B   CO2P     1  0.251910521541  0.164138698618
  CN8B   CO3P     1  0.192264852362  0.144393471099
  CN8B    COA     1  0.347450500075  0.138767581228
  CN8B    CP1     1  0.338541512893  0.041840000000
  CN8B    CP2     1  0.338541512893  0.041840000000
  CN8B    CP3     1  0.338541512893  0.041840000000
  CN8B    CPA     1  0.329632525712  0.125520000000
  CN8B    CPB     1  0.329632525712  0.125520000000
  CN8B   CPD1     1  0.338541512893  0.041840000000
  CN8B   CPH1     1  0.329632525712  0.093557084179
  CN8B   CPH2     1  0.329632525712  0.093557084179
  CN8B    CPM     1  0.329632525712  0.125520000000
  CN8B    CPT     1  0.334977918021  0.131646486622
  CN8B   CR2P     1  0.263634748672  0.170828164985
  CN8B   CR33     1  0.338541512893  0.041840000000
  CN8B   CR3P     1  0.244382427373  0.145299904804
  CN8B   CRL1     1  0.338541512893  0.041840000000
  CN8B   CRL2     1  0.338541512893  0.041840000000
  CN8B   CRN1     1  0.347450500075  0.138767581228
  CN8B     CS     1  0.365268474438  0.138767581228
  CN8B    CST     1  0.308518226092  0.100764063435
  CN8B     CT     1  0.338541512893  0.041840000000
  CN8B    CT1     1  0.338541512893  0.041840000000
  CN8B   CT1X     1  0.338541512893  0.041840000000
  CN8B    CT2     1  0.338541512893  0.041840000000
  CN8B   CT2A     1  0.338541512893  0.041840000000
  CN8B   CT2P     1  0.338541512893  0.041840000000
  CN8B   CT2X     1  0.338541512893  0.041840000000
  CN8B    CT3     1  0.338541512893  0.041840000000
  CN8B   CT3X     1  0.338541512893  0.041840000000
  CN8B   CTD1     1  0.338541512893  0.041840000000
  CN8B   CTL1     1  0.338541512893  0.041840000000
  CN8B   CTL2     1  0.338541512893  0.041840000000
  CN8B   CTL3     1  0.338541512893  0.041840000000
  CN8B   CTL5     1  0.338541512893  0.041840000000
  CN8B   CTO1     1  0.338541512893  0.041840000000
  CN8B   CTO2     1  0.338541512893  0.041840000000
  CN8B     CU     1  0.285800308779  0.908997471504
  CN8B   CU1P     1  0.246066225950  0.180057894334
  CN8B   CU2P     1  0.233869822499  0.162315474555
  CN8B     CY     1  0.346559601357  0.113045454929
  CN8B    DUM     1  0.169270756447  0.000000000000
  CN8B   DY3P     1  0.297952167295  0.171135318061
  CN8B   ER3P     1  0.291083338178  0.169232326746
  CN8B   EU2P     1  0.333231756533  0.203602227414
  CN8B   EU3P     1  0.304954631219  0.174528477447
  CN8B     F1     1  0.314487247504  0.153729976257
  CN8B     F2     1  0.314487247504  0.135577095411
  CN8B     F3     1  0.311814551349  0.130309939452
  CN8B     FA     1  0.320723538531  0.144938011577
  CN8B     FE     1  0.227179173126  0.000000000000
  CN8B   FE2P     1  0.265496726993  0.167098295383
  CN8B   FE3P     1  0.219722350855  0.148045032716
  CN8B   FGA1     1  0.314487247504  0.153729976257
  CN8B   FGA2     1  0.314487247504  0.135577095411
  CN8B   FGA3     1  0.311814551349  0.130309939452
  CN8B   FGP1     1  0.311814551349  0.130309939452
  CN8B   FGR1     1  0.320723538531  0.144938011577
  CN8B    FNA     1  0.320723538531  0.144938011577
  CN8B   GA3P     1  0.189485248361  0.145299904804
  CN8B   GD3P     1  0.303351013527  0.173673803114
  CN8B      H     1  0.189271432669  0.089736802707
  CN8B     HA     1  0.286869387241  0.062058748940
  CN8B    HA1     1  0.288651184677  0.088756043175
  CN8B    HA2     1  0.288651184677  0.077149148019
  CN8B    HA3     1  0.288651184677  0.064818249282
  CN8B    HAL     1  0.286869387241  0.062058748940
  CN8B   HAL1     1  0.286869387241  0.062058748940
  CN8B   HAL2     1  0.288651184677  0.070011711020
  CN8B   HAL3     1  0.288651184677  0.064818249282
  CN8B     HB     1  0.286869387241  0.062058748940
  CN8B    HB1     1  0.286869387241  0.062058748940
  CN8B    HB2     1  0.288651184677  0.070011711020
  CN8B    HBL     1  0.286869387241  0.062058748940
  CN8B     HC     1  0.189271432669  0.089736802707
  CN8B   HCA1     1  0.288651184677  0.088756043175
  CN8B  HCA1A     1  0.288651184677  0.088756043175
  CN8B HCA1C2     1  0.288651184677  0.088756043175
  CN8B   HCA2     1  0.288651184677  0.078275472531
  CN8B HCA25A     1  0.285087589805  0.078275472531
  CN8B  HCA2A     1  0.288651184677  0.078275472531
  CN8B HCA2C2     1  0.285087589805  0.078275472531
  CN8B   HCA3     1  0.288651184677  0.064818249282
  CN8B  HCA3A     1  0.288651184677  0.064818249282
  CN8B  HCA3M     1  0.288651184677  0.064818249282
  CN8B    HCL     1  0.189271432669  0.089736802707
  CN8B   HCP1     1  0.189271432669  0.089736802707
  CN8B  HCP1M     1  0.189271432669  0.089736802707
  CN8B   HCR1     1  0.240542653898  0.089736802707
  CN8B     HE     1  0.301123766731  0.061020452073
  CN8B    HE1     1  0.280633096214  0.073666921749
  CN8B    HE2     1  0.281523994932  0.067464972838
  CN8B   HEL1     1  0.280633096214  0.073666921749
  CN8B   HEL2     1  0.281523994932  0.067464972838
  CN8B    HF1     1  0.286869387241  0.070011711020
  CN8B    HF2     1  0.285087589805  0.072469005789
  CN8B   HG2P     1  0.274557166956  0.189623385225
  CN8B   HGA1     1  0.288651184677  0.088756043175
  CN8B   HGA2     1  0.288651184677  0.078275472531
  CN8B   HGA3     1  0.288651184677  0.064818249282
  CN8B   HGA4     1  0.280633096214  0.073666921749
  CN8B   HGA5     1  0.281523994932  0.067464972838
  CN8B   HGA6     1  0.286869387241  0.070011711020
  CN8B   HGA7     1  0.285087589805  0.072469005789
  CN8B HGAAM0     1  0.283305792369  0.070011711020
  CN8B HGAAM1     1  0.283305792369  0.070011711020
  CN8B HGAAM2     1  0.281523994932  0.083680000000
  CN8B   HGP1     1  0.189271432669  0.089736802707
  CN8B   HGP2     1  0.189271432669  0.089736802707
  CN8B   HGP3     1  0.209361198763  0.132309697301
  CN8B   HGP4     1  0.189271432669  0.089736802707
  CN8B   HGP5     1  0.231633666716  0.089736802707
  CN8B HGPAM1     1  0.247224394284  0.039692909190
  CN8B HGPAM2     1  0.247224394284  0.041840000000
  CN8B HGPAM3     1  0.246778944925  0.045833423612
  CN8B  HGR51     1  0.290272620344  0.072469005789
  CN8B  HGR52     1  0.249451641079  0.089736802707
  CN8B  HGR53     1  0.231633666716  0.089736802707
  CN8B  HGR61     1  0.290272620344  0.072469005789
  CN8B  HGR62     1  0.267269615442  0.089736802707
  CN8B  HGR63     1  0.249451641079  0.089736802707
  CN8B  HGR71     1  0.290272620344  0.072469005789
  CN8B     HL     1  0.231633666716  0.089736802707
  CN8B  HLGA1     1  0.288651184677  0.088756043175
  CN8B  HLGA2     1  0.288651184677  0.078275472531
  CN8B  HLGA3     1  0.288651184677  0.064818249282
  CN8B  HLGA4     1  0.280633096214  0.073666921749
  CN8B  HLGP1     1  0.189271432669  0.089736802707
  CN8B HLGR52     1  0.249451641079  0.089736802707
  CN8B HLGR61     1  0.290272620344  0.072469005789
  CN8B HLGR62     1  0.267269615442  0.089736802707
  CN8B    HN1     1  0.189271432669  0.089736802707
  CN8B    HN2     1  0.189271432669  0.089736802707
  CN8B    HN3     1  0.267269615442  0.089736802707
  CN8B   HN3B     1  0.249451641079  0.089736802707
  CN8B    HN4     1  0.189271432669  0.089736802707
  CN8B    HN5     1  0.189271432669  0.089736802707
  CN8B    HN6     1  0.286869387241  0.062058748940
  CN8B    HN7     1  0.286869387241  0.062058748940
  CN8B    HN8     1  0.288651184677  0.070011711020
  CN8B    HN9     1  0.288651184677  0.064818249282
  CN8B   HNE1     1  0.280633096214  0.073666921749
  CN8B   HNE2     1  0.281523994932  0.067464972838
  CN8B    HNP     1  0.290272620344  0.072469005789
  CN8B   HO3P     1  0.293168041178  0.170263611896
  CN8B    HOL     1  0.189271432669  0.089736802707
  CN8B     HP     1  0.290272620344  0.072469005789
  CN8B   HPER     1  0.189271432669  0.089736802707
  CN8B    HR1     1  0.249451641079  0.089736802707
  CN8B    HR2     1  0.231633666716  0.089736802707
  CN8B    HR3     1  0.300054688270  0.036952087465
  CN8B   HRA3     1  0.288651184677  0.064818249282
  CN8B   HRM1     1  0.247224394284  0.039692909190
  CN8B   HRM2     1  0.247224394284  0.041840000000
  CN8B   HRP2     1  0.189271432669  0.089736802707
  CN8B     HS     1  0.209361198763  0.132309697301
  CN8B   HSIA     1  0.286869387241  0.062058748940
  CN8B   HSIO     1  0.189271432669  0.089736802707
  CN8B     HT     1  0.189271432669  0.089736802707
  CN8B     HX     1  0.189271432669  0.089736802707
  CN8B   IGR1     1  0.368832069310  0.301712530731
  CN8B   IN3P     1  0.246449312399  0.160580590010
  CN8B   LA3P     1  0.327200372211  0.182184255566
  CN8B    LIT     1  0.284864865125  0.020196198771
  CN8B    LPH     1  0.169270756447  0.000000000000
  CN8B   LU3P     1  0.289648991242  0.166731218816
  CN8B     MG     1  0.274842254546  0.051243325419
  CN8B   MN2P     1  0.276508235149  0.171747976291
  CN8B   MN3P     1  0.203516903172  0.148045032716
  CN8B      N     1  0.334087019303  0.004184000000
  CN8B     NC     1  0.334087019303  0.324091246411
  CN8B    NC2     1  0.334087019303  0.187114168357
  CN8B  NC2D1     1  0.307360057758  0.187114168357
  CN8B  NC311     1  0.347450500075  0.088756043175
  CN8B   ND3P     1  0.313587439798  0.177117175768
  CN8B     NE     1  0.305578260322  0.122698965603
  CN8B  NG1T1     1  0.328741626994  0.177512086349
  CN8B  NG2D1     1  0.334087019303  0.187114168357
  CN8B  NG2O1     1  0.334087019303  0.187114168357
  CN8B  NG2P1     1  0.334087019303  0.187114168357
  CN8B NG2R43     1  0.334087019303  0.187114168357
  CN8B NG2R50     1  0.334087019303  0.187114168357
  CN8B NG2R51     1  0.334087019303  0.187114168357
  CN8B NG2R52     1  0.334087019303  0.187114168357
  CN8B NG2R53     1  0.334087019303  0.187114168357
  CN8B NG2R57     1  0.334087019303  0.187114168357
  CN8B NG2R60     1  0.337650614175  0.102486650838
  CN8B NG2R61     1  0.334087019303  0.187114168357
  CN8B NG2R62     1  0.352795892384  0.093557084179
  CN8B NG2R67     1  0.334087019303  0.187114168357
  CN8B NG2RC0     1  0.334087019303  0.187114168357
  CN8B  NG2S0     1  0.334087019303  0.004184000000
  CN8B  NG2S1     1  0.307360057758  0.187114168357
  CN8B  NG2S2     1  0.334087019303  0.187114168357
  CN8B  NG2S3     1  0.334087019303  0.187114168357
  CN8B  NG301     1  0.347450500075  0.078275472531
  CN8B  NG311     1  0.347450500075  0.088756043175
  CN8B  NG321     1  0.346559601357  0.102486650838
  CN8B  NG331     1  0.345668702638  0.110698234855
  CN8B NG3C51     1  0.334087019303  0.187114168357
  CN8B  NG3N1     1  0.351904993665  0.102486650838
  CN8B  NG3P0     1  0.334087019303  0.187114168357
  CN8B  NG3P1     1  0.334087019303  0.187114168357
  CN8B  NG3P2     1  0.334087019303  0.187114168357
  CN8B  NG3P3     1  0.334087019303  0.187114168357
  CN8B    NH1     1  0.307360057758  0.187114168357
  CN8B    NH2     1  0.334087019303  0.187114168357
  CN8B    NH3     1  0.334087019303  0.187114168357
  CN8B   NH3L     1  0.334087019303  0.187114168357
  CN8B    NHL     1  0.307360057758  0.187114168357
  CN8B     NI     1  0.282949432881  0.994525446633
  CN8B   NI2P     1  0.238787583423  0.158440517242
  CN8B    NN1     1  0.334087019303  0.187114168357
  CN8B   NN1C     1  0.334087019303  0.187114168357
  CN8B    NN2     1  0.334087019303  0.187114168357
  CN8B   NN2B     1  0.334087019303  0.187114168357
  CN8B   NN2C     1  0.334087019303  0.187114168357
  CN8B   NN2G     1  0.334087019303  0.187114168357
  CN8B   NN2U     1  0.334087019303  0.187114168357
  CN8B    NN3     1  0.334087019303  0.187114168357
  CN8B   NN3A     1  0.334087019303  0.187114168357
  CN8B   NN3G     1  0.334087019303  0.187114168357
  CN8B   NN3I     1  0.334087019303  0.187114168357
  CN8B    NN4     1  0.334087019303  0.187114168357
  CN8B    NN6     1  0.334087019303  0.187114168357
  CN8B    NNG     1  0.334087019303  0.187114168357
  CN8B     NP     1  0.334087019303  0.187114168357
  CN8B    NPH     1  0.334087019303  0.187114168357
  CN8B    NR1     1  0.334087019303  0.187114168357
  CN8B    NR2     1  0.334087019303  0.187114168357
  CN8B    NR3     1  0.334087019303  0.187114168357
  CN8B   NRC4     1  0.334087019303  0.187114168357
  CN8B   NRN1     1  0.347450500075  0.280671252536
  CN8B   NRN2     1  0.346559601357  0.102486650838
  CN8B    NS1     1  0.334087019303  0.187114168357
  CN8B    NS2     1  0.334087019303  0.187114168357
  CN8B    NTL     1  0.334087019303  0.187114168357
  CN8B     NY     1  0.334087019303  0.187114168357
  CN8B      O     1  0.293996576986  0.144938011577
  CN8B    O2L     1  0.320723538531  0.144938011577
  CN8B    OAL     1  0.326959829558  0.163176000000
  CN8B     OB     1  0.293996576986  0.144938011577
  CN8B    OBL     1  0.293996576986  0.144938011577
  CN8B     OC     1  0.320723538531  0.144938011577
  CN8B  OC2D1     1  0.293996576986  0.144938011577
  CN8B  OC2D2     1  0.320723538531  0.144938011577
  CN8B  OC2D3     1  0.293996576986  0.144938011577
  CN8B  OC2D4     1  0.293996576986  0.144938011577
  CN8B  OC2DP     1  0.320723538531  0.144938011577
  CN8B  OC301     1  0.316269044940  0.132309697301
  CN8B  OC302     1  0.316269044940  0.132309697301
  CN8B  OC303     1  0.316269044940  0.132309697301
  CN8B OC305A     1  0.316269044940  0.132309697301
  CN8B  OC30A     1  0.316269044940  0.132309697301
  CN8B  OC30P     1  0.326959829558  0.163176000000
  CN8B  OC311     1  0.326514380198  0.183381431383
  CN8B OC311M     1  0.326514380198  0.183381431383
  CN8B  OC312     1  0.326959829558  0.163176000000
  CN8B OC3C51     1  0.316269044940  0.132309697301
  CN8B OC3C5M     1  0.316269044940  0.132309697301
  CN8B OC3C61     1  0.316269044940  0.132309697301
  CN8B    OCA     1  0.293996576986  0.144938011577
  CN8B    OCL     1  0.320723538531  0.144938011577
  CN8B  OG2D1     1  0.293996576986  0.144938011577
  CN8B  OG2D2     1  0.320723538531  0.144938011577
  CN8B  OG2D3     1  0.293996576986  0.144938011577
  CN8B  OG2D4     1  0.320723538531  0.144938011577
  CN8B  OG2D5     1  0.320010819556  0.169954883425
  CN8B  OG2N1     1  0.320723538531  0.144938011577
  CN8B  OG2P1     1  0.320723538531  0.144938011577
  CN8B OG2R50     1  0.320723538531  0.144938011577
  CN8B  OG2S1     1  0.318906105146  0.157831660601
  CN8B  OG301     1  0.316269044940  0.132309697301
  CN8B  OG302     1  0.316269044940  0.132309697301
  CN8B  OG303     1  0.316269044940  0.132309697301
  CN8B  OG304     1  0.316269044940  0.132309697301
  CN8B  OG311     1  0.326514380198  0.183381431383
  CN8B  OG312     1  0.325178032121  0.144938011577
  CN8B OG3C31     1  0.316269044940  0.132309697301
  CN8B OG3C51     1  0.316269044940  0.132309697301
  CN8B OG3C61     1  0.316269044940  0.132309697301
  CN8B OG3R60     1  0.316269044940  0.132309697301
  CN8B    OH1     1  0.326959829558  0.163176000000
  CN8B    OHL     1  0.326959829558  0.163176000000
  CN8B   OLG1     1  0.293996576986  0.144938011577
  CN8B   OLG2     1  0.320723538531  0.144938011577
  CN8B   OLG3     1  0.320723538531  0.144938011577
  CN8B   OLG4     1  0.316269044940  0.132309697301
  CN8B   OLG5     1  0.316269044940  0.132309697301
  CN8B   OLG6     1  0.326514380198  0.183381431383
  CN8B   OLG7     1  0.316269044940  0.132309697301
  CN8B   OLG8     1  0.316269044940  0.132309697301
  CN8B     OM     1  0.320723538531  0.144938011577
  CN8B    ON1     1  0.320723538531  0.144938011577
  CN8B   ON1C     1  0.320723538531  0.144938011577
  CN8B    ON2     1  0.326959829558  0.163176000000
  CN8B   ON2B     1  0.326959829558  0.163176000000
  CN8B   ON2M     1  0.316269044940  0.132309697301
  CN8B    ON3     1  0.320723538531  0.144938011577
  CN8B    ON4     1  0.326959829558  0.163176000000
  CN8B    ON5     1  0.326959829558  0.163176000000
  CN8B    ON6     1  0.326959829558  0.163176000000
  CN8B   ON6B     1  0.326959829558  0.163176000000
  CN8B   OPER     1  0.318427692534  0.188901923946
  CN8B     OS     1  0.326959829558  0.163176000000
  CN8B   OSIA     1  0.326959829558  0.163176000000
  CN8B   OSIE     1  0.326959829558  0.163176000000
  CN8B   OSIH     1  0.326959829558  0.163176000000
  CN8B    OSL     1  0.316269044940  0.132309697301
  CN8B   OSLP     1  0.316269044940  0.132309697301
  CN8B    OST     1  0.320010819556  0.169954883425
  CN8B     OT     1  0.326799467788  0.163176000000
  CN8B     OX     1  0.320723538531  0.144938011577
  CN8B      P     1  0.360813980847  0.320014464673
  CN8B     P2     1  0.360813980847  0.320014464673
  CN8B     P3     1  0.360813980847  0.320014464673
  CN8B     P4     1  0.360813980847  0.320014464673
  CN8B     PB     1  0.328073452955  0.716185437439
  CN8B   PB2P     1  0.325890751096  0.204716924713
  CN8B     PC     1  0.360813980847  0.320014464673
  CN8B     PD     1  0.294842930769  1.037598257516
  CN8B   PD2P     1  0.251865976605  0.174628752363
  CN8B    PG0     1  0.360813980847  0.320014464673
  CN8B    PG1     1  0.360813980847  0.320014464673
  CN8B    PG2     1  0.360813980847  0.320014464673
  CN8B     PL     1  0.360813980847  0.320014464673
  CN8B   PM3P     1  0.316910492017  0.176275053255
  CN8B    POT     1  0.326403017859  0.123410269913
  CN8B   PR3P     1  0.317079762773  0.178642591472
  CN8B     PT     1  0.296001099102  1.168527606863
  CN8B   PT2P     1  0.240284293270  0.168973521997
  CN8B   PU3P     1  0.318024115415  0.179522368790
  CN8B   RA2P     1  0.355459679551  0.229891668540
  CN8B   RH3P     1  0.210367914314  0.149983415617
  CN8B    RUB     1  0.338541512893  0.162045623205
  CN8B      S     1  0.347450500075  0.280671252536
  CN8B     SC     1  0.356359487256  0.286840588481
  CN8B   SC3P     1  0.266993436839  0.157109060719
  CN8B  SEGD1     1  0.363041227642  0.330244580395
  CN8B  SG2D1     1  0.351904993665  0.314496560236
  CN8B  SG2P1     1  0.355798221064  0.332305491450
  CN8B  SG2P2     1  0.352314807076  0.329421919951
  CN8B SG2R50     1  0.347450500075  0.280671252536
  CN8B  SG301     1  0.345223253279  0.257919081884
  CN8B  SG302     1  0.365268474438  0.286840588481
  CN8B  SG311     1  0.347450500075  0.280671252536
  CN8B  SG3O1     1  0.356359487256  0.286840588481
  CN8B  SG3O2     1  0.347450500075  0.247528778125
  CN8B  SG3O3     1  0.347450500075  0.247528778125
  CN8B     SI     1  0.365268474438  0.324091246411
  CN8B   SIH3     1  0.365268474438  0.324091246411
  CN8B     SL     1  0.356359487256  0.286840588481
  CN8B     SM     1  0.345223253279  0.257919081884
  CN8B   SM2P     1  0.334666103469  0.207012887251
  CN8B   SM3P     1  0.308847858618  0.175378986746
  CN8B   SN2P     1  0.316981763914  0.181365662197
  CN8B    SOD     1  0.294954293108  0.090610410351
  CN8B     SP     1  0.365268474438  0.280671252536
  CN8B   SR2P     1  0.334612649546  0.200133451797
  CN8B     SS     1  0.365268474438  0.286840588481
  CN8B   TB3P     1  0.300678317372  0.172155203837
  CN8B   TI1P     1  0.341276571958  0.266826378666
  CN8B   TI3P     1  0.243117351193  0.149983415617
  CN8B   TL3P     1  0.246716582015  0.168869889039
  CN8B   TM3P     1  0.289417357575  0.168402751521
  CN8B    U3P     1  0.320830446377  0.182184255566
  CN8B    V2P     1  0.267599247968  0.167830039933
  CN8B    V3P     1  0.223989755715  0.147096016316
  CN8B    Y3P     1  0.295190381269  0.170263611896
  CN8B   YB2P     1  0.312616360195  0.189623385225
  CN8B   YB3P     1  0.284659958420  0.167569069413
  CN8B     ZN     1  0.266378716724  0.209200000000
   CN9    CN9     1  0.338541512893  0.041840000000
   CN9    CNA     1  0.346773417049  0.110698234855
   CN9   CNA2     1  0.338541512893  0.110698234855
   CN9   CNE1     1  0.355468588538  0.109105371453
   CN9   CNE2     1  0.354577689820  0.105847757841
   CN9    CNG     1  0.347450500075  0.138767581228
   CN9   CO2P     1  0.251910521541  0.164138698618
   CN9   CO3P     1  0.192264852362  0.144393471099
   CN9    COA     1  0.347450500075  0.138767581228
   CN9    CP1     1  0.338541512893  0.041840000000
   CN9    CP2     1  0.338541512893  0.041840000000
   CN9    CP3     1  0.338541512893  0.041840000000
   CN9    CPA     1  0.329632525712  0.125520000000
   CN9    CPB     1  0.329632525712  0.125520000000
   CN9   CPD1     1  0.338541512893  0.041840000000
   CN9   CPH1     1  0.329632525712  0.093557084179
   CN9   CPH2     1  0.329632525712  0.093557084179
   CN9    CPM     1  0.329632525712  0.125520000000
   CN9    CPT     1  0.334977918021  0.131646486622
   CN9   CR2P     1  0.263634748672  0.170828164985
   CN9   CR33     1  0.338541512893  0.041840000000
   CN9   CR3P     1  0.244382427373  0.145299904804
   CN9   CRL1     1  0.338541512893  0.041840000000
   CN9   CRL2     1  0.338541512893  0.041840000000
   CN9   CRN1     1  0.347450500075  0.138767581228
   CN9     CS     1  0.365268474438  0.138767581228
   CN9    CST     1  0.308518226092  0.100764063435
   CN9     CT     1  0.338541512893  0.041840000000
   CN9    CT1     1  0.338541512893  0.041840000000
   CN9   CT1X     1  0.338541512893  0.041840000000
   CN9    CT2     1  0.338541512893  0.041840000000
   CN9   CT2A     1  0.338541512893  0.041840000000
   CN9   CT2P     1  0.338541512893  0.041840000000
   CN9   CT2X     1  0.338541512893  0.041840000000
   CN9    CT3     1  0.338541512893  0.041840000000
   CN9   CT3X     1  0.338541512893  0.041840000000
   CN9   CTD1     1  0.338541512893  0.041840000000
   CN9   CTL1     1  0.338541512893  0.041840000000
   CN9   CTL2     1  0.338541512893  0.041840000000
   CN9   CTL3     1  0.338541512893  0.041840000000
   CN9   CTL5     1  0.338541512893  0.041840000000
   CN9   CTO1     1  0.338541512893  0.041840000000
   CN9   CTO2     1  0.338541512893  0.041840000000
   CN9     CU     1  0.285800308779  0.908997471504
   CN9   CU1P     1  0.246066225950  0.180057894334
   CN9   CU2P     1  0.233869822499  0.162315474555
   CN9     CY     1  0.346559601357  0.113045454929
   CN9    DUM     1  0.169270756447  0.000000000000
   CN9   DY3P     1  0.297952167295  0.171135318061
   CN9   ER3P     1  0.291083338178  0.169232326746
   CN9   EU2P     1  0.333231756533  0.203602227414
   CN9   EU3P     1  0.304954631219  0.174528477447
   CN9     F1     1  0.314487247504  0.153729976257
   CN9     F2     1  0.314487247504  0.135577095411
   CN9     F3     1  0.311814551349  0.130309939452
   CN9     FA     1  0.320723538531  0.144938011577
   CN9     FE     1  0.227179173126  0.000000000000
   CN9   FE2P     1  0.265496726993  0.167098295383
   CN9   FE3P     1  0.219722350855  0.148045032716
   CN9   FGA1     1  0.314487247504  0.153729976257
   CN9   FGA2     1  0.314487247504  0.135577095411
   CN9   FGA3     1  0.311814551349  0.130309939452
   CN9   FGP1     1  0.311814551349  0.130309939452
   CN9   FGR1     1  0.320723538531  0.144938011577
   CN9    FNA     1  0.320723538531  0.144938011577
   CN9   GA3P     1  0.189485248361  0.145299904804
   CN9   GD3P     1  0.303351013527  0.173673803114
   CN9      H     1  0.189271432669  0.089736802707
   CN9     HA     1  0.286869387241  0.062058748940
   CN9    HA1     1  0.288651184677  0.088756043175
   CN9    HA2     1  0.288651184677  0.077149148019
   CN9    HA3     1  0.288651184677  0.064818249282
   CN9    HAL     1  0.286869387241  0.062058748940
   CN9   HAL1     1  0.286869387241  0.062058748940
   CN9   HAL2     1  0.288651184677  0.070011711020
   CN9   HAL3     1  0.288651184677  0.064818249282
   CN9     HB     1  0.286869387241  0.062058748940
   CN9    HB1     1  0.286869387241  0.062058748940
   CN9    HB2     1  0.288651184677  0.070011711020
   CN9    HBL     1  0.286869387241  0.062058748940
   CN9     HC     1  0.189271432669  0.089736802707
   CN9   HCA1     1  0.288651184677  0.088756043175
   CN9  HCA1A     1  0.288651184677  0.088756043175
   CN9 HCA1C2     1  0.288651184677  0.088756043175
   CN9   HCA2     1  0.288651184677  0.078275472531
   CN9 HCA25A     1  0.285087589805  0.078275472531
   CN9  HCA2A     1  0.288651184677  0.078275472531
   CN9 HCA2C2     1  0.285087589805  0.078275472531
   CN9   HCA3     1  0.288651184677  0.064818249282
   CN9  HCA3A     1  0.288651184677  0.064818249282
   CN9  HCA3M     1  0.288651184677  0.064818249282
   CN9    HCL     1  0.189271432669  0.089736802707
   CN9   HCP1     1  0.189271432669  0.089736802707
   CN9  HCP1M     1  0.189271432669  0.089736802707
   CN9   HCR1     1  0.240542653898  0.089736802707
   CN9     HE     1  0.301123766731  0.061020452073
   CN9    HE1     1  0.280633096214  0.073666921749
   CN9    HE2     1  0.281523994932  0.067464972838
   CN9   HEL1     1  0.280633096214  0.073666921749
   CN9   HEL2     1  0.281523994932  0.067464972838
   CN9    HF1     1  0.286869387241  0.070011711020
   CN9    HF2     1  0.285087589805  0.072469005789
   CN9   HG2P     1  0.274557166956  0.189623385225
   CN9   HGA1     1  0.288651184677  0.088756043175
   CN9   HGA2     1  0.288651184677  0.078275472531
   CN9   HGA3     1  0.288651184677  0.064818249282
   CN9   HGA4     1  0.280633096214  0.073666921749
   CN9   HGA5     1  0.281523994932  0.067464972838
   CN9   HGA6     1  0.286869387241  0.070011711020
   CN9   HGA7     1  0.285087589805  0.072469005789
   CN9 HGAAM0     1  0.283305792369  0.070011711020
   CN9 HGAAM1     1  0.283305792369  0.070011711020
   CN9 HGAAM2     1  0.281523994932  0.083680000000
   CN9   HGP1     1  0.189271432669  0.089736802707
   CN9   HGP2     1  0.189271432669  0.089736802707
   CN9   HGP3     1  0.209361198763  0.132309697301
   CN9   HGP4     1  0.189271432669  0.089736802707
   CN9   HGP5     1  0.231633666716  0.089736802707
   CN9 HGPAM1     1  0.247224394284  0.039692909190
   CN9 HGPAM2     1  0.247224394284  0.041840000000
   CN9 HGPAM3     1  0.246778944925  0.045833423612
   CN9  HGR51     1  0.290272620344  0.072469005789
   CN9  HGR52     1  0.249451641079  0.089736802707
   CN9  HGR53     1  0.231633666716  0.089736802707
   CN9  HGR61     1  0.290272620344  0.072469005789
   CN9  HGR62     1  0.267269615442  0.089736802707
   CN9  HGR63     1  0.249451641079  0.089736802707
   CN9  HGR71     1  0.290272620344  0.072469005789
   CN9     HL     1  0.231633666716  0.089736802707
   CN9  HLGA1     1  0.288651184677  0.088756043175
   CN9  HLGA2     1  0.288651184677  0.078275472531
   CN9  HLGA3     1  0.288651184677  0.064818249282
   CN9  HLGA4     1  0.280633096214  0.073666921749
   CN9  HLGP1     1  0.189271432669  0.089736802707
   CN9 HLGR52     1  0.249451641079  0.089736802707
   CN9 HLGR61     1  0.290272620344  0.072469005789
   CN9 HLGR62     1  0.267269615442  0.089736802707
   CN9    HN1     1  0.189271432669  0.089736802707
   CN9    HN2     1  0.189271432669  0.089736802707
   CN9    HN3     1  0.267269615442  0.089736802707
   CN9   HN3B     1  0.249451641079  0.089736802707
   CN9    HN4     1  0.189271432669  0.089736802707
   CN9    HN5     1  0.189271432669  0.089736802707
   CN9    HN6     1  0.286869387241  0.062058748940
   CN9    HN7     1  0.286869387241  0.062058748940
   CN9    HN8     1  0.288651184677  0.070011711020
   CN9    HN9     1  0.288651184677  0.064818249282
   CN9   HNE1     1  0.280633096214  0.073666921749
   CN9   HNE2     1  0.281523994932  0.067464972838
   CN9    HNP     1  0.290272620344  0.072469005789
   CN9   HO3P     1  0.293168041178  0.170263611896
   CN9    HOL     1  0.189271432669  0.089736802707
   CN9     HP     1  0.290272620344  0.072469005789
   CN9   HPER     1  0.189271432669  0.089736802707
   CN9    HR1     1  0.249451641079  0.089736802707
   CN9    HR2     1  0.231633666716  0.089736802707
   CN9    HR3     1  0.300054688270  0.036952087465
   CN9   HRA3     1  0.288651184677  0.064818249282
   CN9   HRM1     1  0.247224394284  0.039692909190
   CN9   HRM2     1  0.247224394284  0.041840000000
   CN9   HRP2     1  0.189271432669  0.089736802707
   CN9     HS     1  0.209361198763  0.132309697301
   CN9   HSIA     1  0.286869387241  0.062058748940
   CN9   HSIO     1  0.189271432669  0.089736802707
   CN9     HT     1  0.189271432669  0.089736802707
   CN9     HX     1  0.189271432669  0.089736802707
   CN9   IGR1     1  0.368832069310  0.301712530731
   CN9   IN3P     1  0.246449312399  0.160580590010
   CN9   LA3P     1  0.327200372211  0.182184255566
   CN9    LIT     1  0.284864865125  0.020196198771
   CN9    LPH     1  0.169270756447  0.000000000000
   CN9   LU3P     1  0.289648991242  0.166731218816
   CN9     MG     1  0.274842254546  0.051243325419
   CN9   MN2P     1  0.276508235149  0.171747976291
   CN9   MN3P     1  0.203516903172  0.148045032716
   CN9      N     1  0.334087019303  0.004184000000
   CN9     NC     1  0.334087019303  0.324091246411
   CN9    NC2     1  0.334087019303  0.187114168357
   CN9  NC2D1     1  0.307360057758  0.187114168357
   CN9  NC311     1  0.347450500075  0.088756043175
   CN9   ND3P     1  0.313587439798  0.177117175768
   CN9     NE     1  0.305578260322  0.122698965603
   CN9  NG1T1     1  0.328741626994  0.177512086349
   CN9  NG2D1     1  0.334087019303  0.187114168357
   CN9  NG2O1     1  0.334087019303  0.187114168357
   CN9  NG2P1     1  0.334087019303  0.187114168357
   CN9 NG2R43     1  0.334087019303  0.187114168357
   CN9 NG2R50     1  0.334087019303  0.187114168357
   CN9 NG2R51     1  0.334087019303  0.187114168357
   CN9 NG2R52     1  0.334087019303  0.187114168357
   CN9 NG2R53     1  0.334087019303  0.187114168357
   CN9 NG2R57     1  0.334087019303  0.187114168357
   CN9 NG2R60     1  0.337650614175  0.102486650838
   CN9 NG2R61     1  0.334087019303  0.187114168357
   CN9 NG2R62     1  0.352795892384  0.093557084179
   CN9 NG2R67     1  0.334087019303  0.187114168357
   CN9 NG2RC0     1  0.334087019303  0.187114168357
   CN9  NG2S0     1  0.334087019303  0.004184000000
   CN9  NG2S1     1  0.307360057758  0.187114168357
   CN9  NG2S2     1  0.334087019303  0.187114168357
   CN9  NG2S3     1  0.334087019303  0.187114168357
   CN9  NG301     1  0.347450500075  0.078275472531
   CN9  NG311     1  0.347450500075  0.088756043175
   CN9  NG321     1  0.346559601357  0.102486650838
   CN9  NG331     1  0.345668702638  0.110698234855
   CN9 NG3C51     1  0.334087019303  0.187114168357
   CN9  NG3N1     1  0.351904993665  0.102486650838
   CN9  NG3P0     1  0.334087019303  0.187114168357
   CN9  NG3P1     1  0.334087019303  0.187114168357
   CN9  NG3P2     1  0.334087019303  0.187114168357
   CN9  NG3P3     1  0.334087019303  0.187114168357
   CN9    NH1     1  0.307360057758  0.187114168357
   CN9    NH2     1  0.334087019303  0.187114168357
   CN9    NH3     1  0.334087019303  0.187114168357
   CN9   NH3L     1  0.334087019303  0.187114168357
   CN9    NHL     1  0.307360057758  0.187114168357
   CN9     NI     1  0.282949432881  0.994525446633
   CN9   NI2P     1  0.238787583423  0.158440517242
   CN9    NN1     1  0.334087019303  0.187114168357
   CN9   NN1C     1  0.334087019303  0.187114168357
   CN9    NN2     1  0.334087019303  0.187114168357
   CN9   NN2B     1  0.334087019303  0.187114168357
   CN9   NN2C     1  0.334087019303  0.187114168357
   CN9   NN2G     1  0.334087019303  0.187114168357
   CN9   NN2U     1  0.334087019303  0.187114168357
   CN9    NN3     1  0.334087019303  0.187114168357
   CN9   NN3A     1  0.334087019303  0.187114168357
   CN9   NN3G     1  0.334087019303  0.187114168357
   CN9   NN3I     1  0.334087019303  0.187114168357
   CN9    NN4     1  0.334087019303  0.187114168357
   CN9    NN6     1  0.334087019303  0.187114168357
   CN9    NNG     1  0.334087019303  0.187114168357
   CN9     NP     1  0.334087019303  0.187114168357
   CN9    NPH     1  0.334087019303  0.187114168357
   CN9    NR1     1  0.334087019303  0.187114168357
   CN9    NR2     1  0.334087019303  0.187114168357
   CN9    NR3     1  0.334087019303  0.187114168357
   CN9   NRC4     1  0.334087019303  0.187114168357
   CN9   NRN1     1  0.347450500075  0.280671252536
   CN9   NRN2     1  0.346559601357  0.102486650838
   CN9    NS1     1  0.334087019303  0.187114168357
   CN9    NS2     1  0.334087019303  0.187114168357
   CN9    NTL     1  0.334087019303  0.187114168357
   CN9     NY     1  0.334087019303  0.187114168357
   CN9      O     1  0.293996576986  0.144938011577
   CN9    O2L     1  0.320723538531  0.144938011577
   CN9    OAL     1  0.326959829558  0.163176000000
   CN9     OB     1  0.293996576986  0.144938011577
   CN9    OBL     1  0.293996576986  0.144938011577
   CN9     OC     1  0.320723538531  0.144938011577
   CN9  OC2D1     1  0.293996576986  0.144938011577
   CN9  OC2D2     1  0.320723538531  0.144938011577
   CN9  OC2D3     1  0.293996576986  0.144938011577
   CN9  OC2D4     1  0.293996576986  0.144938011577
   CN9  OC2DP     1  0.320723538531  0.144938011577
   CN9  OC301     1  0.316269044940  0.132309697301
   CN9  OC302     1  0.316269044940  0.132309697301
   CN9  OC303     1  0.316269044940  0.132309697301
   CN9 OC305A     1  0.316269044940  0.132309697301
   CN9  OC30A     1  0.316269044940  0.132309697301
   CN9  OC30P     1  0.326959829558  0.163176000000
   CN9  OC311     1  0.326514380198  0.183381431383
   CN9 OC311M     1  0.326514380198  0.183381431383
   CN9  OC312     1  0.326959829558  0.163176000000
   CN9 OC3C51     1  0.316269044940  0.132309697301
   CN9 OC3C5M     1  0.316269044940  0.132309697301
   CN9 OC3C61     1  0.316269044940  0.132309697301
   CN9    OCA     1  0.293996576986  0.144938011577
   CN9    OCL     1  0.320723538531  0.144938011577
   CN9  OG2D1     1  0.293996576986  0.144938011577
   CN9  OG2D2     1  0.320723538531  0.144938011577
   CN9  OG2D3     1  0.293996576986  0.144938011577
   CN9  OG2D4     1  0.320723538531  0.144938011577
   CN9  OG2D5     1  0.320010819556  0.169954883425
   CN9  OG2N1     1  0.320723538531  0.144938011577
   CN9  OG2P1     1  0.320723538531  0.144938011577
   CN9 OG2R50     1  0.320723538531  0.144938011577
   CN9  OG2S1     1  0.318906105146  0.157831660601
   CN9  OG301     1  0.316269044940  0.132309697301
   CN9  OG302     1  0.316269044940  0.132309697301
   CN9  OG303     1  0.316269044940  0.132309697301
   CN9  OG304     1  0.316269044940  0.132309697301
   CN9  OG311     1  0.326514380198  0.183381431383
   CN9  OG312     1  0.325178032121  0.144938011577
   CN9 OG3C31     1  0.316269044940  0.132309697301
   CN9 OG3C51     1  0.316269044940  0.132309697301
   CN9 OG3C61     1  0.316269044940  0.132309697301
   CN9 OG3R60     1  0.316269044940  0.132309697301
   CN9    OH1     1  0.326959829558  0.163176000000
   CN9    OHL     1  0.326959829558  0.163176000000
   CN9   OLG1     1  0.293996576986  0.144938011577
   CN9   OLG2     1  0.320723538531  0.144938011577
   CN9   OLG3     1  0.320723538531  0.144938011577
   CN9   OLG4     1  0.316269044940  0.132309697301
   CN9   OLG5     1  0.316269044940  0.132309697301
   CN9   OLG6     1  0.326514380198  0.183381431383
   CN9   OLG7     1  0.316269044940  0.132309697301
   CN9   OLG8     1  0.316269044940  0.132309697301
   CN9     OM     1  0.320723538531  0.144938011577
   CN9    ON1     1  0.320723538531  0.144938011577
   CN9   ON1C     1  0.320723538531  0.144938011577
   CN9    ON2     1  0.326959829558  0.163176000000
   CN9   ON2B     1  0.326959829558  0.163176000000
   CN9   ON2M     1  0.316269044940  0.132309697301
   CN9    ON3     1  0.320723538531  0.144938011577
   CN9    ON4     1  0.326959829558  0.163176000000
   CN9    ON5     1  0.326959829558  0.163176000000
   CN9    ON6     1  0.326959829558  0.163176000000
   CN9   ON6B     1  0.326959829558  0.163176000000
   CN9   OPER     1  0.318427692534  0.188901923946
   CN9     OS     1  0.326959829558  0.163176000000
   CN9   OSIA     1  0.326959829558  0.163176000000
   CN9   OSIE     1  0.326959829558  0.163176000000
   CN9   OSIH     1  0.326959829558  0.163176000000
   CN9    OSL     1  0.316269044940  0.132309697301
   CN9   OSLP     1  0.316269044940  0.132309697301
   CN9    OST     1  0.320010819556  0.169954883425
   CN9     OT     1  0.326799467788  0.163176000000
   CN9     OX     1  0.320723538531  0.144938011577
   CN9      P     1  0.360813980847  0.320014464673
   CN9     P2     1  0.360813980847  0.320014464673
   CN9     P3     1  0.360813980847  0.320014464673
   CN9     P4     1  0.360813980847  0.320014464673
   CN9     PB     1  0.328073452955  0.716185437439
   CN9   PB2P     1  0.325890751096  0.204716924713
   CN9     PC     1  0.360813980847  0.320014464673
   CN9     PD     1  0.294842930769  1.037598257516
   CN9   PD2P     1  0.251865976605  0.174628752363
   CN9    PG0     1  0.360813980847  0.320014464673
   CN9    PG1     1  0.360813980847  0.320014464673
   CN9    PG2     1  0.360813980847  0.320014464673
   CN9     PL     1  0.360813980847  0.320014464673
   CN9   PM3P     1  0.316910492017  0.176275053255
   CN9    POT     1  0.326403017859  0.123410269913
   CN9   PR3P     1  0.317079762773  0.178642591472
   CN9     PT     1  0.296001099102  1.168527606863
   CN9   PT2P     1  0.240284293270  0.168973521997
   CN9   PU3P     1  0.318024115415  0.179522368790
   CN9   RA2P     1  0.355459679551  0.229891668540
   CN9   RH3P     1  0.210367914314  0.149983415617
   CN9    RUB     1  0.338541512893  0.162045623205
   CN9      S     1  0.347450500075  0.280671252536
   CN9     SC     1  0.356359487256  0.286840588481
   CN9   SC3P     1  0.266993436839  0.157109060719
   CN9  SEGD1     1  0.363041227642  0.330244580395
   CN9  SG2D1     1  0.351904993665  0.314496560236
   CN9  SG2P1     1  0.355798221064  0.332305491450
   CN9  SG2P2     1  0.352314807076  0.329421919951
   CN9 SG2R50     1  0.347450500075  0.280671252536
   CN9  SG301     1  0.345223253279  0.257919081884
   CN9  SG302     1  0.365268474438  0.286840588481
   CN9  SG311     1  0.347450500075  0.280671252536
   CN9  SG3O1     1  0.356359487256  0.286840588481
   CN9  SG3O2     1  0.347450500075  0.247528778125
   CN9  SG3O3     1  0.347450500075  0.247528778125
   CN9     SI     1  0.365268474438  0.324091246411
   CN9   SIH3     1  0.365268474438  0.324091246411
   CN9     SL     1  0.356359487256  0.286840588481
   CN9     SM     1  0.345223253279  0.257919081884
   CN9   SM2P     1  0.334666103469  0.207012887251
   CN9   SM3P     1  0.308847858618  0.175378986746
   CN9   SN2P     1  0.316981763914  0.181365662197
   CN9    SOD     1  0.294954293108  0.090610410351
   CN9     SP     1  0.365268474438  0.280671252536
   CN9   SR2P     1  0.334612649546  0.200133451797
   CN9     SS     1  0.365268474438  0.286840588481
   CN9   TB3P     1  0.300678317372  0.172155203837
   CN9   TI1P     1  0.341276571958  0.266826378666
   CN9   TI3P     1  0.243117351193  0.149983415617
   CN9   TL3P     1  0.246716582015  0.168869889039
   CN9   TM3P     1  0.289417357575  0.168402751521
   CN9    U3P     1  0.320830446377  0.182184255566
   CN9    V2P     1  0.267599247968  0.167830039933
   CN9    V3P     1  0.223989755715  0.147096016316
   CN9    Y3P     1  0.295190381269  0.170263611896
   CN9   YB2P     1  0.312616360195  0.189623385225
   CN9   YB3P     1  0.284659958420  0.167569069413
   CN9     ZN     1  0.266378716724  0.209200000000
   CNA    CP1     1  0.346773417049  0.110698234855
   CNA    CP2     1  0.346773417049  0.110698234855
   CNA    CP3     1  0.346773417049  0.110698234855
   CNA   CPD1     1  0.346773417049  0.110698234855
   CNA   CR33     1  0.346773417049  0.110698234855
   CNA   CRL1     1  0.346773417049  0.110698234855
   CNA   CRL2     1  0.346773417049  0.110698234855
   CNA     CT     1  0.346773417049  0.110698234855
   CNA    CT1     1  0.346773417049  0.110698234855
   CNA   CT1X     1  0.346773417049  0.110698234855
   CNA    CT2     1  0.346773417049  0.110698234855
   CNA   CT2A     1  0.346773417049  0.110698234855
   CNA   CT2P     1  0.346773417049  0.110698234855
   CNA   CT2X     1  0.346773417049  0.110698234855
   CNA    CT3     1  0.346773417049  0.110698234855
   CNA   CT3X     1  0.346773417049  0.110698234855
   CNA   CTD1     1  0.346773417049  0.110698234855
   CNA   CTL1     1  0.346773417049  0.110698234855
   CNA   CTL2     1  0.346773417049  0.110698234855
   CNA   CTL3     1  0.346773417049  0.110698234855
   CNA   CTL5     1  0.346773417049  0.110698234855
   CNA   CTO1     1  0.346773417049  0.110698234855
   CNA   CTO2     1  0.346773417049  0.110698234855
   CNA     HP     1  0.298504524500  0.191734967077
   CNA      N     1  0.342318923458  0.011069823485
   CNA  NC2D1     1  0.315591961914  0.495057556250
   CNA  NG2S0     1  0.342318923458  0.011069823485
   CNA  NG2S1     1  0.315591961914  0.495057556250
   CNA    NH1     1  0.315591961914  0.495057556250
   CNA    NHL     1  0.315591961914  0.495057556250
   CNA      O     1  0.302228481142  0.383469934154
   CNA     OB     1  0.302228481142  0.383469934154
   CNA    OBL     1  0.302228481142  0.383469934154
   CNA  OC2D1     1  0.302228481142  0.383469934154
   CNA  OC2D3     1  0.302228481142  0.383469934154
   CNA  OC2D4     1  0.302228481142  0.383469934154
   CNA    OCA     1  0.302228481142  0.383469934154
   CNA  OG2D1     1  0.302228481142  0.383469934154
   CNA  OG2D3     1  0.302228481142  0.383469934154
   CNA   OLG1     1  0.302228481142  0.383469934154
  CNA2    CP1     1  0.338541512893  0.110698234855
  CNA2    CP2     1  0.338541512893  0.110698234855
  CNA2    CP3     1  0.338541512893  0.110698234855
  CNA2   CPD1     1  0.338541512893  0.110698234855
  CNA2   CR33     1  0.338541512893  0.110698234855
  CNA2   CRL1     1  0.338541512893  0.110698234855
  CNA2   CRL2     1  0.338541512893  0.110698234855
  CNA2     CT     1  0.338541512893  0.110698234855
  CNA2    CT1     1  0.338541512893  0.110698234855
  CNA2   CT1X     1  0.338541512893  0.110698234855
  CNA2    CT2     1  0.338541512893  0.110698234855
  CNA2   CT2A     1  0.338541512893  0.110698234855
  CNA2   CT2P     1  0.338541512893  0.110698234855
  CNA2   CT2X     1  0.338541512893  0.110698234855
  CNA2    CT3     1  0.338541512893  0.110698234855
  CNA2   CT3X     1  0.338541512893  0.110698234855
  CNA2   CTD1     1  0.338541512893  0.110698234855
  CNA2   CTL1     1  0.338541512893  0.110698234855
  CNA2   CTL2     1  0.338541512893  0.110698234855
  CNA2   CTL3     1  0.338541512893  0.110698234855
  CNA2   CTL5     1  0.338541512893  0.110698234855
  CNA2   CTO1     1  0.338541512893  0.110698234855
  CNA2   CTO2     1  0.338541512893  0.110698234855
  CNA2     HP     1  0.290272620344  0.191734967077
  CNA2      N     1  0.334087019303  0.011069823485
  CNA2  NC2D1     1  0.307360057758  0.495057556250
  CNA2  NG2S0     1  0.334087019303  0.011069823485
  CNA2  NG2S1     1  0.307360057758  0.495057556250
  CNA2    NH1     1  0.307360057758  0.495057556250
  CNA2    NHL     1  0.307360057758  0.495057556250
  CNA2      O     1  0.293996576986  0.383469934154
  CNA2     OB     1  0.293996576986  0.383469934154
  CNA2    OBL     1  0.293996576986  0.383469934154
  CNA2  OC2D1     1  0.293996576986  0.383469934154
  CNA2  OC2D3     1  0.293996576986  0.383469934154
  CNA2  OC2D4     1  0.293996576986  0.383469934154
  CNA2    OCA     1  0.293996576986  0.383469934154
  CNA2  OG2D1     1  0.293996576986  0.383469934154
  CNA2  OG2D3     1  0.293996576986  0.383469934154
  CNA2   OLG1     1  0.293996576986  0.383469934154
  CNE1    CP1     1  0.355468588538  0.109105371453
  CNE1    CP2     1  0.355468588538  0.109105371453
  CNE1    CP3     1  0.355468588538  0.109105371453
  CNE1   CPD1     1  0.355468588538  0.109105371453
  CNE1   CR33     1  0.355468588538  0.109105371453
  CNE1   CRL1     1  0.355468588538  0.109105371453
  CNE1   CRL2     1  0.355468588538  0.109105371453
  CNE1     CT     1  0.355468588538  0.109105371453
  CNE1    CT1     1  0.355468588538  0.109105371453
  CNE1   CT1X     1  0.355468588538  0.109105371453
  CNE1    CT2     1  0.355468588538  0.109105371453
  CNE1   CT2A     1  0.355468588538  0.109105371453
  CNE1   CT2P     1  0.355468588538  0.109105371453
  CNE1   CT2X     1  0.355468588538  0.109105371453
  CNE1    CT3     1  0.355468588538  0.109105371453
  CNE1   CT3X     1  0.355468588538  0.109105371453
  CNE1   CTD1     1  0.355468588538  0.109105371453
  CNE1   CTL1     1  0.355468588538  0.109105371453
  CNE1   CTL2     1  0.355468588538  0.109105371453
  CNE1   CTL3     1  0.355468588538  0.109105371453
  CNE1   CTL5     1  0.355468588538  0.109105371453
  CNE1   CTO1     1  0.355468588538  0.109105371453
  CNE1   CTO2     1  0.355468588538  0.109105371453
  CNE1     HP     1  0.307199695989  0.188976046736
  CNE1      N     1  0.351014094947  0.010910537145
  CNE1  NC2D1     1  0.324287133403  0.487934054561
  CNE1  NG2S0     1  0.351014094947  0.010910537145
  CNE1  NG2S1     1  0.324287133403  0.487934054561
  CNE1    NH1     1  0.324287133403  0.487934054561
  CNE1    NHL     1  0.324287133403  0.487934054561
  CNE1      O     1  0.310923652631  0.377952093472
  CNE1     OB     1  0.310923652631  0.377952093472
  CNE1    OBL     1  0.310923652631  0.377952093472
  CNE1  OC2D1     1  0.310923652631  0.377952093472
  CNE1  OC2D3     1  0.310923652631  0.377952093472
  CNE1  OC2D4     1  0.310923652631  0.377952093472
  CNE1    OCA     1  0.310923652631  0.377952093472
  CNE1  OG2D1     1  0.310923652631  0.377952093472
  CNE1  OG2D3     1  0.310923652631  0.377952093472
  CNE1   OLG1     1  0.310923652631  0.377952093472
  CNE2    CP1     1  0.354577689820  0.105847757841
  CNE2    CP2     1  0.354577689820  0.105847757841
  CNE2    CP3     1  0.354577689820  0.105847757841
  CNE2   CPD1     1  0.354577689820  0.105847757841
  CNE2   CR33     1  0.354577689820  0.105847757841
  CNE2   CRL1     1  0.354577689820  0.105847757841
  CNE2   CRL2     1  0.354577689820  0.105847757841
  CNE2     CT     1  0.354577689820  0.105847757841
  CNE2    CT1     1  0.354577689820  0.105847757841
  CNE2   CT1X     1  0.354577689820  0.105847757841
  CNE2    CT2     1  0.354577689820  0.105847757841
  CNE2   CT2A     1  0.354577689820  0.105847757841
  CNE2   CT2P     1  0.354577689820  0.105847757841
  CNE2   CT2X     1  0.354577689820  0.105847757841
  CNE2    CT3     1  0.354577689820  0.105847757841
  CNE2   CT3X     1  0.354577689820  0.105847757841
  CNE2   CTD1     1  0.354577689820  0.105847757841
  CNE2   CTL1     1  0.354577689820  0.105847757841
  CNE2   CTL2     1  0.354577689820  0.105847757841
  CNE2   CTL3     1  0.354577689820  0.105847757841
  CNE2   CTL5     1  0.354577689820  0.105847757841
  CNE2   CTO1     1  0.354577689820  0.105847757841
  CNE2   CTO2     1  0.354577689820  0.105847757841
  CNE2     HP     1  0.306308797271  0.183333694448
  CNE2      N     1  0.350123196229  0.010584775784
  CNE2  NC2D1     1  0.323396234685  0.473365563598
  CNE2  NG2S0     1  0.350123196229  0.010584775784
  CNE2  NG2S1     1  0.323396234685  0.473365563598
  CNE2    NH1     1  0.323396234685  0.473365563598
  CNE2    NHL     1  0.323396234685  0.473365563598
  CNE2      O     1  0.310032753913  0.366667388896
  CNE2     OB     1  0.310032753913  0.366667388896
  CNE2    OBL     1  0.310032753913  0.366667388896
  CNE2  OC2D1     1  0.310032753913  0.366667388896
  CNE2  OC2D3     1  0.310032753913  0.366667388896
  CNE2  OC2D4     1  0.310032753913  0.366667388896
  CNE2    OCA     1  0.310032753913  0.366667388896
  CNE2  OG2D1     1  0.310032753913  0.366667388896
  CNE2  OG2D3     1  0.310032753913  0.366667388896
  CNE2   OLG1     1  0.310032753913  0.366667388896
   CNG    CP1     1  0.347450500075  0.138767581228
   CNG    CP2     1  0.347450500075  0.138767581228
   CNG    CP3     1  0.347450500075  0.138767581228
   CNG   CPD1     1  0.347450500075  0.138767581228
   CNG   CR33     1  0.347450500075  0.138767581228
   CNG   CRL1     1  0.347450500075  0.138767581228
   CNG   CRL2     1  0.347450500075  0.138767581228
   CNG     CT     1  0.347450500075  0.138767581228
   CNG    CT1     1  0.347450500075  0.138767581228
   CNG   CT1X     1  0.347450500075  0.138767581228
   CNG    CT2     1  0.347450500075  0.138767581228
   CNG   CT2A     1  0.347450500075  0.138767581228
   CNG   CT2P     1  0.347450500075  0.138767581228
   CNG   CT2X     1  0.347450500075  0.138767581228
   CNG    CT3     1  0.347450500075  0.138767581228
   CNG   CT3X     1  0.347450500075  0.138767581228
   CNG   CTD1     1  0.347450500075  0.138767581228
   CNG   CTL1     1  0.347450500075  0.138767581228
   CNG   CTL2     1  0.347450500075  0.138767581228
   CNG   CTL3     1  0.347450500075  0.138767581228
   CNG   CTL5     1  0.347450500075  0.138767581228
   CNG   CTO1     1  0.347450500075  0.138767581228
   CNG   CTO2     1  0.347450500075  0.138767581228
   CNG     HP     1  0.299181607526  0.240352501131
   CNG      N     1  0.342996006484  0.013876758123
   CNG  NC2D1     1  0.316269044940  0.620587489400
   CNG  NG2S0     1  0.342996006484  0.013876758123
   CNG  NG2S1     1  0.316269044940  0.620587489400
   CNG    NH1     1  0.316269044940  0.620587489400
   CNG    NHL     1  0.316269044940  0.620587489400
   CNG      O     1  0.302905564168  0.480705002262
   CNG     OB     1  0.302905564168  0.480705002262
   CNG    OBL     1  0.302905564168  0.480705002262
   CNG  OC2D1     1  0.302905564168  0.480705002262
   CNG  OC2D3     1  0.302905564168  0.480705002262
   CNG  OC2D4     1  0.302905564168  0.480705002262
   CNG    OCA     1  0.302905564168  0.480705002262
   CNG  OG2D1     1  0.302905564168  0.480705002262
   CNG  OG2D3     1  0.302905564168  0.480705002262
   CNG   OLG1     1  0.302905564168  0.480705002262
  CO2P    CP1     1  0.251910521541  0.164138698618
  CO2P    CP2     1  0.251910521541  0.164138698618
  CO2P    CP3     1  0.251910521541  0.164138698618
  CO2P   CPD1     1  0.251910521541  0.164138698618
  CO2P   CR33     1  0.251910521541  0.164138698618
  CO2P   CRL1     1  0.251910521541  0.164138698618
  CO2P   CRL2     1  0.251910521541  0.164138698618
  CO2P     CT     1  0.251910521541  0.164138698618
  CO2P    CT1     1  0.251910521541  0.164138698618
  CO2P   CT1X     1  0.251910521541  0.164138698618
  CO2P    CT2     1  0.251910521541  0.164138698618
  CO2P   CT2A     1  0.251910521541  0.164138698618
  CO2P   CT2P     1  0.251910521541  0.164138698618
  CO2P   CT2X     1  0.251910521541  0.164138698618
  CO2P    CT3     1  0.251910521541  0.164138698618
  CO2P   CT3X     1  0.251910521541  0.164138698618
  CO2P   CTD1     1  0.251910521541  0.164138698618
  CO2P   CTL1     1  0.251910521541  0.164138698618
  CO2P   CTL2     1  0.251910521541  0.164138698618
  CO2P   CTL3     1  0.251910521541  0.164138698618
  CO2P   CTL5     1  0.251910521541  0.164138698618
  CO2P   CTO1     1  0.251910521541  0.164138698618
  CO2P   CTO2     1  0.251910521541  0.164138698618
  CO2P     HP     1  0.203641628993  0.284296565495
  CO2P      N     1  0.247456027951  0.016413869862
  CO2P  NC2D1     1  0.220729066406  0.734050575696
  CO2P  NG2S0     1  0.247456027951  0.016413869862
  CO2P  NG2S1     1  0.220729066406  0.734050575696
  CO2P    NH1     1  0.220729066406  0.734050575696
  CO2P    NHL     1  0.220729066406  0.734050575696
  CO2P      O     1  0.207365585634  0.568593130989
  CO2P     OB     1  0.207365585634  0.568593130989
  CO2P    OBL     1  0.207365585634  0.568593130989
  CO2P  OC2D1     1  0.207365585634  0.568593130989
  CO2P  OC2D3     1  0.207365585634  0.568593130989
  CO2P  OC2D4     1  0.207365585634  0.568593130989
  CO2P    OCA     1  0.207365585634  0.568593130989
  CO2P  OG2D1     1  0.207365585634  0.568593130989
  CO2P  OG2D3     1  0.207365585634  0.568593130989
  CO2P   OLG1     1  0.207365585634  0.568593130989
  CO3P    CP1     1  0.192264852362  0.144393471099
  CO3P    CP2     1  0.192264852362  0.144393471099
  CO3P    CP3     1  0.192264852362  0.144393471099
  CO3P   CPD1     1  0.192264852362  0.144393471099
  CO3P   CR33     1  0.192264852362  0.144393471099
  CO3P   CRL1     1  0.192264852362  0.144393471099
  CO3P   CRL2     1  0.192264852362  0.144393471099
  CO3P     CT     1  0.192264852362  0.144393471099
  CO3P    CT1     1  0.192264852362  0.144393471099
  CO3P   CT1X     1  0.192264852362  0.144393471099
  CO3P    CT2     1  0.192264852362  0.144393471099
  CO3P   CT2A     1  0.192264852362  0.144393471099
  CO3P   CT2P     1  0.192264852362  0.144393471099
  CO3P   CT2X     1  0.192264852362  0.144393471099
  CO3P    CT3     1  0.192264852362  0.144393471099
  CO3P   CT3X     1  0.192264852362  0.144393471099
  CO3P   CTD1     1  0.192264852362  0.144393471099
  CO3P   CTL1     1  0.192264852362  0.144393471099
  CO3P   CTL2     1  0.192264852362  0.144393471099
  CO3P   CTL3     1  0.192264852362  0.144393471099
  CO3P   CTL5     1  0.192264852362  0.144393471099
  CO3P   CTO1     1  0.192264852362  0.144393471099
  CO3P   CTO2     1  0.192264852362  0.144393471099
  CO3P     HP     1  0.143995959813  0.250096828225
  CO3P      N     1  0.187810358771  0.014439347110
  CO3P  NC2D1     1  0.161083397227  0.645747233769
  CO3P  NG2S0     1  0.187810358771  0.014439347110
  CO3P  NG2S1     1  0.161083397227  0.645747233769
  CO3P    NH1     1  0.161083397227  0.645747233769
  CO3P    NHL     1  0.161083397227  0.645747233769
  CO3P      O     1  0.147719916455  0.500193656449
  CO3P     OB     1  0.147719916455  0.500193656449
  CO3P    OBL     1  0.147719916455  0.500193656449
  CO3P  OC2D1     1  0.147719916455  0.500193656449
  CO3P  OC2D3     1  0.147719916455  0.500193656449
  CO3P  OC2D4     1  0.147719916455  0.500193656449
  CO3P    OCA     1  0.147719916455  0.500193656449
  CO3P  OG2D1     1  0.147719916455  0.500193656449
  CO3P  OG2D3     1  0.147719916455  0.500193656449
  CO3P   OLG1     1  0.147719916455  0.500193656449
   COA    CP1     1  0.347450500075  0.138767581228
   COA    CP2     1  0.347450500075  0.138767581228
   COA    CP3     1  0.347450500075  0.138767581228
   COA   CPD1     1  0.347450500075  0.138767581228
   COA   CR33     1  0.347450500075  0.138767581228
   COA   CRL1     1  0.347450500075  0.138767581228
   COA   CRL2     1  0.347450500075  0.138767581228
   COA     CT     1  0.347450500075  0.138767581228
   COA    CT1     1  0.347450500075  0.138767581228
   COA   CT1X     1  0.347450500075  0.138767581228
   COA    CT2     1  0.347450500075  0.138767581228
   COA   CT2A     1  0.347450500075  0.138767581228
   COA   CT2P     1  0.347450500075  0.138767581228
   COA   CT2X     1  0.347450500075  0.138767581228
   COA    CT3     1  0.347450500075  0.138767581228
   COA   CT3X     1  0.347450500075  0.138767581228
   COA   CTD1     1  0.347450500075  0.138767581228
   COA   CTL1     1  0.347450500075  0.138767581228
   COA   CTL2     1  0.347450500075  0.138767581228
   COA   CTL3     1  0.347450500075  0.138767581228
   COA   CTL5     1  0.347450500075  0.138767581228
   COA   CTO1     1  0.347450500075  0.138767581228
   COA   CTO2     1  0.347450500075  0.138767581228
   COA     HP     1  0.299181607526  0.240352501131
   COA      N     1  0.342996006484  0.013876758123
   COA  NC2D1     1  0.316269044940  0.620587489400
   COA  NG2S0     1  0.342996006484  0.013876758123
   COA  NG2S1     1  0.316269044940  0.620587489400
   COA    NH1     1  0.316269044940  0.620587489400
   COA    NHL     1  0.316269044940  0.620587489400
   COA      O     1  0.302905564168  0.480705002262
   COA     OB     1  0.302905564168  0.480705002262
   COA    OBL     1  0.302905564168  0.480705002262
   COA  OC2D1     1  0.302905564168  0.480705002262
   COA  OC2D3     1  0.302905564168  0.480705002262
   COA  OC2D4     1  0.302905564168  0.480705002262
   COA    OCA     1  0.302905564168  0.480705002262
   COA  OG2D1     1  0.302905564168  0.480705002262
   COA  OG2D3     1  0.302905564168  0.480705002262
   COA   OLG1     1  0.302905564168  0.480705002262
   CP1    CP1     1  0.338541512893  0.041840000000
   CP1    CP2     1  0.338541512893  0.041840000000
   CP1    CP3     1  0.338541512893  0.041840000000
   CP1    CPA     1  0.329632525712  0.125520000000
   CP1    CPB     1  0.329632525712  0.125520000000
   CP1   CPD1     1  0.338541512893  0.041840000000
   CP1   CPH1     1  0.329632525712  0.093557084179
   CP1   CPH2     1  0.329632525712  0.093557084179
   CP1    CPM     1  0.329632525712  0.125520000000
   CP1    CPT     1  0.334977918021  0.131646486622
   CP1   CR2P     1  0.263634748672  0.170828164985
   CP1   CR33     1  0.338541512893  0.041840000000
   CP1   CR3P     1  0.244382427373  0.145299904804
   CP1   CRL1     1  0.338541512893  0.041840000000
   CP1   CRL2     1  0.338541512893  0.041840000000
   CP1   CRN1     1  0.347450500075  0.138767581228
   CP1     CS     1  0.365268474438  0.138767581228
   CP1    CST     1  0.308518226092  0.100764063435
   CP1     CT     1  0.338541512893  0.041840000000
   CP1    CT1     1  0.338541512893  0.041840000000
   CP1   CT1X     1  0.338541512893  0.041840000000
   CP1    CT2     1  0.338541512893  0.041840000000
   CP1   CT2A     1  0.338541512893  0.041840000000
   CP1   CT2P     1  0.338541512893  0.041840000000
   CP1   CT2X     1  0.338541512893  0.041840000000
   CP1    CT3     1  0.338541512893  0.041840000000
   CP1   CT3X     1  0.338541512893  0.041840000000
   CP1   CTD1     1  0.338541512893  0.041840000000
   CP1   CTL1     1  0.338541512893  0.041840000000
   CP1   CTL2     1  0.338541512893  0.041840000000
   CP1   CTL3     1  0.338541512893  0.041840000000
   CP1   CTL5     1  0.338541512893  0.041840000000
   CP1   CTO1     1  0.338541512893  0.041840000000
   CP1   CTO2     1  0.338541512893  0.041840000000
   CP1     CU     1  0.285800308779  0.908997471504
   CP1   CU1P     1  0.246066225950  0.180057894334
   CP1   CU2P     1  0.233869822499  0.162315474555
   CP1     CY     1  0.346559601357  0.113045454929
   CP1    DUM     1  0.169270756447  0.000000000000
   CP1   DY3P     1  0.297952167295  0.171135318061
   CP1   ER3P     1  0.291083338178  0.169232326746
   CP1   EU2P     1  0.333231756533  0.203602227414
   CP1   EU3P     1  0.304954631219  0.174528477447
   CP1     F1     1  0.314487247504  0.153729976257
   CP1     F2     1  0.314487247504  0.135577095411
   CP1     F3     1  0.311814551349  0.130309939452
   CP1     FA     1  0.320723538531  0.144938011577
   CP1     FE     1  0.227179173126  0.000000000000
   CP1   FE2P     1  0.265496726993  0.167098295383
   CP1   FE3P     1  0.219722350855  0.148045032716
   CP1   FGA1     1  0.314487247504  0.153729976257
   CP1   FGA2     1  0.314487247504  0.135577095411
   CP1   FGA3     1  0.311814551349  0.130309939452
   CP1   FGP1     1  0.311814551349  0.130309939452
   CP1   FGR1     1  0.320723538531  0.144938011577
   CP1    FNA     1  0.320723538531  0.144938011577
   CP1   GA3P     1  0.189485248361  0.145299904804
   CP1   GD3P     1  0.303351013527  0.173673803114
   CP1      H     1  0.189271432669  0.089736802707
   CP1     HA     1  0.286869387241  0.062058748940
   CP1    HA1     1  0.288651184677  0.088756043175
   CP1    HA2     1  0.288651184677  0.077149148019
   CP1    HA3     1  0.288651184677  0.064818249282
   CP1    HAL     1  0.286869387241  0.062058748940
   CP1   HAL1     1  0.286869387241  0.062058748940
   CP1   HAL2     1  0.288651184677  0.070011711020
   CP1   HAL3     1  0.288651184677  0.064818249282
   CP1     HB     1  0.286869387241  0.062058748940
   CP1    HB1     1  0.286869387241  0.062058748940
   CP1    HB2     1  0.288651184677  0.070011711020
   CP1    HBL     1  0.286869387241  0.062058748940
   CP1     HC     1  0.189271432669  0.089736802707
   CP1   HCA1     1  0.288651184677  0.088756043175
   CP1  HCA1A     1  0.288651184677  0.088756043175
   CP1 HCA1C2     1  0.288651184677  0.088756043175
   CP1   HCA2     1  0.288651184677  0.078275472531
   CP1 HCA25A     1  0.285087589805  0.078275472531
   CP1  HCA2A     1  0.288651184677  0.078275472531
   CP1 HCA2C2     1  0.285087589805  0.078275472531
   CP1   HCA3     1  0.288651184677  0.064818249282
   CP1  HCA3A     1  0.288651184677  0.064818249282
   CP1  HCA3M     1  0.288651184677  0.064818249282
   CP1    HCL     1  0.189271432669  0.089736802707
   CP1   HCP1     1  0.189271432669  0.089736802707
   CP1  HCP1M     1  0.189271432669  0.089736802707
   CP1   HCR1     1  0.240542653898  0.089736802707
   CP1     HE     1  0.301123766731  0.061020452073
   CP1    HE1     1  0.280633096214  0.073666921749
   CP1    HE2     1  0.281523994932  0.067464972838
   CP1   HEL1     1  0.280633096214  0.073666921749
   CP1   HEL2     1  0.281523994932  0.067464972838
   CP1    HF1     1  0.286869387241  0.070011711020
   CP1    HF2     1  0.285087589805  0.072469005789
   CP1   HG2P     1  0.274557166956  0.189623385225
   CP1   HGA1     1  0.288651184677  0.088756043175
   CP1   HGA2     1  0.288651184677  0.078275472531
   CP1   HGA3     1  0.288651184677  0.064818249282
   CP1   HGA4     1  0.280633096214  0.073666921749
   CP1   HGA5     1  0.281523994932  0.067464972838
   CP1   HGA6     1  0.286869387241  0.070011711020
   CP1   HGA7     1  0.285087589805  0.072469005789
   CP1 HGAAM0     1  0.283305792369  0.070011711020
   CP1 HGAAM1     1  0.283305792369  0.070011711020
   CP1 HGAAM2     1  0.281523994932  0.083680000000
   CP1   HGP1     1  0.189271432669  0.089736802707
   CP1   HGP2     1  0.189271432669  0.089736802707
   CP1   HGP3     1  0.209361198763  0.132309697301
   CP1   HGP4     1  0.189271432669  0.089736802707
   CP1   HGP5     1  0.231633666716  0.089736802707
   CP1 HGPAM1     1  0.247224394284  0.039692909190
   CP1 HGPAM2     1  0.247224394284  0.041840000000
   CP1 HGPAM3     1  0.246778944925  0.045833423612
   CP1  HGR51     1  0.290272620344  0.072469005789
   CP1  HGR52     1  0.249451641079  0.089736802707
   CP1  HGR53     1  0.231633666716  0.089736802707
   CP1  HGR61     1  0.290272620344  0.072469005789
   CP1  HGR62     1  0.267269615442  0.089736802707
   CP1  HGR63     1  0.249451641079  0.089736802707
   CP1  HGR71     1  0.290272620344  0.072469005789
   CP1     HL     1  0.231633666716  0.089736802707
   CP1  HLGA1     1  0.288651184677  0.088756043175
   CP1  HLGA2     1  0.288651184677  0.078275472531
   CP1  HLGA3     1  0.288651184677  0.064818249282
   CP1  HLGA4     1  0.280633096214  0.073666921749
   CP1  HLGP1     1  0.189271432669  0.089736802707
   CP1 HLGR52     1  0.249451641079  0.089736802707
   CP1 HLGR61     1  0.290272620344  0.072469005789
   CP1 HLGR62     1  0.267269615442  0.089736802707
   CP1    HN1     1  0.189271432669  0.089736802707
   CP1    HN2     1  0.189271432669  0.089736802707
   CP1    HN3     1  0.267269615442  0.089736802707
   CP1   HN3B     1  0.249451641079  0.089736802707
   CP1    HN4     1  0.189271432669  0.089736802707
   CP1    HN5     1  0.189271432669  0.089736802707
   CP1    HN6     1  0.286869387241  0.062058748940
   CP1    HN7     1  0.286869387241  0.062058748940
   CP1    HN8     1  0.288651184677  0.070011711020
   CP1    HN9     1  0.288651184677  0.064818249282
   CP1   HNE1     1  0.280633096214  0.073666921749
   CP1   HNE2     1  0.281523994932  0.067464972838
   CP1    HNP     1  0.290272620344  0.072469005789
   CP1   HO3P     1  0.293168041178  0.170263611896
   CP1    HOL     1  0.189271432669  0.089736802707
   CP1     HP     1  0.290272620344  0.072469005789
   CP1   HPER     1  0.189271432669  0.089736802707
   CP1    HR1     1  0.249451641079  0.089736802707
   CP1    HR2     1  0.231633666716  0.089736802707
   CP1    HR3     1  0.300054688270  0.036952087465
   CP1   HRA3     1  0.288651184677  0.064818249282
   CP1   HRM1     1  0.247224394284  0.039692909190
   CP1   HRM2     1  0.247224394284  0.041840000000
   CP1   HRP2     1  0.189271432669  0.089736802707
   CP1     HS     1  0.209361198763  0.132309697301
   CP1   HSIA     1  0.286869387241  0.062058748940
   CP1   HSIO     1  0.189271432669  0.089736802707
   CP1     HT     1  0.189271432669  0.089736802707
   CP1     HX     1  0.189271432669  0.089736802707
   CP1   IGR1     1  0.368832069310  0.301712530731
   CP1   IN3P     1  0.246449312399  0.160580590010
   CP1   LA3P     1  0.327200372211  0.182184255566
   CP1    LIT     1  0.284864865125  0.020196198771
   CP1    LPH     1  0.169270756447  0.000000000000
   CP1   LU3P     1  0.289648991242  0.166731218816
   CP1     MG     1  0.274842254546  0.051243325419
   CP1   MN2P     1  0.276508235149  0.171747976291
   CP1   MN3P     1  0.203516903172  0.148045032716
   CP1      N     1  0.334087019303  0.004184000000
   CP1     NC     1  0.334087019303  0.324091246411
   CP1    NC2     1  0.334087019303  0.187114168357
   CP1  NC2D1     1  0.307360057758  0.187114168357
   CP1  NC311     1  0.347450500075  0.088756043175
   CP1   ND3P     1  0.313587439798  0.177117175768
   CP1     NE     1  0.305578260322  0.122698965603
   CP1  NG1T1     1  0.328741626994  0.177512086349
   CP1  NG2D1     1  0.334087019303  0.187114168357
   CP1  NG2O1     1  0.334087019303  0.187114168357
   CP1  NG2P1     1  0.334087019303  0.187114168357
   CP1 NG2R43     1  0.334087019303  0.187114168357
   CP1 NG2R50     1  0.334087019303  0.187114168357
   CP1 NG2R51     1  0.334087019303  0.187114168357
   CP1 NG2R52     1  0.334087019303  0.187114168357
   CP1 NG2R53     1  0.334087019303  0.187114168357
   CP1 NG2R57     1  0.334087019303  0.187114168357
   CP1 NG2R60     1  0.337650614175  0.102486650838
   CP1 NG2R61     1  0.334087019303  0.187114168357
   CP1 NG2R62     1  0.352795892384  0.093557084179
   CP1 NG2R67     1  0.334087019303  0.187114168357
   CP1 NG2RC0     1  0.334087019303  0.187114168357
   CP1  NG2S0     1  0.334087019303  0.004184000000
   CP1  NG2S1     1  0.307360057758  0.187114168357
   CP1  NG2S2     1  0.334087019303  0.187114168357
   CP1  NG2S3     1  0.334087019303  0.187114168357
   CP1  NG301     1  0.347450500075  0.078275472531
   CP1  NG311     1  0.347450500075  0.088756043175
   CP1  NG321     1  0.346559601357  0.102486650838
   CP1  NG331     1  0.345668702638  0.110698234855
   CP1 NG3C51     1  0.334087019303  0.187114168357
   CP1  NG3N1     1  0.351904993665  0.102486650838
   CP1  NG3P0     1  0.334087019303  0.187114168357
   CP1  NG3P1     1  0.334087019303  0.187114168357
   CP1  NG3P2     1  0.334087019303  0.187114168357
   CP1  NG3P3     1  0.334087019303  0.187114168357
   CP1    NH1     1  0.307360057758  0.187114168357
   CP1    NH2     1  0.334087019303  0.187114168357
   CP1    NH3     1  0.334087019303  0.187114168357
   CP1   NH3L     1  0.334087019303  0.187114168357
   CP1    NHL     1  0.307360057758  0.187114168357
   CP1     NI     1  0.282949432881  0.994525446633
   CP1   NI2P     1  0.238787583423  0.158440517242
   CP1    NN1     1  0.334087019303  0.187114168357
   CP1   NN1C     1  0.334087019303  0.187114168357
   CP1    NN2     1  0.334087019303  0.187114168357
   CP1   NN2B     1  0.334087019303  0.187114168357
   CP1   NN2C     1  0.334087019303  0.187114168357
   CP1   NN2G     1  0.334087019303  0.187114168357
   CP1   NN2U     1  0.334087019303  0.187114168357
   CP1    NN3     1  0.334087019303  0.187114168357
   CP1   NN3A     1  0.334087019303  0.187114168357
   CP1   NN3G     1  0.334087019303  0.187114168357
   CP1   NN3I     1  0.334087019303  0.187114168357
   CP1    NN4     1  0.334087019303  0.187114168357
   CP1    NN6     1  0.334087019303  0.187114168357
   CP1    NNG     1  0.334087019303  0.187114168357
   CP1     NP     1  0.334087019303  0.187114168357
   CP1    NPH     1  0.334087019303  0.187114168357
   CP1    NR1     1  0.334087019303  0.187114168357
   CP1    NR2     1  0.334087019303  0.187114168357
   CP1    NR3     1  0.334087019303  0.187114168357
   CP1   NRC4     1  0.334087019303  0.187114168357
   CP1   NRN1     1  0.347450500075  0.280671252536
   CP1   NRN2     1  0.346559601357  0.102486650838
   CP1    NS1     1  0.334087019303  0.187114168357
   CP1    NS2     1  0.334087019303  0.187114168357
   CP1    NTL     1  0.334087019303  0.187114168357
   CP1     NY     1  0.334087019303  0.187114168357
   CP1      O     1  0.293996576986  0.144938011577
   CP1    O2L     1  0.320723538531  0.144938011577
   CP1    OAL     1  0.326959829558  0.163176000000
   CP1     OB     1  0.293996576986  0.144938011577
   CP1    OBL     1  0.293996576986  0.144938011577
   CP1     OC     1  0.320723538531  0.144938011577
   CP1  OC2D1     1  0.293996576986  0.144938011577
   CP1  OC2D2     1  0.320723538531  0.144938011577
   CP1  OC2D3     1  0.293996576986  0.144938011577
   CP1  OC2D4     1  0.293996576986  0.144938011577
   CP1  OC2DP     1  0.320723538531  0.144938011577
   CP1  OC301     1  0.316269044940  0.132309697301
   CP1  OC302     1  0.316269044940  0.132309697301
   CP1  OC303     1  0.316269044940  0.132309697301
   CP1 OC305A     1  0.316269044940  0.132309697301
   CP1  OC30A     1  0.316269044940  0.132309697301
   CP1  OC30P     1  0.326959829558  0.163176000000
   CP1  OC311     1  0.326514380198  0.183381431383
   CP1 OC311M     1  0.326514380198  0.183381431383
   CP1  OC312     1  0.326959829558  0.163176000000
   CP1 OC3C51     1  0.316269044940  0.132309697301
   CP1 OC3C5M     1  0.316269044940  0.132309697301
   CP1 OC3C61     1  0.316269044940  0.132309697301
   CP1    OCA     1  0.293996576986  0.144938011577
   CP1    OCL     1  0.320723538531  0.144938011577
   CP1  OG2D1     1  0.293996576986  0.144938011577
   CP1  OG2D2     1  0.320723538531  0.144938011577
   CP1  OG2D3     1  0.293996576986  0.144938011577
   CP1  OG2D4     1  0.320723538531  0.144938011577
   CP1  OG2D5     1  0.320010819556  0.169954883425
   CP1  OG2N1     1  0.320723538531  0.144938011577
   CP1  OG2P1     1  0.320723538531  0.144938011577
   CP1 OG2R50     1  0.320723538531  0.144938011577
   CP1  OG2S1     1  0.318906105146  0.157831660601
   CP1  OG301     1  0.316269044940  0.132309697301
   CP1  OG302     1  0.316269044940  0.132309697301
   CP1  OG303     1  0.316269044940  0.132309697301
   CP1  OG304     1  0.316269044940  0.132309697301
   CP1  OG311     1  0.326514380198  0.183381431383
   CP1  OG312     1  0.325178032121  0.144938011577
   CP1 OG3C31     1  0.316269044940  0.132309697301
   CP1 OG3C51     1  0.316269044940  0.132309697301
   CP1 OG3C61     1  0.316269044940  0.132309697301
   CP1 OG3R60     1  0.316269044940  0.132309697301
   CP1    OH1     1  0.326959829558  0.163176000000
   CP1    OHL     1  0.326959829558  0.163176000000
   CP1   OLG1     1  0.293996576986  0.144938011577
   CP1   OLG2     1  0.320723538531  0.144938011577
   CP1   OLG3     1  0.320723538531  0.144938011577
   CP1   OLG4     1  0.316269044940  0.132309697301
   CP1   OLG5     1  0.316269044940  0.132309697301
   CP1   OLG6     1  0.326514380198  0.183381431383
   CP1   OLG7     1  0.316269044940  0.132309697301
   CP1   OLG8     1  0.316269044940  0.132309697301
   CP1     OM     1  0.320723538531  0.144938011577
   CP1    ON1     1  0.320723538531  0.144938011577
   CP1   ON1C     1  0.320723538531  0.144938011577
   CP1    ON2     1  0.326959829558  0.163176000000
   CP1   ON2B     1  0.326959829558  0.163176000000
   CP1   ON2M     1  0.316269044940  0.132309697301
   CP1    ON3     1  0.320723538531  0.144938011577
   CP1    ON4     1  0.326959829558  0.163176000000
   CP1    ON5     1  0.326959829558  0.163176000000
   CP1    ON6     1  0.326959829558  0.163176000000
   CP1   ON6B     1  0.326959829558  0.163176000000
   CP1   OPER     1  0.318427692534  0.188901923946
   CP1     OS     1  0.326959829558  0.163176000000
   CP1   OSIA     1  0.326959829558  0.163176000000
   CP1   OSIE     1  0.326959829558  0.163176000000
   CP1   OSIH     1  0.326959829558  0.163176000000
   CP1    OSL     1  0.316269044940  0.132309697301
   CP1   OSLP     1  0.316269044940  0.132309697301
   CP1    OST     1  0.320010819556  0.169954883425
   CP1     OT     1  0.326799467788  0.163176000000
   CP1     OX     1  0.320723538531  0.144938011577
   CP1      P     1  0.360813980847  0.320014464673
   CP1     P2     1  0.360813980847  0.320014464673
   CP1     P3     1  0.360813980847  0.320014464673
   CP1     P4     1  0.360813980847  0.320014464673
   CP1     PB     1  0.328073452955  0.716185437439
   CP1   PB2P     1  0.325890751096  0.204716924713
   CP1     PC     1  0.360813980847  0.320014464673
   CP1     PD     1  0.294842930769  1.037598257516
   CP1   PD2P     1  0.251865976605  0.174628752363
   CP1    PG0     1  0.360813980847  0.320014464673
   CP1    PG1     1  0.360813980847  0.320014464673
   CP1    PG2     1  0.360813980847  0.320014464673
   CP1     PL     1  0.360813980847  0.320014464673
   CP1   PM3P     1  0.316910492017  0.176275053255
   CP1    POT     1  0.326403017859  0.123410269913
   CP1   PR3P     1  0.317079762773  0.178642591472
   CP1     PT     1  0.296001099102  1.168527606863
   CP1   PT2P     1  0.240284293270  0.168973521997
   CP1   PU3P     1  0.318024115415  0.179522368790
   CP1   RA2P     1  0.355459679551  0.229891668540
   CP1   RH3P     1  0.210367914314  0.149983415617
   CP1    RUB     1  0.338541512893  0.162045623205
   CP1      S     1  0.347450500075  0.280671252536
   CP1     SC     1  0.356359487256  0.286840588481
   CP1   SC3P     1  0.266993436839  0.157109060719
   CP1  SEGD1     1  0.363041227642  0.330244580395
   CP1  SG2D1     1  0.351904993665  0.314496560236
   CP1  SG2P1     1  0.355798221064  0.332305491450
   CP1  SG2P2     1  0.352314807076  0.329421919951
   CP1 SG2R50     1  0.347450500075  0.280671252536
   CP1  SG301     1  0.345223253279  0.257919081884
   CP1  SG302     1  0.365268474438  0.286840588481
   CP1  SG311     1  0.347450500075  0.280671252536
   CP1  SG3O1     1  0.356359487256  0.286840588481
   CP1  SG3O2     1  0.347450500075  0.247528778125
   CP1  SG3O3     1  0.347450500075  0.247528778125
   CP1     SI     1  0.365268474438  0.324091246411
   CP1   SIH3     1  0.365268474438  0.324091246411
   CP1     SL     1  0.356359487256  0.286840588481
   CP1     SM     1  0.345223253279  0.257919081884
   CP1   SM2P     1  0.334666103469  0.207012887251
   CP1   SM3P     1  0.308847858618  0.175378986746
   CP1   SN2P     1  0.316981763914  0.181365662197
   CP1    SOD     1  0.294954293108  0.090610410351
   CP1     SP     1  0.365268474438  0.280671252536
   CP1   SR2P     1  0.334612649546  0.200133451797
   CP1     SS     1  0.365268474438  0.286840588481
   CP1   TB3P     1  0.300678317372  0.172155203837
   CP1   TI1P     1  0.341276571958  0.266826378666
   CP1   TI3P     1  0.243117351193  0.149983415617
   CP1   TL3P     1  0.246716582015  0.168869889039
   CP1   TM3P     1  0.289417357575  0.168402751521
   CP1    U3P     1  0.320830446377  0.182184255566
   CP1    V2P     1  0.267599247968  0.167830039933
   CP1    V3P     1  0.223989755715  0.147096016316
   CP1    Y3P     1  0.295190381269  0.170263611896
   CP1   YB2P     1  0.312616360195  0.189623385225
   CP1   YB3P     1  0.284659958420  0.167569069413
   CP1     ZN     1  0.266378716724  0.209200000000
   CP2    CP2     1  0.338541512893  0.041840000000
   CP2    CP3     1  0.338541512893  0.041840000000
   CP2    CPA     1  0.329632525712  0.125520000000
   CP2    CPB     1  0.329632525712  0.125520000000
   CP2   CPD1     1  0.338541512893  0.041840000000
   CP2   CPH1     1  0.329632525712  0.093557084179
   CP2   CPH2     1  0.329632525712  0.093557084179
   CP2    CPM     1  0.329632525712  0.125520000000
   CP2    CPT     1  0.334977918021  0.131646486622
   CP2   CR2P     1  0.263634748672  0.170828164985
   CP2   CR33     1  0.338541512893  0.041840000000
   CP2   CR3P     1  0.244382427373  0.145299904804
   CP2   CRL1     1  0.338541512893  0.041840000000
   CP2   CRL2     1  0.338541512893  0.041840000000
   CP2   CRN1     1  0.347450500075  0.138767581228
   CP2     CS     1  0.365268474438  0.138767581228
   CP2    CST     1  0.308518226092  0.100764063435
   CP2     CT     1  0.338541512893  0.041840000000
   CP2    CT1     1  0.338541512893  0.041840000000
   CP2   CT1X     1  0.338541512893  0.041840000000
   CP2    CT2     1  0.338541512893  0.041840000000
   CP2   CT2A     1  0.338541512893  0.041840000000
   CP2   CT2P     1  0.338541512893  0.041840000000
   CP2   CT2X     1  0.338541512893  0.041840000000
   CP2    CT3     1  0.338541512893  0.041840000000
   CP2   CT3X     1  0.338541512893  0.041840000000
   CP2   CTD1     1  0.338541512893  0.041840000000
   CP2   CTL1     1  0.338541512893  0.041840000000
   CP2   CTL2     1  0.338541512893  0.041840000000
   CP2   CTL3     1  0.338541512893  0.041840000000
   CP2   CTL5     1  0.338541512893  0.041840000000
   CP2   CTO1     1  0.338541512893  0.041840000000
   CP2   CTO2     1  0.338541512893  0.041840000000
   CP2     CU     1  0.285800308779  0.908997471504
   CP2   CU1P     1  0.246066225950  0.180057894334
   CP2   CU2P     1  0.233869822499  0.162315474555
   CP2     CY     1  0.346559601357  0.113045454929
   CP2    DUM     1  0.169270756447  0.000000000000
   CP2   DY3P     1  0.297952167295  0.171135318061
   CP2   ER3P     1  0.291083338178  0.169232326746
   CP2   EU2P     1  0.333231756533  0.203602227414
   CP2   EU3P     1  0.304954631219  0.174528477447
   CP2     F1     1  0.314487247504  0.153729976257
   CP2     F2     1  0.314487247504  0.135577095411
   CP2     F3     1  0.311814551349  0.130309939452
   CP2     FA     1  0.320723538531  0.144938011577
   CP2     FE     1  0.227179173126  0.000000000000
   CP2   FE2P     1  0.265496726993  0.167098295383
   CP2   FE3P     1  0.219722350855  0.148045032716
   CP2   FGA1     1  0.314487247504  0.153729976257
   CP2   FGA2     1  0.314487247504  0.135577095411
   CP2   FGA3     1  0.311814551349  0.130309939452
   CP2   FGP1     1  0.311814551349  0.130309939452
   CP2   FGR1     1  0.320723538531  0.144938011577
   CP2    FNA     1  0.320723538531  0.144938011577
   CP2   GA3P     1  0.189485248361  0.145299904804
   CP2   GD3P     1  0.303351013527  0.173673803114
   CP2      H     1  0.189271432669  0.089736802707
   CP2     HA     1  0.286869387241  0.062058748940
   CP2    HA1     1  0.288651184677  0.088756043175
   CP2    HA2     1  0.288651184677  0.077149148019
   CP2    HA3     1  0.288651184677  0.064818249282
   CP2    HAL     1  0.286869387241  0.062058748940
   CP2   HAL1     1  0.286869387241  0.062058748940
   CP2   HAL2     1  0.288651184677  0.070011711020
   CP2   HAL3     1  0.288651184677  0.064818249282
   CP2     HB     1  0.286869387241  0.062058748940
   CP2    HB1     1  0.286869387241  0.062058748940
   CP2    HB2     1  0.288651184677  0.070011711020
   CP2    HBL     1  0.286869387241  0.062058748940
   CP2     HC     1  0.189271432669  0.089736802707
   CP2   HCA1     1  0.288651184677  0.088756043175
   CP2  HCA1A     1  0.288651184677  0.088756043175
   CP2 HCA1C2     1  0.288651184677  0.088756043175
   CP2   HCA2     1  0.288651184677  0.078275472531
   CP2 HCA25A     1  0.285087589805  0.078275472531
   CP2  HCA2A     1  0.288651184677  0.078275472531
   CP2 HCA2C2     1  0.285087589805  0.078275472531
   CP2   HCA3     1  0.288651184677  0.064818249282
   CP2  HCA3A     1  0.288651184677  0.064818249282
   CP2  HCA3M     1  0.288651184677  0.064818249282
   CP2    HCL     1  0.189271432669  0.089736802707
   CP2   HCP1     1  0.189271432669  0.089736802707
   CP2  HCP1M     1  0.189271432669  0.089736802707
   CP2   HCR1     1  0.240542653898  0.089736802707
   CP2     HE     1  0.301123766731  0.061020452073
   CP2    HE1     1  0.280633096214  0.073666921749
   CP2    HE2     1  0.281523994932  0.067464972838
   CP2   HEL1     1  0.280633096214  0.073666921749
   CP2   HEL2     1  0.281523994932  0.067464972838
   CP2    HF1     1  0.286869387241  0.070011711020
   CP2    HF2     1  0.285087589805  0.072469005789
   CP2   HG2P     1  0.274557166956  0.189623385225
   CP2   HGA1     1  0.288651184677  0.088756043175
   CP2   HGA2     1  0.288651184677  0.078275472531
   CP2   HGA3     1  0.288651184677  0.064818249282
   CP2   HGA4     1  0.280633096214  0.073666921749
   CP2   HGA5     1  0.281523994932  0.067464972838
   CP2   HGA6     1  0.286869387241  0.070011711020
   CP2   HGA7     1  0.285087589805  0.072469005789
   CP2 HGAAM0     1  0.283305792369  0.070011711020
   CP2 HGAAM1     1  0.283305792369  0.070011711020
   CP2 HGAAM2     1  0.281523994932  0.083680000000
   CP2   HGP1     1  0.189271432669  0.089736802707
   CP2   HGP2     1  0.189271432669  0.089736802707
   CP2   HGP3     1  0.209361198763  0.132309697301
   CP2   HGP4     1  0.189271432669  0.089736802707
   CP2   HGP5     1  0.231633666716  0.089736802707
   CP2 HGPAM1     1  0.247224394284  0.039692909190
   CP2 HGPAM2     1  0.247224394284  0.041840000000
   CP2 HGPAM3     1  0.246778944925  0.045833423612
   CP2  HGR51     1  0.290272620344  0.072469005789
   CP2  HGR52     1  0.249451641079  0.089736802707
   CP2  HGR53     1  0.231633666716  0.089736802707
   CP2  HGR61     1  0.290272620344  0.072469005789
   CP2  HGR62     1  0.267269615442  0.089736802707
   CP2  HGR63     1  0.249451641079  0.089736802707
   CP2  HGR71     1  0.290272620344  0.072469005789
   CP2     HL     1  0.231633666716  0.089736802707
   CP2  HLGA1     1  0.288651184677  0.088756043175
   CP2  HLGA2     1  0.288651184677  0.078275472531
   CP2  HLGA3     1  0.288651184677  0.064818249282
   CP2  HLGA4     1  0.280633096214  0.073666921749
   CP2  HLGP1     1  0.189271432669  0.089736802707
   CP2 HLGR52     1  0.249451641079  0.089736802707
   CP2 HLGR61     1  0.290272620344  0.072469005789
   CP2 HLGR62     1  0.267269615442  0.089736802707
   CP2    HN1     1  0.189271432669  0.089736802707
   CP2    HN2     1  0.189271432669  0.089736802707
   CP2    HN3     1  0.267269615442  0.089736802707
   CP2   HN3B     1  0.249451641079  0.089736802707
   CP2    HN4     1  0.189271432669  0.089736802707
   CP2    HN5     1  0.189271432669  0.089736802707
   CP2    HN6     1  0.286869387241  0.062058748940
   CP2    HN7     1  0.286869387241  0.062058748940
   CP2    HN8     1  0.288651184677  0.070011711020
   CP2    HN9     1  0.288651184677  0.064818249282
   CP2   HNE1     1  0.280633096214  0.073666921749
   CP2   HNE2     1  0.281523994932  0.067464972838
   CP2    HNP     1  0.290272620344  0.072469005789
   CP2   HO3P     1  0.293168041178  0.170263611896
   CP2    HOL     1  0.189271432669  0.089736802707
   CP2     HP     1  0.290272620344  0.072469005789
   CP2   HPER     1  0.189271432669  0.089736802707
   CP2    HR1     1  0.249451641079  0.089736802707
   CP2    HR2     1  0.231633666716  0.089736802707
   CP2    HR3     1  0.300054688270  0.036952087465
   CP2   HRA3     1  0.288651184677  0.064818249282
   CP2   HRM1     1  0.247224394284  0.039692909190
   CP2   HRM2     1  0.247224394284  0.041840000000
   CP2   HRP2     1  0.189271432669  0.089736802707
   CP2     HS     1  0.209361198763  0.132309697301
   CP2   HSIA     1  0.286869387241  0.062058748940
   CP2   HSIO     1  0.189271432669  0.089736802707
   CP2     HT     1  0.189271432669  0.089736802707
   CP2     HX     1  0.189271432669  0.089736802707
   CP2   IGR1     1  0.368832069310  0.301712530731
   CP2   IN3P     1  0.246449312399  0.160580590010
   CP2   LA3P     1  0.327200372211  0.182184255566
   CP2    LIT     1  0.284864865125  0.020196198771
   CP2    LPH     1  0.169270756447  0.000000000000
   CP2   LU3P     1  0.289648991242  0.166731218816
   CP2     MG     1  0.274842254546  0.051243325419
   CP2   MN2P     1  0.276508235149  0.171747976291
   CP2   MN3P     1  0.203516903172  0.148045032716
   CP2      N     1  0.334087019303  0.004184000000
   CP2     NC     1  0.334087019303  0.324091246411
   CP2    NC2     1  0.334087019303  0.187114168357
   CP2  NC2D1     1  0.307360057758  0.187114168357
   CP2  NC311     1  0.347450500075  0.088756043175
   CP2   ND3P     1  0.313587439798  0.177117175768
   CP2     NE     1  0.305578260322  0.122698965603
   CP2  NG1T1     1  0.328741626994  0.177512086349
   CP2  NG2D1     1  0.334087019303  0.187114168357
   CP2  NG2O1     1  0.334087019303  0.187114168357
   CP2  NG2P1     1  0.334087019303  0.187114168357
   CP2 NG2R43     1  0.334087019303  0.187114168357
   CP2 NG2R50     1  0.334087019303  0.187114168357
   CP2 NG2R51     1  0.334087019303  0.187114168357
   CP2 NG2R52     1  0.334087019303  0.187114168357
   CP2 NG2R53     1  0.334087019303  0.187114168357
   CP2 NG2R57     1  0.334087019303  0.187114168357
   CP2 NG2R60     1  0.337650614175  0.102486650838
   CP2 NG2R61     1  0.334087019303  0.187114168357
   CP2 NG2R62     1  0.352795892384  0.093557084179
   CP2 NG2R67     1  0.334087019303  0.187114168357
   CP2 NG2RC0     1  0.334087019303  0.187114168357
   CP2  NG2S0     1  0.334087019303  0.004184000000
   CP2  NG2S1     1  0.307360057758  0.187114168357
   CP2  NG2S2     1  0.334087019303  0.187114168357
   CP2  NG2S3     1  0.334087019303  0.187114168357
   CP2  NG301     1  0.347450500075  0.078275472531
   CP2  NG311     1  0.347450500075  0.088756043175
   CP2  NG321     1  0.346559601357  0.102486650838
   CP2  NG331     1  0.345668702638  0.110698234855
   CP2 NG3C51     1  0.334087019303  0.187114168357
   CP2  NG3N1     1  0.351904993665  0.102486650838
   CP2  NG3P0     1  0.334087019303  0.187114168357
   CP2  NG3P1     1  0.334087019303  0.187114168357
   CP2  NG3P2     1  0.334087019303  0.187114168357
   CP2  NG3P3     1  0.334087019303  0.187114168357
   CP2    NH1     1  0.307360057758  0.187114168357
   CP2    NH2     1  0.334087019303  0.187114168357
   CP2    NH3     1  0.334087019303  0.187114168357
   CP2   NH3L     1  0.334087019303  0.187114168357
   CP2    NHL     1  0.307360057758  0.187114168357
   CP2     NI     1  0.282949432881  0.994525446633
   CP2   NI2P     1  0.238787583423  0.158440517242
   CP2    NN1     1  0.334087019303  0.187114168357
   CP2   NN1C     1  0.334087019303  0.187114168357
   CP2    NN2     1  0.334087019303  0.187114168357
   CP2   NN2B     1  0.334087019303  0.187114168357
   CP2   NN2C     1  0.334087019303  0.187114168357
   CP2   NN2G     1  0.334087019303  0.187114168357
   CP2   NN2U     1  0.334087019303  0.187114168357
   CP2    NN3     1  0.334087019303  0.187114168357
   CP2   NN3A     1  0.334087019303  0.187114168357
   CP2   NN3G     1  0.334087019303  0.187114168357
   CP2   NN3I     1  0.334087019303  0.187114168357
   CP2    NN4     1  0.334087019303  0.187114168357
   CP2    NN6     1  0.334087019303  0.187114168357
   CP2    NNG     1  0.334087019303  0.187114168357
   CP2     NP     1  0.334087019303  0.187114168357
   CP2    NPH     1  0.334087019303  0.187114168357
   CP2    NR1     1  0.334087019303  0.187114168357
   CP2    NR2     1  0.334087019303  0.187114168357
   CP2    NR3     1  0.334087019303  0.187114168357
   CP2   NRC4     1  0.334087019303  0.187114168357
   CP2   NRN1     1  0.347450500075  0.280671252536
   CP2   NRN2     1  0.346559601357  0.102486650838
   CP2    NS1     1  0.334087019303  0.187114168357
   CP2    NS2     1  0.334087019303  0.187114168357
   CP2    NTL     1  0.334087019303  0.187114168357
   CP2     NY     1  0.334087019303  0.187114168357
   CP2      O     1  0.293996576986  0.144938011577
   CP2    O2L     1  0.320723538531  0.144938011577
   CP2    OAL     1  0.326959829558  0.163176000000
   CP2     OB     1  0.293996576986  0.144938011577
   CP2    OBL     1  0.293996576986  0.144938011577
   CP2     OC     1  0.320723538531  0.144938011577
   CP2  OC2D1     1  0.293996576986  0.144938011577
   CP2  OC2D2     1  0.320723538531  0.144938011577
   CP2  OC2D3     1  0.293996576986  0.144938011577
   CP2  OC2D4     1  0.293996576986  0.144938011577
   CP2  OC2DP     1  0.320723538531  0.144938011577
   CP2  OC301     1  0.316269044940  0.132309697301
   CP2  OC302     1  0.316269044940  0.132309697301
   CP2  OC303     1  0.316269044940  0.132309697301
   CP2 OC305A     1  0.316269044940  0.132309697301
   CP2  OC30A     1  0.316269044940  0.132309697301
   CP2  OC30P     1  0.326959829558  0.163176000000
   CP2  OC311     1  0.326514380198  0.183381431383
   CP2 OC311M     1  0.326514380198  0.183381431383
   CP2  OC312     1  0.326959829558  0.163176000000
   CP2 OC3C51     1  0.316269044940  0.132309697301
   CP2 OC3C5M     1  0.316269044940  0.132309697301
   CP2 OC3C61     1  0.316269044940  0.132309697301
   CP2    OCA     1  0.293996576986  0.144938011577
   CP2    OCL     1  0.320723538531  0.144938011577
   CP2  OG2D1     1  0.293996576986  0.144938011577
   CP2  OG2D2     1  0.320723538531  0.144938011577
   CP2  OG2D3     1  0.293996576986  0.144938011577
   CP2  OG2D4     1  0.320723538531  0.144938011577
   CP2  OG2D5     1  0.320010819556  0.169954883425
   CP2  OG2N1     1  0.320723538531  0.144938011577
   CP2  OG2P1     1  0.320723538531  0.144938011577
   CP2 OG2R50     1  0.320723538531  0.144938011577
   CP2  OG2S1     1  0.318906105146  0.157831660601
   CP2  OG301     1  0.316269044940  0.132309697301
   CP2  OG302     1  0.316269044940  0.132309697301
   CP2  OG303     1  0.316269044940  0.132309697301
   CP2  OG304     1  0.316269044940  0.132309697301
   CP2  OG311     1  0.326514380198  0.183381431383
   CP2  OG312     1  0.325178032121  0.144938011577
   CP2 OG3C31     1  0.316269044940  0.132309697301
   CP2 OG3C51     1  0.316269044940  0.132309697301
   CP2 OG3C61     1  0.316269044940  0.132309697301
   CP2 OG3R60     1  0.316269044940  0.132309697301
   CP2    OH1     1  0.326959829558  0.163176000000
   CP2    OHL     1  0.326959829558  0.163176000000
   CP2   OLG1     1  0.293996576986  0.144938011577
   CP2   OLG2     1  0.320723538531  0.144938011577
   CP2   OLG3     1  0.320723538531  0.144938011577
   CP2   OLG4     1  0.316269044940  0.132309697301
   CP2   OLG5     1  0.316269044940  0.132309697301
   CP2   OLG6     1  0.326514380198  0.183381431383
   CP2   OLG7     1  0.316269044940  0.132309697301
   CP2   OLG8     1  0.316269044940  0.132309697301
   CP2     OM     1  0.320723538531  0.144938011577
   CP2    ON1     1  0.320723538531  0.144938011577
   CP2   ON1C     1  0.320723538531  0.144938011577
   CP2    ON2     1  0.326959829558  0.163176000000
   CP2   ON2B     1  0.326959829558  0.163176000000
   CP2   ON2M     1  0.316269044940  0.132309697301
   CP2    ON3     1  0.320723538531  0.144938011577
   CP2    ON4     1  0.326959829558  0.163176000000
   CP2    ON5     1  0.326959829558  0.163176000000
   CP2    ON6     1  0.326959829558  0.163176000000
   CP2   ON6B     1  0.326959829558  0.163176000000
   CP2   OPER     1  0.318427692534  0.188901923946
   CP2     OS     1  0.326959829558  0.163176000000
   CP2   OSIA     1  0.326959829558  0.163176000000
   CP2   OSIE     1  0.326959829558  0.163176000000
   CP2   OSIH     1  0.326959829558  0.163176000000
   CP2    OSL     1  0.316269044940  0.132309697301
   CP2   OSLP     1  0.316269044940  0.132309697301
   CP2    OST     1  0.320010819556  0.169954883425
   CP2     OT     1  0.326799467788  0.163176000000
   CP2     OX     1  0.320723538531  0.144938011577
   CP2      P     1  0.360813980847  0.320014464673
   CP2     P2     1  0.360813980847  0.320014464673
   CP2     P3     1  0.360813980847  0.320014464673
   CP2     P4     1  0.360813980847  0.320014464673
   CP2     PB     1  0.328073452955  0.716185437439
   CP2   PB2P     1  0.325890751096  0.204716924713
   CP2     PC     1  0.360813980847  0.320014464673
   CP2     PD     1  0.294842930769  1.037598257516
   CP2   PD2P     1  0.251865976605  0.174628752363
   CP2    PG0     1  0.360813980847  0.320014464673
   CP2    PG1     1  0.360813980847  0.320014464673
   CP2    PG2     1  0.360813980847  0.320014464673
   CP2     PL     1  0.360813980847  0.320014464673
   CP2   PM3P     1  0.316910492017  0.176275053255
   CP2    POT     1  0.326403017859  0.123410269913
   CP2   PR3P     1  0.317079762773  0.178642591472
   CP2     PT     1  0.296001099102  1.168527606863
   CP2   PT2P     1  0.240284293270  0.168973521997
   CP2   PU3P     1  0.318024115415  0.179522368790
   CP2   RA2P     1  0.355459679551  0.229891668540
   CP2   RH3P     1  0.210367914314  0.149983415617
   CP2    RUB     1  0.338541512893  0.162045623205
   CP2      S     1  0.347450500075  0.280671252536
   CP2     SC     1  0.356359487256  0.286840588481
   CP2   SC3P     1  0.266993436839  0.157109060719
   CP2  SEGD1     1  0.363041227642  0.330244580395
   CP2  SG2D1     1  0.351904993665  0.314496560236
   CP2  SG2P1     1  0.355798221064  0.332305491450
   CP2  SG2P2     1  0.352314807076  0.329421919951
   CP2 SG2R50     1  0.347450500075  0.280671252536
   CP2  SG301     1  0.345223253279  0.257919081884
   CP2  SG302     1  0.365268474438  0.286840588481
   CP2  SG311     1  0.347450500075  0.280671252536
   CP2  SG3O1     1  0.356359487256  0.286840588481
   CP2  SG3O2     1  0.347450500075  0.247528778125
   CP2  SG3O3     1  0.347450500075  0.247528778125
   CP2     SI     1  0.365268474438  0.324091246411
   CP2   SIH3     1  0.365268474438  0.324091246411
   CP2     SL     1  0.356359487256  0.286840588481
   CP2     SM     1  0.345223253279  0.257919081884
   CP2   SM2P     1  0.334666103469  0.207012887251
   CP2   SM3P     1  0.308847858618  0.175378986746
   CP2   SN2P     1  0.316981763914  0.181365662197
   CP2    SOD     1  0.294954293108  0.090610410351
   CP2     SP     1  0.365268474438  0.280671252536
   CP2   SR2P     1  0.334612649546  0.200133451797
   CP2     SS     1  0.365268474438  0.286840588481
   CP2   TB3P     1  0.300678317372  0.172155203837
   CP2   TI1P     1  0.341276571958  0.266826378666
   CP2   TI3P     1  0.243117351193  0.149983415617
   CP2   TL3P     1  0.246716582015  0.168869889039
   CP2   TM3P     1  0.289417357575  0.168402751521
   CP2    U3P     1  0.320830446377  0.182184255566
   CP2    V2P     1  0.267599247968  0.167830039933
   CP2    V3P     1  0.223989755715  0.147096016316
   CP2    Y3P     1  0.295190381269  0.170263611896
   CP2   YB2P     1  0.312616360195  0.189623385225
   CP2   YB3P     1  0.284659958420  0.167569069413
   CP2     ZN     1  0.266378716724  0.209200000000
   CP3    CP3     1  0.338541512893  0.041840000000
   CP3    CPA     1  0.329632525712  0.125520000000
   CP3    CPB     1  0.329632525712  0.125520000000
   CP3   CPD1     1  0.338541512893  0.041840000000
   CP3   CPH1     1  0.329632525712  0.093557084179
   CP3   CPH2     1  0.329632525712  0.093557084179
   CP3    CPM     1  0.329632525712  0.125520000000
   CP3    CPT     1  0.334977918021  0.131646486622
   CP3   CR2P     1  0.263634748672  0.170828164985
   CP3   CR33     1  0.338541512893  0.041840000000
   CP3   CR3P     1  0.244382427373  0.145299904804
   CP3   CRL1     1  0.338541512893  0.041840000000
   CP3   CRL2     1  0.338541512893  0.041840000000
   CP3   CRN1     1  0.347450500075  0.138767581228
   CP3     CS     1  0.365268474438  0.138767581228
   CP3    CST     1  0.308518226092  0.100764063435
   CP3     CT     1  0.338541512893  0.041840000000
   CP3    CT1     1  0.338541512893  0.041840000000
   CP3   CT1X     1  0.338541512893  0.041840000000
   CP3    CT2     1  0.338541512893  0.041840000000
   CP3   CT2A     1  0.338541512893  0.041840000000
   CP3   CT2P     1  0.338541512893  0.041840000000
   CP3   CT2X     1  0.338541512893  0.041840000000
   CP3    CT3     1  0.338541512893  0.041840000000
   CP3   CT3X     1  0.338541512893  0.041840000000
   CP3   CTD1     1  0.338541512893  0.041840000000
   CP3   CTL1     1  0.338541512893  0.041840000000
   CP3   CTL2     1  0.338541512893  0.041840000000
   CP3   CTL3     1  0.338541512893  0.041840000000
   CP3   CTL5     1  0.338541512893  0.041840000000
   CP3   CTO1     1  0.338541512893  0.041840000000
   CP3   CTO2     1  0.338541512893  0.041840000000
   CP3     CU     1  0.285800308779  0.908997471504
   CP3   CU1P     1  0.246066225950  0.180057894334
   CP3   CU2P     1  0.233869822499  0.162315474555
   CP3     CY     1  0.346559601357  0.113045454929
   CP3    DUM     1  0.169270756447  0.000000000000
   CP3   DY3P     1  0.297952167295  0.171135318061
   CP3   ER3P     1  0.291083338178  0.169232326746
   CP3   EU2P     1  0.333231756533  0.203602227414
   CP3   EU3P     1  0.304954631219  0.174528477447
   CP3     F1     1  0.314487247504  0.153729976257
   CP3     F2     1  0.314487247504  0.135577095411
   CP3     F3     1  0.311814551349  0.130309939452
   CP3     FA     1  0.320723538531  0.144938011577
   CP3     FE     1  0.227179173126  0.000000000000
   CP3   FE2P     1  0.265496726993  0.167098295383
   CP3   FE3P     1  0.219722350855  0.148045032716
   CP3   FGA1     1  0.314487247504  0.153729976257
   CP3   FGA2     1  0.314487247504  0.135577095411
   CP3   FGA3     1  0.311814551349  0.130309939452
   CP3   FGP1     1  0.311814551349  0.130309939452
   CP3   FGR1     1  0.320723538531  0.144938011577
   CP3    FNA     1  0.320723538531  0.144938011577
   CP3   GA3P     1  0.189485248361  0.145299904804
   CP3   GD3P     1  0.303351013527  0.173673803114
   CP3      H     1  0.189271432669  0.089736802707
   CP3     HA     1  0.286869387241  0.062058748940
   CP3    HA1     1  0.288651184677  0.088756043175
   CP3    HA2     1  0.288651184677  0.077149148019
   CP3    HA3     1  0.288651184677  0.064818249282
   CP3    HAL     1  0.286869387241  0.062058748940
   CP3   HAL1     1  0.286869387241  0.062058748940
   CP3   HAL2     1  0.288651184677  0.070011711020
   CP3   HAL3     1  0.288651184677  0.064818249282
   CP3     HB     1  0.286869387241  0.062058748940
   CP3    HB1     1  0.286869387241  0.062058748940
   CP3    HB2     1  0.288651184677  0.070011711020
   CP3    HBL     1  0.286869387241  0.062058748940
   CP3     HC     1  0.189271432669  0.089736802707
   CP3   HCA1     1  0.288651184677  0.088756043175
   CP3  HCA1A     1  0.288651184677  0.088756043175
   CP3 HCA1C2     1  0.288651184677  0.088756043175
   CP3   HCA2     1  0.288651184677  0.078275472531
   CP3 HCA25A     1  0.285087589805  0.078275472531
   CP3  HCA2A     1  0.288651184677  0.078275472531
   CP3 HCA2C2     1  0.285087589805  0.078275472531
   CP3   HCA3     1  0.288651184677  0.064818249282
   CP3  HCA3A     1  0.288651184677  0.064818249282
   CP3  HCA3M     1  0.288651184677  0.064818249282
   CP3    HCL     1  0.189271432669  0.089736802707
   CP3   HCP1     1  0.189271432669  0.089736802707
   CP3  HCP1M     1  0.189271432669  0.089736802707
   CP3   HCR1     1  0.240542653898  0.089736802707
   CP3     HE     1  0.301123766731  0.061020452073
   CP3    HE1     1  0.280633096214  0.073666921749
   CP3    HE2     1  0.281523994932  0.067464972838
   CP3   HEL1     1  0.280633096214  0.073666921749
   CP3   HEL2     1  0.281523994932  0.067464972838
   CP3    HF1     1  0.286869387241  0.070011711020
   CP3    HF2     1  0.285087589805  0.072469005789
   CP3   HG2P     1  0.274557166956  0.189623385225
   CP3   HGA1     1  0.288651184677  0.088756043175
   CP3   HGA2     1  0.288651184677  0.078275472531
   CP3   HGA3     1  0.288651184677  0.064818249282
   CP3   HGA4     1  0.280633096214  0.073666921749
   CP3   HGA5     1  0.281523994932  0.067464972838
   CP3   HGA6     1  0.286869387241  0.070011711020
   CP3   HGA7     1  0.285087589805  0.072469005789
   CP3 HGAAM0     1  0.283305792369  0.070011711020
   CP3 HGAAM1     1  0.283305792369  0.070011711020
   CP3 HGAAM2     1  0.281523994932  0.083680000000
   CP3   HGP1     1  0.189271432669  0.089736802707
   CP3   HGP2     1  0.189271432669  0.089736802707
   CP3   HGP3     1  0.209361198763  0.132309697301
   CP3   HGP4     1  0.189271432669  0.089736802707
   CP3   HGP5     1  0.231633666716  0.089736802707
   CP3 HGPAM1     1  0.247224394284  0.039692909190
   CP3 HGPAM2     1  0.247224394284  0.041840000000
   CP3 HGPAM3     1  0.246778944925  0.045833423612
   CP3  HGR51     1  0.290272620344  0.072469005789
   CP3  HGR52     1  0.249451641079  0.089736802707
   CP3  HGR53     1  0.231633666716  0.089736802707
   CP3  HGR61     1  0.290272620344  0.072469005789
   CP3  HGR62     1  0.267269615442  0.089736802707
   CP3  HGR63     1  0.249451641079  0.089736802707
   CP3  HGR71     1  0.290272620344  0.072469005789
   CP3     HL     1  0.231633666716  0.089736802707
   CP3  HLGA1     1  0.288651184677  0.088756043175
   CP3  HLGA2     1  0.288651184677  0.078275472531
   CP3  HLGA3     1  0.288651184677  0.064818249282
   CP3  HLGA4     1  0.280633096214  0.073666921749
   CP3  HLGP1     1  0.189271432669  0.089736802707
   CP3 HLGR52     1  0.249451641079  0.089736802707
   CP3 HLGR61     1  0.290272620344  0.072469005789
   CP3 HLGR62     1  0.267269615442  0.089736802707
   CP3    HN1     1  0.189271432669  0.089736802707
   CP3    HN2     1  0.189271432669  0.089736802707
   CP3    HN3     1  0.267269615442  0.089736802707
   CP3   HN3B     1  0.249451641079  0.089736802707
   CP3    HN4     1  0.189271432669  0.089736802707
   CP3    HN5     1  0.189271432669  0.089736802707
   CP3    HN6     1  0.286869387241  0.062058748940
   CP3    HN7     1  0.286869387241  0.062058748940
   CP3    HN8     1  0.288651184677  0.070011711020
   CP3    HN9     1  0.288651184677  0.064818249282
   CP3   HNE1     1  0.280633096214  0.073666921749
   CP3   HNE2     1  0.281523994932  0.067464972838
   CP3    HNP     1  0.290272620344  0.072469005789
   CP3   HO3P     1  0.293168041178  0.170263611896
   CP3    HOL     1  0.189271432669  0.089736802707
   CP3     HP     1  0.290272620344  0.072469005789
   CP3   HPER     1  0.189271432669  0.089736802707
   CP3    HR1     1  0.249451641079  0.089736802707
   CP3    HR2     1  0.231633666716  0.089736802707
   CP3    HR3     1  0.300054688270  0.036952087465
   CP3   HRA3     1  0.288651184677  0.064818249282
   CP3   HRM1     1  0.247224394284  0.039692909190
   CP3   HRM2     1  0.247224394284  0.041840000000
   CP3   HRP2     1  0.189271432669  0.089736802707
   CP3     HS     1  0.209361198763  0.132309697301
   CP3   HSIA     1  0.286869387241  0.062058748940
   CP3   HSIO     1  0.189271432669  0.089736802707
   CP3     HT     1  0.189271432669  0.089736802707
   CP3     HX     1  0.189271432669  0.089736802707
   CP3   IGR1     1  0.368832069310  0.301712530731
   CP3   IN3P     1  0.246449312399  0.160580590010
   CP3   LA3P     1  0.327200372211  0.182184255566
   CP3    LIT     1  0.284864865125  0.020196198771
   CP3    LPH     1  0.169270756447  0.000000000000
   CP3   LU3P     1  0.289648991242  0.166731218816
   CP3     MG     1  0.274842254546  0.051243325419
   CP3   MN2P     1  0.276508235149  0.171747976291
   CP3   MN3P     1  0.203516903172  0.148045032716
   CP3      N     1  0.334087019303  0.004184000000
   CP3     NC     1  0.334087019303  0.324091246411
   CP3    NC2     1  0.334087019303  0.187114168357
   CP3  NC2D1     1  0.307360057758  0.187114168357
   CP3  NC311     1  0.347450500075  0.088756043175
   CP3   ND3P     1  0.313587439798  0.177117175768
   CP3     NE     1  0.305578260322  0.122698965603
   CP3  NG1T1     1  0.328741626994  0.177512086349
   CP3  NG2D1     1  0.334087019303  0.187114168357
   CP3  NG2O1     1  0.334087019303  0.187114168357
   CP3  NG2P1     1  0.334087019303  0.187114168357
   CP3 NG2R43     1  0.334087019303  0.187114168357
   CP3 NG2R50     1  0.334087019303  0.187114168357
   CP3 NG2R51     1  0.334087019303  0.187114168357
   CP3 NG2R52     1  0.334087019303  0.187114168357
   CP3 NG2R53     1  0.334087019303  0.187114168357
   CP3 NG2R57     1  0.334087019303  0.187114168357
   CP3 NG2R60     1  0.337650614175  0.102486650838
   CP3 NG2R61     1  0.334087019303  0.187114168357
   CP3 NG2R62     1  0.352795892384  0.093557084179
   CP3 NG2R67     1  0.334087019303  0.187114168357
   CP3 NG2RC0     1  0.334087019303  0.187114168357
   CP3  NG2S0     1  0.334087019303  0.004184000000
   CP3  NG2S1     1  0.307360057758  0.187114168357
   CP3  NG2S2     1  0.334087019303  0.187114168357
   CP3  NG2S3     1  0.334087019303  0.187114168357
   CP3  NG301     1  0.347450500075  0.078275472531
   CP3  NG311     1  0.347450500075  0.088756043175
   CP3  NG321     1  0.346559601357  0.102486650838
   CP3  NG331     1  0.345668702638  0.110698234855
   CP3 NG3C51     1  0.334087019303  0.187114168357
   CP3  NG3N1     1  0.351904993665  0.102486650838
   CP3  NG3P0     1  0.334087019303  0.187114168357
   CP3  NG3P1     1  0.334087019303  0.187114168357
   CP3  NG3P2     1  0.334087019303  0.187114168357
   CP3  NG3P3     1  0.334087019303  0.187114168357
   CP3    NH1     1  0.307360057758  0.187114168357
   CP3    NH2     1  0.334087019303  0.187114168357
   CP3    NH3     1  0.334087019303  0.187114168357
   CP3   NH3L     1  0.334087019303  0.187114168357
   CP3    NHL     1  0.307360057758  0.187114168357
   CP3     NI     1  0.282949432881  0.994525446633
   CP3   NI2P     1  0.238787583423  0.158440517242
   CP3    NN1     1  0.334087019303  0.187114168357
   CP3   NN1C     1  0.334087019303  0.187114168357
   CP3    NN2     1  0.334087019303  0.187114168357
   CP3   NN2B     1  0.334087019303  0.187114168357
   CP3   NN2C     1  0.334087019303  0.187114168357
   CP3   NN2G     1  0.334087019303  0.187114168357
   CP3   NN2U     1  0.334087019303  0.187114168357
   CP3    NN3     1  0.334087019303  0.187114168357
   CP3   NN3A     1  0.334087019303  0.187114168357
   CP3   NN3G     1  0.334087019303  0.187114168357
   CP3   NN3I     1  0.334087019303  0.187114168357
   CP3    NN4     1  0.334087019303  0.187114168357
   CP3    NN6     1  0.334087019303  0.187114168357
   CP3    NNG     1  0.334087019303  0.187114168357
   CP3     NP     1  0.334087019303  0.187114168357
   CP3    NPH     1  0.334087019303  0.187114168357
   CP3    NR1     1  0.334087019303  0.187114168357
   CP3    NR2     1  0.334087019303  0.187114168357
   CP3    NR3     1  0.334087019303  0.187114168357
   CP3   NRC4     1  0.334087019303  0.187114168357
   CP3   NRN1     1  0.347450500075  0.280671252536
   CP3   NRN2     1  0.346559601357  0.102486650838
   CP3    NS1     1  0.334087019303  0.187114168357
   CP3    NS2     1  0.334087019303  0.187114168357
   CP3    NTL     1  0.334087019303  0.187114168357
   CP3     NY     1  0.334087019303  0.187114168357
   CP3      O     1  0.293996576986  0.144938011577
   CP3    O2L     1  0.320723538531  0.144938011577
   CP3    OAL     1  0.326959829558  0.163176000000
   CP3     OB     1  0.293996576986  0.144938011577
   CP3    OBL     1  0.293996576986  0.144938011577
   CP3     OC     1  0.320723538531  0.144938011577
   CP3  OC2D1     1  0.293996576986  0.144938011577
   CP3  OC2D2     1  0.320723538531  0.144938011577
   CP3  OC2D3     1  0.293996576986  0.144938011577
   CP3  OC2D4     1  0.293996576986  0.144938011577
   CP3  OC2DP     1  0.320723538531  0.144938011577
   CP3  OC301     1  0.316269044940  0.132309697301
   CP3  OC302     1  0.316269044940  0.132309697301
   CP3  OC303     1  0.316269044940  0.132309697301
   CP3 OC305A     1  0.316269044940  0.132309697301
   CP3  OC30A     1  0.316269044940  0.132309697301
   CP3  OC30P     1  0.326959829558  0.163176000000
   CP3  OC311     1  0.326514380198  0.183381431383
   CP3 OC311M     1  0.326514380198  0.183381431383
   CP3  OC312     1  0.326959829558  0.163176000000
   CP3 OC3C51     1  0.316269044940  0.132309697301
   CP3 OC3C5M     1  0.316269044940  0.132309697301
   CP3 OC3C61     1  0.316269044940  0.132309697301
   CP3    OCA     1  0.293996576986  0.144938011577
   CP3    OCL     1  0.320723538531  0.144938011577
   CP3  OG2D1     1  0.293996576986  0.144938011577
   CP3  OG2D2     1  0.320723538531  0.144938011577
   CP3  OG2D3     1  0.293996576986  0.144938011577
   CP3  OG2D4     1  0.320723538531  0.144938011577
   CP3  OG2D5     1  0.320010819556  0.169954883425
   CP3  OG2N1     1  0.320723538531  0.144938011577
   CP3  OG2P1     1  0.320723538531  0.144938011577
   CP3 OG2R50     1  0.320723538531  0.144938011577
   CP3  OG2S1     1  0.318906105146  0.157831660601
   CP3  OG301     1  0.316269044940  0.132309697301
   CP3  OG302     1  0.316269044940  0.132309697301
   CP3  OG303     1  0.316269044940  0.132309697301
   CP3  OG304     1  0.316269044940  0.132309697301
   CP3  OG311     1  0.326514380198  0.183381431383
   CP3  OG312     1  0.325178032121  0.144938011577
   CP3 OG3C31     1  0.316269044940  0.132309697301
   CP3 OG3C51     1  0.316269044940  0.132309697301
   CP3 OG3C61     1  0.316269044940  0.132309697301
   CP3 OG3R60     1  0.316269044940  0.132309697301
   CP3    OH1     1  0.326959829558  0.163176000000
   CP3    OHL     1  0.326959829558  0.163176000000
   CP3   OLG1     1  0.293996576986  0.144938011577
   CP3   OLG2     1  0.320723538531  0.144938011577
   CP3   OLG3     1  0.320723538531  0.144938011577
   CP3   OLG4     1  0.316269044940  0.132309697301
   CP3   OLG5     1  0.316269044940  0.132309697301
   CP3   OLG6     1  0.326514380198  0.183381431383
   CP3   OLG7     1  0.316269044940  0.132309697301
   CP3   OLG8     1  0.316269044940  0.132309697301
   CP3     OM     1  0.320723538531  0.144938011577
   CP3    ON1     1  0.320723538531  0.144938011577
   CP3   ON1C     1  0.320723538531  0.144938011577
   CP3    ON2     1  0.326959829558  0.163176000000
   CP3   ON2B     1  0.326959829558  0.163176000000
   CP3   ON2M     1  0.316269044940  0.132309697301
   CP3    ON3     1  0.320723538531  0.144938011577
   CP3    ON4     1  0.326959829558  0.163176000000
   CP3    ON5     1  0.326959829558  0.163176000000
   CP3    ON6     1  0.326959829558  0.163176000000
   CP3   ON6B     1  0.326959829558  0.163176000000
   CP3   OPER     1  0.318427692534  0.188901923946
   CP3     OS     1  0.326959829558  0.163176000000
   CP3   OSIA     1  0.326959829558  0.163176000000
   CP3   OSIE     1  0.326959829558  0.163176000000
   CP3   OSIH     1  0.326959829558  0.163176000000
   CP3    OSL     1  0.316269044940  0.132309697301
   CP3   OSLP     1  0.316269044940  0.132309697301
   CP3    OST     1  0.320010819556  0.169954883425
   CP3     OT     1  0.326799467788  0.163176000000
   CP3     OX     1  0.320723538531  0.144938011577
   CP3      P     1  0.360813980847  0.320014464673
   CP3     P2     1  0.360813980847  0.320014464673
   CP3     P3     1  0.360813980847  0.320014464673
   CP3     P4     1  0.360813980847  0.320014464673
   CP3     PB     1  0.328073452955  0.716185437439
   CP3   PB2P     1  0.325890751096  0.204716924713
   CP3     PC     1  0.360813980847  0.320014464673
   CP3     PD     1  0.294842930769  1.037598257516
   CP3   PD2P     1  0.251865976605  0.174628752363
   CP3    PG0     1  0.360813980847  0.320014464673
   CP3    PG1     1  0.360813980847  0.320014464673
   CP3    PG2     1  0.360813980847  0.320014464673
   CP3     PL     1  0.360813980847  0.320014464673
   CP3   PM3P     1  0.316910492017  0.176275053255
   CP3    POT     1  0.326403017859  0.123410269913
   CP3   PR3P     1  0.317079762773  0.178642591472
   CP3     PT     1  0.296001099102  1.168527606863
   CP3   PT2P     1  0.240284293270  0.168973521997
   CP3   PU3P     1  0.318024115415  0.179522368790
   CP3   RA2P     1  0.355459679551  0.229891668540
   CP3   RH3P     1  0.210367914314  0.149983415617
   CP3    RUB     1  0.338541512893  0.162045623205
   CP3      S     1  0.347450500075  0.280671252536
   CP3     SC     1  0.356359487256  0.286840588481
   CP3   SC3P     1  0.266993436839  0.157109060719
   CP3  SEGD1     1  0.363041227642  0.330244580395
   CP3  SG2D1     1  0.351904993665  0.314496560236
   CP3  SG2P1     1  0.355798221064  0.332305491450
   CP3  SG2P2     1  0.352314807076  0.329421919951
   CP3 SG2R50     1  0.347450500075  0.280671252536
   CP3  SG301     1  0.345223253279  0.257919081884
   CP3  SG302     1  0.365268474438  0.286840588481
   CP3  SG311     1  0.347450500075  0.280671252536
   CP3  SG3O1     1  0.356359487256  0.286840588481
   CP3  SG3O2     1  0.347450500075  0.247528778125
   CP3  SG3O3     1  0.347450500075  0.247528778125
   CP3     SI     1  0.365268474438  0.324091246411
   CP3   SIH3     1  0.365268474438  0.324091246411
   CP3     SL     1  0.356359487256  0.286840588481
   CP3     SM     1  0.345223253279  0.257919081884
   CP3   SM2P     1  0.334666103469  0.207012887251
   CP3   SM3P     1  0.308847858618  0.175378986746
   CP3   SN2P     1  0.316981763914  0.181365662197
   CP3    SOD     1  0.294954293108  0.090610410351
   CP3     SP     1  0.365268474438  0.280671252536
   CP3   SR2P     1  0.334612649546  0.200133451797
   CP3     SS     1  0.365268474438  0.286840588481
   CP3   TB3P     1  0.300678317372  0.172155203837
   CP3   TI1P     1  0.341276571958  0.266826378666
   CP3   TI3P     1  0.243117351193  0.149983415617
   CP3   TL3P     1  0.246716582015  0.168869889039
   CP3   TM3P     1  0.289417357575  0.168402751521
   CP3    U3P     1  0.320830446377  0.182184255566
   CP3    V2P     1  0.267599247968  0.167830039933
   CP3    V3P     1  0.223989755715  0.147096016316
   CP3    Y3P     1  0.295190381269  0.170263611896
   CP3   YB2P     1  0.312616360195  0.189623385225
   CP3   YB3P     1  0.284659958420  0.167569069413
   CP3     ZN     1  0.266378716724  0.209200000000
   CPA   CPD1     1  0.329632525712  0.125520000000
   CPA   CR33     1  0.329632525712  0.125520000000
   CPA   CRL1     1  0.329632525712  0.125520000000
   CPA   CRL2     1  0.329632525712  0.125520000000
   CPA     CT     1  0.329632525712  0.125520000000
   CPA    CT1     1  0.329632525712  0.125520000000
   CPA   CT1X     1  0.329632525712  0.125520000000
   CPA    CT2     1  0.329632525712  0.125520000000
   CPA   CT2A     1  0.329632525712  0.125520000000
   CPA   CT2P     1  0.329632525712  0.125520000000
   CPA   CT2X     1  0.329632525712  0.125520000000
   CPA    CT3     1  0.329632525712  0.125520000000
   CPA   CT3X     1  0.329632525712  0.125520000000
   CPA   CTD1     1  0.329632525712  0.125520000000
   CPA   CTL1     1  0.329632525712  0.125520000000
   CPA   CTL2     1  0.329632525712  0.125520000000
   CPA   CTL3     1  0.329632525712  0.125520000000
   CPA   CTL5     1  0.329632525712  0.125520000000
   CPA   CTO1     1  0.329632525712  0.125520000000
   CPA   CTO2     1  0.329632525712  0.125520000000
   CPA     HP     1  0.281363633163  0.217407017366
   CPA      N     1  0.325178032121  0.012552000000
   CPA  NC2D1     1  0.298451070577  0.561342505072
   CPA  NG2S0     1  0.325178032121  0.012552000000
   CPA  NG2S1     1  0.298451070577  0.561342505072
   CPA    NH1     1  0.298451070577  0.561342505072
   CPA    NHL     1  0.298451070577  0.561342505072
   CPA      O     1  0.285087589805  0.434814034732
   CPA     OB     1  0.285087589805  0.434814034732
   CPA    OBL     1  0.285087589805  0.434814034732
   CPA  OC2D1     1  0.285087589805  0.434814034732
   CPA  OC2D3     1  0.285087589805  0.434814034732
   CPA  OC2D4     1  0.285087589805  0.434814034732
   CPA    OCA     1  0.285087589805  0.434814034732
   CPA  OG2D1     1  0.285087589805  0.434814034732
   CPA  OG2D3     1  0.285087589805  0.434814034732
   CPA   OLG1     1  0.285087589805  0.434814034732
   CPB   CPD1     1  0.329632525712  0.125520000000
   CPB   CR33     1  0.329632525712  0.125520000000
   CPB   CRL1     1  0.329632525712  0.125520000000
   CPB   CRL2     1  0.329632525712  0.125520000000
   CPB     CT     1  0.329632525712  0.125520000000
   CPB    CT1     1  0.329632525712  0.125520000000
   CPB   CT1X     1  0.329632525712  0.125520000000
   CPB    CT2     1  0.329632525712  0.125520000000
   CPB   CT2A     1  0.329632525712  0.125520000000
   CPB   CT2P     1  0.329632525712  0.125520000000
   CPB   CT2X     1  0.329632525712  0.125520000000
   CPB    CT3     1  0.329632525712  0.125520000000
   CPB   CT3X     1  0.329632525712  0.125520000000
   CPB   CTD1     1  0.329632525712  0.125520000000
   CPB   CTL1     1  0.329632525712  0.125520000000
   CPB   CTL2     1  0.329632525712  0.125520000000
   CPB   CTL3     1  0.329632525712  0.125520000000
   CPB   CTL5     1  0.329632525712  0.125520000000
   CPB   CTO1     1  0.329632525712  0.125520000000
   CPB   CTO2     1  0.329632525712  0.125520000000
   CPB     HP     1  0.281363633163  0.217407017366
   CPB      N     1  0.325178032121  0.012552000000
   CPB  NC2D1     1  0.298451070577  0.561342505072
   CPB  NG2S0     1  0.325178032121  0.012552000000
   CPB  NG2S1     1  0.298451070577  0.561342505072
   CPB    NH1     1  0.298451070577  0.561342505072
   CPB    NHL     1  0.298451070577  0.561342505072
   CPB      O     1  0.285087589805  0.434814034732
   CPB     OB     1  0.285087589805  0.434814034732
   CPB    OBL     1  0.285087589805  0.434814034732
   CPB  OC2D1     1  0.285087589805  0.434814034732
   CPB  OC2D3     1  0.285087589805  0.434814034732
   CPB  OC2D4     1  0.285087589805  0.434814034732
   CPB    OCA     1  0.285087589805  0.434814034732
   CPB  OG2D1     1  0.285087589805  0.434814034732
   CPB  OG2D3     1  0.285087589805  0.434814034732
   CPB   OLG1     1  0.285087589805  0.434814034732
  CPD1   CPD1     1  0.338541512893  0.041840000000
  CPD1   CPH1     1  0.329632525712  0.093557084179
  CPD1   CPH2     1  0.329632525712  0.093557084179
  CPD1    CPM     1  0.329632525712  0.125520000000
  CPD1    CPT     1  0.334977918021  0.131646486622
  CPD1   CR2P     1  0.263634748672  0.170828164985
  CPD1   CR33     1  0.338541512893  0.041840000000
  CPD1   CR3P     1  0.244382427373  0.145299904804
  CPD1   CRL1     1  0.338541512893  0.041840000000
  CPD1   CRL2     1  0.338541512893  0.041840000000
  CPD1   CRN1     1  0.347450500075  0.138767581228
  CPD1     CS     1  0.365268474438  0.138767581228
  CPD1    CST     1  0.308518226092  0.100764063435
  CPD1     CT     1  0.338541512893  0.041840000000
  CPD1    CT1     1  0.338541512893  0.041840000000
  CPD1   CT1X     1  0.338541512893  0.041840000000
  CPD1    CT2     1  0.338541512893  0.041840000000
  CPD1   CT2A     1  0.338541512893  0.041840000000
  CPD1   CT2P     1  0.338541512893  0.041840000000
  CPD1   CT2X     1  0.338541512893  0.041840000000
  CPD1    CT3     1  0.338541512893  0.041840000000
  CPD1   CT3X     1  0.338541512893  0.041840000000
  CPD1   CTD1     1  0.338541512893  0.041840000000
  CPD1   CTL1     1  0.338541512893  0.041840000000
  CPD1   CTL2     1  0.338541512893  0.041840000000
  CPD1   CTL3     1  0.338541512893  0.041840000000
  CPD1   CTL5     1  0.338541512893  0.041840000000
  CPD1   CTO1     1  0.338541512893  0.041840000000
  CPD1   CTO2     1  0.338541512893  0.041840000000
  CPD1     CU     1  0.285800308779  0.908997471504
  CPD1   CU1P     1  0.246066225950  0.180057894334
  CPD1   CU2P     1  0.233869822499  0.162315474555
  CPD1     CY     1  0.346559601357  0.113045454929
  CPD1    DUM     1  0.169270756447  0.000000000000
  CPD1   DY3P     1  0.297952167295  0.171135318061
  CPD1   ER3P     1  0.291083338178  0.169232326746
  CPD1   EU2P     1  0.333231756533  0.203602227414
  CPD1   EU3P     1  0.304954631219  0.174528477447
  CPD1     F1     1  0.314487247504  0.153729976257
  CPD1     F2     1  0.314487247504  0.135577095411
  CPD1     F3     1  0.311814551349  0.130309939452
  CPD1     FA     1  0.320723538531  0.144938011577
  CPD1     FE     1  0.227179173126  0.000000000000
  CPD1   FE2P     1  0.265496726993  0.167098295383
  CPD1   FE3P     1  0.219722350855  0.148045032716
  CPD1   FGA1     1  0.314487247504  0.153729976257
  CPD1   FGA2     1  0.314487247504  0.135577095411
  CPD1   FGA3     1  0.311814551349  0.130309939452
  CPD1   FGP1     1  0.311814551349  0.130309939452
  CPD1   FGR1     1  0.320723538531  0.144938011577
  CPD1    FNA     1  0.320723538531  0.144938011577
  CPD1   GA3P     1  0.189485248361  0.145299904804
  CPD1   GD3P     1  0.303351013527  0.173673803114
  CPD1      H     1  0.189271432669  0.089736802707
  CPD1     HA     1  0.286869387241  0.062058748940
  CPD1    HA1     1  0.288651184677  0.088756043175
  CPD1    HA2     1  0.288651184677  0.077149148019
  CPD1    HA3     1  0.288651184677  0.064818249282
  CPD1    HAL     1  0.286869387241  0.062058748940
  CPD1   HAL1     1  0.286869387241  0.062058748940
  CPD1   HAL2     1  0.288651184677  0.070011711020
  CPD1   HAL3     1  0.288651184677  0.064818249282
  CPD1     HB     1  0.286869387241  0.062058748940
  CPD1    HB1     1  0.286869387241  0.062058748940
  CPD1    HB2     1  0.288651184677  0.070011711020
  CPD1    HBL     1  0.286869387241  0.062058748940
  CPD1     HC     1  0.189271432669  0.089736802707
  CPD1   HCA1     1  0.288651184677  0.088756043175
  CPD1  HCA1A     1  0.288651184677  0.088756043175
  CPD1 HCA1C2     1  0.288651184677  0.088756043175
  CPD1   HCA2     1  0.288651184677  0.078275472531
  CPD1 HCA25A     1  0.285087589805  0.078275472531
  CPD1  HCA2A     1  0.288651184677  0.078275472531
  CPD1 HCA2C2     1  0.285087589805  0.078275472531
  CPD1   HCA3     1  0.288651184677  0.064818249282
  CPD1  HCA3A     1  0.288651184677  0.064818249282
  CPD1  HCA3M     1  0.288651184677  0.064818249282
  CPD1    HCL     1  0.189271432669  0.089736802707
  CPD1   HCP1     1  0.189271432669  0.089736802707
  CPD1  HCP1M     1  0.189271432669  0.089736802707
  CPD1   HCR1     1  0.240542653898  0.089736802707
  CPD1     HE     1  0.301123766731  0.061020452073
  CPD1    HE1     1  0.280633096214  0.073666921749
  CPD1    HE2     1  0.281523994932  0.067464972838
  CPD1   HEL1     1  0.280633096214  0.073666921749
  CPD1   HEL2     1  0.281523994932  0.067464972838
  CPD1    HF1     1  0.286869387241  0.070011711020
  CPD1    HF2     1  0.285087589805  0.072469005789
  CPD1   HG2P     1  0.274557166956  0.189623385225
  CPD1   HGA1     1  0.288651184677  0.088756043175
  CPD1   HGA2     1  0.288651184677  0.078275472531
  CPD1   HGA3     1  0.288651184677  0.064818249282
  CPD1   HGA4     1  0.280633096214  0.073666921749
  CPD1   HGA5     1  0.281523994932  0.067464972838
  CPD1   HGA6     1  0.286869387241  0.070011711020
  CPD1   HGA7     1  0.285087589805  0.072469005789
  CPD1 HGAAM0     1  0.283305792369  0.070011711020
  CPD1 HGAAM1     1  0.283305792369  0.070011711020
  CPD1 HGAAM2     1  0.281523994932  0.083680000000
  CPD1   HGP1     1  0.189271432669  0.089736802707
  CPD1   HGP2     1  0.189271432669  0.089736802707
  CPD1   HGP3     1  0.209361198763  0.132309697301
  CPD1   HGP4     1  0.189271432669  0.089736802707
  CPD1   HGP5     1  0.231633666716  0.089736802707
  CPD1 HGPAM1     1  0.247224394284  0.039692909190
  CPD1 HGPAM2     1  0.247224394284  0.041840000000
  CPD1 HGPAM3     1  0.246778944925  0.045833423612
  CPD1  HGR51     1  0.290272620344  0.072469005789
  CPD1  HGR52     1  0.249451641079  0.089736802707
  CPD1  HGR53     1  0.231633666716  0.089736802707
  CPD1  HGR61     1  0.290272620344  0.072469005789
  CPD1  HGR62     1  0.267269615442  0.089736802707
  CPD1  HGR63     1  0.249451641079  0.089736802707
  CPD1  HGR71     1  0.290272620344  0.072469005789
  CPD1     HL     1  0.231633666716  0.089736802707
  CPD1  HLGA1     1  0.288651184677  0.088756043175
  CPD1  HLGA2     1  0.288651184677  0.078275472531
  CPD1  HLGA3     1  0.288651184677  0.064818249282
  CPD1  HLGA4     1  0.280633096214  0.073666921749
  CPD1  HLGP1     1  0.189271432669  0.089736802707
  CPD1 HLGR52     1  0.249451641079  0.089736802707
  CPD1 HLGR61     1  0.290272620344  0.072469005789
  CPD1 HLGR62     1  0.267269615442  0.089736802707
  CPD1    HN1     1  0.189271432669  0.089736802707
  CPD1    HN2     1  0.189271432669  0.089736802707
  CPD1    HN3     1  0.267269615442  0.089736802707
  CPD1   HN3B     1  0.249451641079  0.089736802707
  CPD1    HN4     1  0.189271432669  0.089736802707
  CPD1    HN5     1  0.189271432669  0.089736802707
  CPD1    HN6     1  0.286869387241  0.062058748940
  CPD1    HN7     1  0.286869387241  0.062058748940
  CPD1    HN8     1  0.288651184677  0.070011711020
  CPD1    HN9     1  0.288651184677  0.064818249282
  CPD1   HNE1     1  0.280633096214  0.073666921749
  CPD1   HNE2     1  0.281523994932  0.067464972838
  CPD1    HNP     1  0.290272620344  0.072469005789
  CPD1   HO3P     1  0.293168041178  0.170263611896
  CPD1    HOL     1  0.189271432669  0.089736802707
  CPD1     HP     1  0.290272620344  0.072469005789
  CPD1   HPER     1  0.189271432669  0.089736802707
  CPD1    HR1     1  0.249451641079  0.089736802707
  CPD1    HR2     1  0.231633666716  0.089736802707
  CPD1    HR3     1  0.300054688270  0.036952087465
  CPD1   HRA3     1  0.288651184677  0.064818249282
  CPD1   HRM1     1  0.247224394284  0.039692909190
  CPD1   HRM2     1  0.247224394284  0.041840000000
  CPD1   HRP2     1  0.189271432669  0.089736802707
  CPD1     HS     1  0.209361198763  0.132309697301
  CPD1   HSIA     1  0.286869387241  0.062058748940
  CPD1   HSIO     1  0.189271432669  0.089736802707
  CPD1     HT     1  0.189271432669  0.089736802707
  CPD1     HX     1  0.189271432669  0.089736802707
  CPD1   IGR1     1  0.368832069310  0.301712530731
  CPD1   IN3P     1  0.246449312399  0.160580590010
  CPD1   LA3P     1  0.327200372211  0.182184255566
  CPD1    LIT     1  0.284864865125  0.020196198771
  CPD1    LPH     1  0.169270756447  0.000000000000
  CPD1   LU3P     1  0.289648991242  0.166731218816
  CPD1     MG     1  0.274842254546  0.051243325419
  CPD1   MN2P     1  0.276508235149  0.171747976291
  CPD1   MN3P     1  0.203516903172  0.148045032716
  CPD1      N     1  0.334087019303  0.004184000000
  CPD1     NC     1  0.334087019303  0.324091246411
  CPD1    NC2     1  0.334087019303  0.187114168357
  CPD1  NC2D1     1  0.307360057758  0.187114168357
  CPD1  NC311     1  0.347450500075  0.088756043175
  CPD1   ND3P     1  0.313587439798  0.177117175768
  CPD1     NE     1  0.305578260322  0.122698965603
  CPD1  NG1T1     1  0.328741626994  0.177512086349
  CPD1  NG2D1     1  0.334087019303  0.187114168357
  CPD1  NG2O1     1  0.334087019303  0.187114168357
  CPD1  NG2P1     1  0.334087019303  0.187114168357
  CPD1 NG2R43     1  0.334087019303  0.187114168357
  CPD1 NG2R50     1  0.334087019303  0.187114168357
  CPD1 NG2R51     1  0.334087019303  0.187114168357
  CPD1 NG2R52     1  0.334087019303  0.187114168357
  CPD1 NG2R53     1  0.334087019303  0.187114168357
  CPD1 NG2R57     1  0.334087019303  0.187114168357
  CPD1 NG2R60     1  0.337650614175  0.102486650838
  CPD1 NG2R61     1  0.334087019303  0.187114168357
  CPD1 NG2R62     1  0.352795892384  0.093557084179
  CPD1 NG2R67     1  0.334087019303  0.187114168357
  CPD1 NG2RC0     1  0.334087019303  0.187114168357
  CPD1  NG2S0     1  0.334087019303  0.004184000000
  CPD1  NG2S1     1  0.307360057758  0.187114168357
  CPD1  NG2S2     1  0.334087019303  0.187114168357
  CPD1  NG2S3     1  0.334087019303  0.187114168357
  CPD1  NG301     1  0.347450500075  0.078275472531
  CPD1  NG311     1  0.347450500075  0.088756043175
  CPD1  NG321     1  0.346559601357  0.102486650838
  CPD1  NG331     1  0.345668702638  0.110698234855
  CPD1 NG3C51     1  0.334087019303  0.187114168357
  CPD1  NG3N1     1  0.351904993665  0.102486650838
  CPD1  NG3P0     1  0.334087019303  0.187114168357
  CPD1  NG3P1     1  0.334087019303  0.187114168357
  CPD1  NG3P2     1  0.334087019303  0.187114168357
  CPD1  NG3P3     1  0.334087019303  0.187114168357
  CPD1    NH1     1  0.307360057758  0.187114168357
  CPD1    NH2     1  0.334087019303  0.187114168357
  CPD1    NH3     1  0.334087019303  0.187114168357
  CPD1   NH3L     1  0.334087019303  0.187114168357
  CPD1    NHL     1  0.307360057758  0.187114168357
  CPD1     NI     1  0.282949432881  0.994525446633
  CPD1   NI2P     1  0.238787583423  0.158440517242
  CPD1    NN1     1  0.334087019303  0.187114168357
  CPD1   NN1C     1  0.334087019303  0.187114168357
  CPD1    NN2     1  0.334087019303  0.187114168357
  CPD1   NN2B     1  0.334087019303  0.187114168357
  CPD1   NN2C     1  0.334087019303  0.187114168357
  CPD1   NN2G     1  0.334087019303  0.187114168357
  CPD1   NN2U     1  0.334087019303  0.187114168357
  CPD1    NN3     1  0.334087019303  0.187114168357
  CPD1   NN3A     1  0.334087019303  0.187114168357
  CPD1   NN3G     1  0.334087019303  0.187114168357
  CPD1   NN3I     1  0.334087019303  0.187114168357
  CPD1    NN4     1  0.334087019303  0.187114168357
  CPD1    NN6     1  0.334087019303  0.187114168357
  CPD1    NNG     1  0.334087019303  0.187114168357
  CPD1     NP     1  0.334087019303  0.187114168357
  CPD1    NPH     1  0.334087019303  0.187114168357
  CPD1    NR1     1  0.334087019303  0.187114168357
  CPD1    NR2     1  0.334087019303  0.187114168357
  CPD1    NR3     1  0.334087019303  0.187114168357
  CPD1   NRC4     1  0.334087019303  0.187114168357
  CPD1   NRN1     1  0.347450500075  0.280671252536
  CPD1   NRN2     1  0.346559601357  0.102486650838
  CPD1    NS1     1  0.334087019303  0.187114168357
  CPD1    NS2     1  0.334087019303  0.187114168357
  CPD1    NTL     1  0.334087019303  0.187114168357
  CPD1     NY     1  0.334087019303  0.187114168357
  CPD1      O     1  0.293996576986  0.144938011577
  CPD1    O2L     1  0.320723538531  0.144938011577
  CPD1    OAL     1  0.326959829558  0.163176000000
  CPD1     OB     1  0.293996576986  0.144938011577
  CPD1    OBL     1  0.293996576986  0.144938011577
  CPD1     OC     1  0.320723538531  0.144938011577
  CPD1  OC2D1     1  0.293996576986  0.144938011577
  CPD1  OC2D2     1  0.320723538531  0.144938011577
  CPD1  OC2D3     1  0.293996576986  0.144938011577
  CPD1  OC2D4     1  0.293996576986  0.144938011577
  CPD1  OC2DP     1  0.320723538531  0.144938011577
  CPD1  OC301     1  0.316269044940  0.132309697301
  CPD1  OC302     1  0.316269044940  0.132309697301
  CPD1  OC303     1  0.316269044940  0.132309697301
  CPD1 OC305A     1  0.316269044940  0.132309697301
  CPD1  OC30A     1  0.316269044940  0.132309697301
  CPD1  OC30P     1  0.326959829558  0.163176000000
  CPD1  OC311     1  0.326514380198  0.183381431383
  CPD1 OC311M     1  0.326514380198  0.183381431383
  CPD1  OC312     1  0.326959829558  0.163176000000
  CPD1 OC3C51     1  0.316269044940  0.132309697301
  CPD1 OC3C5M     1  0.316269044940  0.132309697301
  CPD1 OC3C61     1  0.316269044940  0.132309697301
  CPD1    OCA     1  0.293996576986  0.144938011577
  CPD1    OCL     1  0.320723538531  0.144938011577
  CPD1  OG2D1     1  0.293996576986  0.144938011577
  CPD1  OG2D2     1  0.320723538531  0.144938011577
  CPD1  OG2D3     1  0.293996576986  0.144938011577
  CPD1  OG2D4     1  0.320723538531  0.144938011577
  CPD1  OG2D5     1  0.320010819556  0.169954883425
  CPD1  OG2N1     1  0.320723538531  0.144938011577
  CPD1  OG2P1     1  0.320723538531  0.144938011577
  CPD1 OG2R50     1  0.320723538531  0.144938011577
  CPD1  OG2S1     1  0.318906105146  0.157831660601
  CPD1  OG301     1  0.316269044940  0.132309697301
  CPD1  OG302     1  0.316269044940  0.132309697301
  CPD1  OG303     1  0.316269044940  0.132309697301
  CPD1  OG304     1  0.316269044940  0.132309697301
  CPD1  OG311     1  0.326514380198  0.183381431383
  CPD1  OG312     1  0.325178032121  0.144938011577
  CPD1 OG3C31     1  0.316269044940  0.132309697301
  CPD1 OG3C51     1  0.316269044940  0.132309697301
  CPD1 OG3C61     1  0.316269044940  0.132309697301
  CPD1 OG3R60     1  0.316269044940  0.132309697301
  CPD1    OH1     1  0.326959829558  0.163176000000
  CPD1    OHL     1  0.326959829558  0.163176000000
  CPD1   OLG1     1  0.293996576986  0.144938011577
  CPD1   OLG2     1  0.320723538531  0.144938011577
  CPD1   OLG3     1  0.320723538531  0.144938011577
  CPD1   OLG4     1  0.316269044940  0.132309697301
  CPD1   OLG5     1  0.316269044940  0.132309697301
  CPD1   OLG6     1  0.326514380198  0.183381431383
  CPD1   OLG7     1  0.316269044940  0.132309697301
  CPD1   OLG8     1  0.316269044940  0.132309697301
  CPD1     OM     1  0.320723538531  0.144938011577
  CPD1    ON1     1  0.320723538531  0.144938011577
  CPD1   ON1C     1  0.320723538531  0.144938011577
  CPD1    ON2     1  0.326959829558  0.163176000000
  CPD1   ON2B     1  0.326959829558  0.163176000000
  CPD1   ON2M     1  0.316269044940  0.132309697301
  CPD1    ON3     1  0.320723538531  0.144938011577
  CPD1    ON4     1  0.326959829558  0.163176000000
  CPD1    ON5     1  0.326959829558  0.163176000000
  CPD1    ON6     1  0.326959829558  0.163176000000
  CPD1   ON6B     1  0.326959829558  0.163176000000
  CPD1   OPER     1  0.318427692534  0.188901923946
  CPD1     OS     1  0.326959829558  0.163176000000
  CPD1   OSIA     1  0.326959829558  0.163176000000
  CPD1   OSIE     1  0.326959829558  0.163176000000
  CPD1   OSIH     1  0.326959829558  0.163176000000
  CPD1    OSL     1  0.316269044940  0.132309697301
  CPD1   OSLP     1  0.316269044940  0.132309697301
  CPD1    OST     1  0.320010819556  0.169954883425
  CPD1     OT     1  0.326799467788  0.163176000000
  CPD1     OX     1  0.320723538531  0.144938011577
  CPD1      P     1  0.360813980847  0.320014464673
  CPD1     P2     1  0.360813980847  0.320014464673
  CPD1     P3     1  0.360813980847  0.320014464673
  CPD1     P4     1  0.360813980847  0.320014464673
  CPD1     PB     1  0.328073452955  0.716185437439
  CPD1   PB2P     1  0.325890751096  0.204716924713
  CPD1     PC     1  0.360813980847  0.320014464673
  CPD1     PD     1  0.294842930769  1.037598257516
  CPD1   PD2P     1  0.251865976605  0.174628752363
  CPD1    PG0     1  0.360813980847  0.320014464673
  CPD1    PG1     1  0.360813980847  0.320014464673
  CPD1    PG2     1  0.360813980847  0.320014464673
  CPD1     PL     1  0.360813980847  0.320014464673
  CPD1   PM3P     1  0.316910492017  0.176275053255
  CPD1    POT     1  0.326403017859  0.123410269913
  CPD1   PR3P     1  0.317079762773  0.178642591472
  CPD1     PT     1  0.296001099102  1.168527606863
  CPD1   PT2P     1  0.240284293270  0.168973521997
  CPD1   PU3P     1  0.318024115415  0.179522368790
  CPD1   RA2P     1  0.355459679551  0.229891668540
  CPD1   RH3P     1  0.210367914314  0.149983415617
  CPD1    RUB     1  0.338541512893  0.162045623205
  CPD1      S     1  0.347450500075  0.280671252536
  CPD1     SC     1  0.356359487256  0.286840588481
  CPD1   SC3P     1  0.266993436839  0.157109060719
  CPD1  SEGD1     1  0.363041227642  0.330244580395
  CPD1  SG2D1     1  0.351904993665  0.314496560236
  CPD1  SG2P1     1  0.355798221064  0.332305491450
  CPD1  SG2P2     1  0.352314807076  0.329421919951
  CPD1 SG2R50     1  0.347450500075  0.280671252536
  CPD1  SG301     1  0.345223253279  0.257919081884
  CPD1  SG302     1  0.365268474438  0.286840588481
  CPD1  SG311     1  0.347450500075  0.280671252536
  CPD1  SG3O1     1  0.356359487256  0.286840588481
  CPD1  SG3O2     1  0.347450500075  0.247528778125
  CPD1  SG3O3     1  0.347450500075  0.247528778125
  CPD1     SI     1  0.365268474438  0.324091246411
  CPD1   SIH3     1  0.365268474438  0.324091246411
  CPD1     SL     1  0.356359487256  0.286840588481
  CPD1     SM     1  0.345223253279  0.257919081884
  CPD1   SM2P     1  0.334666103469  0.207012887251
  CPD1   SM3P     1  0.308847858618  0.175378986746
  CPD1   SN2P     1  0.316981763914  0.181365662197
  CPD1    SOD     1  0.294954293108  0.090610410351
  CPD1     SP     1  0.365268474438  0.280671252536
  CPD1   SR2P     1  0.334612649546  0.200133451797
  CPD1     SS     1  0.365268474438  0.286840588481
  CPD1   TB3P     1  0.300678317372  0.172155203837
  CPD1   TI1P     1  0.341276571958  0.266826378666
  CPD1   TI3P     1  0.243117351193  0.149983415617
  CPD1   TL3P     1  0.246716582015  0.168869889039
  CPD1   TM3P     1  0.289417357575  0.168402751521
  CPD1    U3P     1  0.320830446377  0.182184255566
  CPD1    V2P     1  0.267599247968  0.167830039933
  CPD1    V3P     1  0.223989755715  0.147096016316
  CPD1    Y3P     1  0.295190381269  0.170263611896
  CPD1   YB2P     1  0.312616360195  0.189623385225
  CPD1   YB3P     1  0.284659958420  0.167569069413
  CPD1     ZN     1  0.266378716724  0.209200000000
  CPH1   CR33     1  0.329632525712  0.093557084179
  CPH1   CRL1     1  0.329632525712  0.093557084179
  CPH1   CRL2     1  0.329632525712  0.093557084179
  CPH1     CT     1  0.329632525712  0.093557084179
  CPH1    CT1     1  0.329632525712  0.093557084179
  CPH1   CT1X     1  0.329632525712  0.093557084179
  CPH1    CT2     1  0.329632525712  0.093557084179
  CPH1   CT2A     1  0.329632525712  0.093557084179
  CPH1   CT2P     1  0.329632525712  0.093557084179
  CPH1   CT2X     1  0.329632525712  0.093557084179
  CPH1    CT3     1  0.329632525712  0.093557084179
  CPH1   CT3X     1  0.329632525712  0.093557084179
  CPH1   CTD1     1  0.329632525712  0.093557084179
  CPH1   CTL1     1  0.329632525712  0.093557084179
  CPH1   CTL2     1  0.329632525712  0.093557084179
  CPH1   CTL3     1  0.329632525712  0.093557084179
  CPH1   CTL5     1  0.329632525712  0.093557084179
  CPH1   CTO1     1  0.329632525712  0.093557084179
  CPH1   CTO2     1  0.329632525712  0.093557084179
  CPH1     HP     1  0.281363633163  0.162045623205
  CPH1      N     1  0.325178032121  0.009355708418
  CPH1  NC2D1     1  0.298451070577  0.418400000000
  CPH1  NG2S0     1  0.325178032121  0.009355708418
  CPH1  NG2S1     1  0.298451070577  0.418400000000
  CPH1    NH1     1  0.298451070577  0.418400000000
  CPH1    NHL     1  0.298451070577  0.418400000000
  CPH1      O     1  0.285087589805  0.324091246411
  CPH1     OB     1  0.285087589805  0.324091246411
  CPH1    OBL     1  0.285087589805  0.324091246411
  CPH1  OC2D1     1  0.285087589805  0.324091246411
  CPH1  OC2D3     1  0.285087589805  0.324091246411
  CPH1  OC2D4     1  0.285087589805  0.324091246411
  CPH1    OCA     1  0.285087589805  0.324091246411
  CPH1  OG2D1     1  0.285087589805  0.324091246411
  CPH1  OG2D3     1  0.285087589805  0.324091246411
  CPH1   OLG1     1  0.285087589805  0.324091246411
  CPH2   CR33     1  0.329632525712  0.093557084179
  CPH2   CRL1     1  0.329632525712  0.093557084179
  CPH2   CRL2     1  0.329632525712  0.093557084179
  CPH2     CT     1  0.329632525712  0.093557084179
  CPH2    CT1     1  0.329632525712  0.093557084179
  CPH2   CT1X     1  0.329632525712  0.093557084179
  CPH2    CT2     1  0.329632525712  0.093557084179
  CPH2   CT2A     1  0.329632525712  0.093557084179
  CPH2   CT2P     1  0.329632525712  0.093557084179
  CPH2   CT2X     1  0.329632525712  0.093557084179
  CPH2    CT3     1  0.329632525712  0.093557084179
  CPH2   CT3X     1  0.329632525712  0.093557084179
  CPH2   CTD1     1  0.329632525712  0.093557084179
  CPH2   CTL1     1  0.329632525712  0.093557084179
  CPH2   CTL2     1  0.329632525712  0.093557084179
  CPH2   CTL3     1  0.329632525712  0.093557084179
  CPH2   CTL5     1  0.329632525712  0.093557084179
  CPH2   CTO1     1  0.329632525712  0.093557084179
  CPH2   CTO2     1  0.329632525712  0.093557084179
  CPH2     HP     1  0.281363633163  0.162045623205
  CPH2      N     1  0.325178032121  0.009355708418
  CPH2  NC2D1     1  0.298451070577  0.418400000000
  CPH2  NG2S0     1  0.325178032121  0.009355708418
  CPH2  NG2S1     1  0.298451070577  0.418400000000
  CPH2    NH1     1  0.298451070577  0.418400000000
  CPH2    NHL     1  0.298451070577  0.418400000000
  CPH2      O     1  0.285087589805  0.324091246411
  CPH2     OB     1  0.285087589805  0.324091246411
  CPH2    OBL     1  0.285087589805  0.324091246411
  CPH2  OC2D1     1  0.285087589805  0.324091246411
  CPH2  OC2D3     1  0.285087589805  0.324091246411
  CPH2  OC2D4     1  0.285087589805  0.324091246411
  CPH2    OCA     1  0.285087589805  0.324091246411
  CPH2  OG2D1     1  0.285087589805  0.324091246411
  CPH2  OG2D3     1  0.285087589805  0.324091246411
  CPH2   OLG1     1  0.285087589805  0.324091246411
   CPM   CR33     1  0.329632525712  0.125520000000
   CPM   CRL1     1  0.329632525712  0.125520000000
   CPM   CRL2     1  0.329632525712  0.125520000000
   CPM     CT     1  0.329632525712  0.125520000000
   CPM    CT1     1  0.329632525712  0.125520000000
   CPM   CT1X     1  0.329632525712  0.125520000000
   CPM    CT2     1  0.329632525712  0.125520000000
   CPM   CT2A     1  0.329632525712  0.125520000000
   CPM   CT2P     1  0.329632525712  0.125520000000
   CPM   CT2X     1  0.329632525712  0.125520000000
   CPM    CT3     1  0.329632525712  0.125520000000
   CPM   CT3X     1  0.329632525712  0.125520000000
   CPM   CTD1     1  0.329632525712  0.125520000000
   CPM   CTL1     1  0.329632525712  0.125520000000
   CPM   CTL2     1  0.329632525712  0.125520000000
   CPM   CTL3     1  0.329632525712  0.125520000000
   CPM   CTL5     1  0.329632525712  0.125520000000
   CPM   CTO1     1  0.329632525712  0.125520000000
   CPM   CTO2     1  0.329632525712  0.125520000000
   CPM     HP     1  0.281363633163  0.217407017366
   CPM      N     1  0.325178032121  0.012552000000
   CPM  NC2D1     1  0.298451070577  0.561342505072
   CPM  NG2S0     1  0.325178032121  0.012552000000
   CPM  NG2S1     1  0.298451070577  0.561342505072
   CPM    NH1     1  0.298451070577  0.561342505072
   CPM    NHL     1  0.298451070577  0.561342505072
   CPM      O     1  0.285087589805  0.434814034732
   CPM     OB     1  0.285087589805  0.434814034732
   CPM    OBL     1  0.285087589805  0.434814034732
   CPM  OC2D1     1  0.285087589805  0.434814034732
   CPM  OC2D3     1  0.285087589805  0.434814034732
   CPM  OC2D4     1  0.285087589805  0.434814034732
   CPM    OCA     1  0.285087589805  0.434814034732
   CPM  OG2D1     1  0.285087589805  0.434814034732
   CPM  OG2D3     1  0.285087589805  0.434814034732
   CPM   OLG1     1  0.285087589805  0.434814034732
   CPT   CR33     1  0.334977918021  0.131646486622
   CPT   CRL1     1  0.334977918021  0.131646486622
   CPT   CRL2     1  0.334977918021  0.131646486622
   CPT     CT     1  0.334977918021  0.131646486622
   CPT    CT1     1  0.334977918021  0.131646486622
   CPT   CT1X     1  0.334977918021  0.131646486622
   CPT    CT2     1  0.334977918021  0.131646486622
   CPT   CT2A     1  0.334977918021  0.131646486622
   CPT   CT2P     1  0.334977918021  0.131646486622
   CPT   CT2X     1  0.334977918021  0.131646486622
   CPT    CT3     1  0.334977918021  0.131646486622
   CPT   CT3X     1  0.334977918021  0.131646486622
   CPT   CTD1     1  0.334977918021  0.131646486622
   CPT   CTL1     1  0.334977918021  0.131646486622
   CPT   CTL2     1  0.334977918021  0.131646486622
   CPT   CTL3     1  0.334977918021  0.131646486622
   CPT   CTL5     1  0.334977918021  0.131646486622
   CPT   CTO1     1  0.334977918021  0.131646486622
   CPT   CTO2     1  0.334977918021  0.131646486622
   CPT     HP     1  0.286709025472  0.228018403468
   CPT      N     1  0.330523424430  0.013164648662
   CPT  NC2D1     1  0.303796462886  0.588740986173
   CPT  NG2S0     1  0.330523424430  0.013164648662
   CPT  NG2S1     1  0.303796462886  0.588740986173
   CPT    NH1     1  0.303796462886  0.588740986173
   CPT    NHL     1  0.303796462886  0.588740986173
   CPT      O     1  0.290432982114  0.456036806936
   CPT     OB     1  0.290432982114  0.456036806936
   CPT    OBL     1  0.290432982114  0.456036806936
   CPT  OC2D1     1  0.290432982114  0.456036806936
   CPT  OC2D3     1  0.290432982114  0.456036806936
   CPT  OC2D4     1  0.290432982114  0.456036806936
   CPT    OCA     1  0.290432982114  0.456036806936
   CPT  OG2D1     1  0.290432982114  0.456036806936
   CPT  OG2D3     1  0.290432982114  0.456036806936
   CPT   OLG1     1  0.290432982114  0.456036806936
  CR2P   CR33     1  0.263634748672  0.170828164985
  CR2P   CRL1     1  0.263634748672  0.170828164985
  CR2P   CRL2     1  0.263634748672  0.170828164985
  CR2P     CT     1  0.263634748672  0.170828164985
  CR2P    CT1     1  0.263634748672  0.170828164985
  CR2P   CT1X     1  0.263634748672  0.170828164985
  CR2P    CT2     1  0.263634748672  0.170828164985
  CR2P   CT2A     1  0.263634748672  0.170828164985
  CR2P   CT2P     1  0.263634748672  0.170828164985
  CR2P   CT2X     1  0.263634748672  0.170828164985
  CR2P    CT3     1  0.263634748672  0.170828164985
  CR2P   CT3X     1  0.263634748672  0.170828164985
  CR2P   CTD1     1  0.263634748672  0.170828164985
  CR2P   CTL1     1  0.263634748672  0.170828164985
  CR2P   CTL2     1  0.263634748672  0.170828164985
  CR2P   CTL3     1  0.263634748672  0.170828164985
  CR2P   CTL5     1  0.263634748672  0.170828164985
  CR2P   CTO1     1  0.263634748672  0.170828164985
  CR2P   CTO2     1  0.263634748672  0.170828164985
  CR2P     HP     1  0.215365856123  0.295883061117
  CR2P      N     1  0.259180255081  0.017082816498
  CR2P  NC2D1     1  0.232453293537  0.763966778754
  CR2P  NG2S0     1  0.259180255081  0.017082816498
  CR2P  NG2S1     1  0.232453293537  0.763966778754
  CR2P    NH1     1  0.232453293537  0.763966778754
  CR2P    NHL     1  0.232453293537  0.763966778754
  CR2P      O     1  0.219089812765  0.591766122234
  CR2P     OB     1  0.219089812765  0.591766122234
  CR2P    OBL     1  0.219089812765  0.591766122234
  CR2P  OC2D1     1  0.219089812765  0.591766122234
  CR2P  OC2D3     1  0.219089812765  0.591766122234
  CR2P  OC2D4     1  0.219089812765  0.591766122234
  CR2P    OCA     1  0.219089812765  0.591766122234
  CR2P  OG2D1     1  0.219089812765  0.591766122234
  CR2P  OG2D3     1  0.219089812765  0.591766122234
  CR2P   OLG1     1  0.219089812765  0.591766122234
  CR33   CR33     1  0.338541512893  0.041840000000
  CR33   CR3P     1  0.244382427373  0.145299904804
  CR33   CRL1     1  0.338541512893  0.041840000000
  CR33   CRL2     1  0.338541512893  0.041840000000
  CR33   CRN1     1  0.347450500075  0.138767581228
  CR33     CS     1  0.365268474438  0.138767581228
  CR33    CST     1  0.308518226092  0.100764063435
  CR33     CT     1  0.338541512893  0.041840000000
  CR33    CT1     1  0.338541512893  0.041840000000
  CR33   CT1X     1  0.338541512893  0.041840000000
  CR33    CT2     1  0.338541512893  0.041840000000
  CR33   CT2A     1  0.338541512893  0.041840000000
  CR33   CT2P     1  0.338541512893  0.041840000000
  CR33   CT2X     1  0.338541512893  0.041840000000
  CR33    CT3     1  0.338541512893  0.041840000000
  CR33   CT3X     1  0.338541512893  0.041840000000
  CR33   CTD1     1  0.338541512893  0.041840000000
  CR33   CTL1     1  0.338541512893  0.041840000000
  CR33   CTL2     1  0.338541512893  0.041840000000
  CR33   CTL3     1  0.338541512893  0.041840000000
  CR33   CTL5     1  0.338541512893  0.041840000000
  CR33   CTO1     1  0.338541512893  0.041840000000
  CR33   CTO2     1  0.338541512893  0.041840000000
  CR33     CU     1  0.285800308779  0.908997471504
  CR33   CU1P     1  0.246066225950  0.180057894334
  CR33   CU2P     1  0.233869822499  0.162315474555
  CR33     CY     1  0.346559601357  0.113045454929
  CR33    DUM     1  0.169270756447  0.000000000000
  CR33   DY3P     1  0.297952167295  0.171135318061
  CR33   ER3P     1  0.291083338178  0.169232326746
  CR33   EU2P     1  0.333231756533  0.203602227414
  CR33   EU3P     1  0.304954631219  0.174528477447
  CR33     F1     1  0.314487247504  0.153729976257
  CR33     F2     1  0.314487247504  0.135577095411
  CR33     F3     1  0.311814551349  0.130309939452
  CR33     FA     1  0.320723538531  0.144938011577
  CR33     FE     1  0.227179173126  0.000000000000
  CR33   FE2P     1  0.265496726993  0.167098295383
  CR33   FE3P     1  0.219722350855  0.148045032716
  CR33   FGA1     1  0.314487247504  0.153729976257
  CR33   FGA2     1  0.314487247504  0.135577095411
  CR33   FGA3     1  0.311814551349  0.130309939452
  CR33   FGP1     1  0.311814551349  0.130309939452
  CR33   FGR1     1  0.320723538531  0.144938011577
  CR33    FNA     1  0.320723538531  0.144938011577
  CR33   GA3P     1  0.189485248361  0.145299904804
  CR33   GD3P     1  0.303351013527  0.173673803114
  CR33      H     1  0.189271432669  0.089736802707
  CR33     HA     1  0.286869387241  0.062058748940
  CR33    HA1     1  0.288651184677  0.088756043175
  CR33    HA2     1  0.288651184677  0.077149148019
  CR33    HA3     1  0.288651184677  0.064818249282
  CR33    HAL     1  0.286869387241  0.062058748940
  CR33   HAL1     1  0.286869387241  0.062058748940
  CR33   HAL2     1  0.288651184677  0.070011711020
  CR33   HAL3     1  0.288651184677  0.064818249282
  CR33     HB     1  0.286869387241  0.062058748940
  CR33    HB1     1  0.286869387241  0.062058748940
  CR33    HB2     1  0.288651184677  0.070011711020
  CR33    HBL     1  0.286869387241  0.062058748940
  CR33     HC     1  0.189271432669  0.089736802707
  CR33   HCA1     1  0.288651184677  0.088756043175
  CR33  HCA1A     1  0.288651184677  0.088756043175
  CR33 HCA1C2     1  0.288651184677  0.088756043175
  CR33   HCA2     1  0.288651184677  0.078275472531
  CR33 HCA25A     1  0.285087589805  0.078275472531
  CR33  HCA2A     1  0.288651184677  0.078275472531
  CR33 HCA2C2     1  0.285087589805  0.078275472531
  CR33   HCA3     1  0.288651184677  0.064818249282
  CR33  HCA3A     1  0.288651184677  0.064818249282
  CR33  HCA3M     1  0.288651184677  0.064818249282
  CR33    HCL     1  0.189271432669  0.089736802707
  CR33   HCP1     1  0.189271432669  0.089736802707
  CR33  HCP1M     1  0.189271432669  0.089736802707
  CR33   HCR1     1  0.240542653898  0.089736802707
  CR33     HE     1  0.301123766731  0.061020452073
  CR33    HE1     1  0.280633096214  0.073666921749
  CR33    HE2     1  0.281523994932  0.067464972838
  CR33   HEL1     1  0.280633096214  0.073666921749
  CR33   HEL2     1  0.281523994932  0.067464972838
  CR33    HF1     1  0.286869387241  0.070011711020
  CR33    HF2     1  0.285087589805  0.072469005789
  CR33   HG2P     1  0.274557166956  0.189623385225
  CR33   HGA1     1  0.288651184677  0.088756043175
  CR33   HGA2     1  0.288651184677  0.078275472531
  CR33   HGA3     1  0.288651184677  0.064818249282
  CR33   HGA4     1  0.280633096214  0.073666921749
  CR33   HGA5     1  0.281523994932  0.067464972838
  CR33   HGA6     1  0.286869387241  0.070011711020
  CR33   HGA7     1  0.285087589805  0.072469005789
  CR33 HGAAM0     1  0.283305792369  0.070011711020
  CR33 HGAAM1     1  0.283305792369  0.070011711020
  CR33 HGAAM2     1  0.281523994932  0.083680000000
  CR33   HGP1     1  0.189271432669  0.089736802707
  CR33   HGP2     1  0.189271432669  0.089736802707
  CR33   HGP3     1  0.209361198763  0.132309697301
  CR33   HGP4     1  0.189271432669  0.089736802707
  CR33   HGP5     1  0.231633666716  0.089736802707
  CR33 HGPAM1     1  0.247224394284  0.039692909190
  CR33 HGPAM2     1  0.247224394284  0.041840000000
  CR33 HGPAM3     1  0.246778944925  0.045833423612
  CR33  HGR51     1  0.290272620344  0.072469005789
  CR33  HGR52     1  0.249451641079  0.089736802707
  CR33  HGR53     1  0.231633666716  0.089736802707
  CR33  HGR61     1  0.290272620344  0.072469005789
  CR33  HGR62     1  0.267269615442  0.089736802707
  CR33  HGR63     1  0.249451641079  0.089736802707
  CR33  HGR71     1  0.290272620344  0.072469005789
  CR33     HL     1  0.231633666716  0.089736802707
  CR33  HLGA1     1  0.288651184677  0.088756043175
  CR33  HLGA2     1  0.288651184677  0.078275472531
  CR33  HLGA3     1  0.288651184677  0.064818249282
  CR33  HLGA4     1  0.280633096214  0.073666921749
  CR33  HLGP1     1  0.189271432669  0.089736802707
  CR33 HLGR52     1  0.249451641079  0.089736802707
  CR33 HLGR61     1  0.290272620344  0.072469005789
  CR33 HLGR62     1  0.267269615442  0.089736802707
  CR33    HN1     1  0.189271432669  0.089736802707
  CR33    HN2     1  0.189271432669  0.089736802707
  CR33    HN3     1  0.267269615442  0.089736802707
  CR33   HN3B     1  0.249451641079  0.089736802707
  CR33    HN4     1  0.189271432669  0.089736802707
  CR33    HN5     1  0.189271432669  0.089736802707
  CR33    HN6     1  0.286869387241  0.062058748940
  CR33    HN7     1  0.286869387241  0.062058748940
  CR33    HN8     1  0.288651184677  0.070011711020
  CR33    HN9     1  0.288651184677  0.064818249282
  CR33   HNE1     1  0.280633096214  0.073666921749
  CR33   HNE2     1  0.281523994932  0.067464972838
  CR33    HNP     1  0.290272620344  0.072469005789
  CR33   HO3P     1  0.293168041178  0.170263611896
  CR33    HOL     1  0.189271432669  0.089736802707
  CR33     HP     1  0.290272620344  0.072469005789
  CR33   HPER     1  0.189271432669  0.089736802707
  CR33    HR1     1  0.249451641079  0.089736802707
  CR33    HR2     1  0.231633666716  0.089736802707
  CR33    HR3     1  0.300054688270  0.036952087465
  CR33   HRA3     1  0.288651184677  0.064818249282
  CR33   HRM1     1  0.247224394284  0.039692909190
  CR33   HRM2     1  0.247224394284  0.041840000000
  CR33   HRP2     1  0.189271432669  0.089736802707
  CR33     HS     1  0.209361198763  0.132309697301
  CR33   HSIA     1  0.286869387241  0.062058748940
  CR33   HSIO     1  0.189271432669  0.089736802707
  CR33     HT     1  0.189271432669  0.089736802707
  CR33     HX     1  0.189271432669  0.089736802707
  CR33   IGR1     1  0.368832069310  0.301712530731
  CR33   IN3P     1  0.246449312399  0.160580590010
  CR33   LA3P     1  0.327200372211  0.182184255566
  CR33    LIT     1  0.284864865125  0.020196198771
  CR33    LPH     1  0.169270756447  0.000000000000
  CR33   LU3P     1  0.289648991242  0.166731218816
  CR33     MG     1  0.274842254546  0.051243325419
  CR33   MN2P     1  0.276508235149  0.171747976291
  CR33   MN3P     1  0.203516903172  0.148045032716
  CR33      N     1  0.334087019303  0.004184000000
  CR33     NC     1  0.334087019303  0.324091246411
  CR33    NC2     1  0.334087019303  0.187114168357
  CR33  NC2D1     1  0.307360057758  0.187114168357
  CR33  NC311     1  0.347450500075  0.088756043175
  CR33   ND3P     1  0.313587439798  0.177117175768
  CR33     NE     1  0.305578260322  0.122698965603
  CR33  NG1T1     1  0.328741626994  0.177512086349
  CR33  NG2D1     1  0.334087019303  0.187114168357
  CR33  NG2O1     1  0.334087019303  0.187114168357
  CR33  NG2P1     1  0.334087019303  0.187114168357
  CR33 NG2R43     1  0.334087019303  0.187114168357
  CR33 NG2R50     1  0.334087019303  0.187114168357
  CR33 NG2R51     1  0.334087019303  0.187114168357
  CR33 NG2R52     1  0.334087019303  0.187114168357
  CR33 NG2R53     1  0.334087019303  0.187114168357
  CR33 NG2R57     1  0.334087019303  0.187114168357
  CR33 NG2R60     1  0.337650614175  0.102486650838
  CR33 NG2R61     1  0.334087019303  0.187114168357
  CR33 NG2R62     1  0.352795892384  0.093557084179
  CR33 NG2R67     1  0.334087019303  0.187114168357
  CR33 NG2RC0     1  0.334087019303  0.187114168357
  CR33  NG2S0     1  0.334087019303  0.004184000000
  CR33  NG2S1     1  0.307360057758  0.187114168357
  CR33  NG2S2     1  0.334087019303  0.187114168357
  CR33  NG2S3     1  0.334087019303  0.187114168357
  CR33  NG301     1  0.347450500075  0.078275472531
  CR33  NG311     1  0.347450500075  0.088756043175
  CR33  NG321     1  0.346559601357  0.102486650838
  CR33  NG331     1  0.345668702638  0.110698234855
  CR33 NG3C51     1  0.334087019303  0.187114168357
  CR33  NG3N1     1  0.351904993665  0.102486650838
  CR33  NG3P0     1  0.334087019303  0.187114168357
  CR33  NG3P1     1  0.334087019303  0.187114168357
  CR33  NG3P2     1  0.334087019303  0.187114168357
  CR33  NG3P3     1  0.334087019303  0.187114168357
  CR33    NH1     1  0.307360057758  0.187114168357
  CR33    NH2     1  0.334087019303  0.187114168357
  CR33    NH3     1  0.334087019303  0.187114168357
  CR33   NH3L     1  0.334087019303  0.187114168357
  CR33    NHL     1  0.307360057758  0.187114168357
  CR33     NI     1  0.282949432881  0.994525446633
  CR33   NI2P     1  0.238787583423  0.158440517242
  CR33    NN1     1  0.334087019303  0.187114168357
  CR33   NN1C     1  0.334087019303  0.187114168357
  CR33    NN2     1  0.334087019303  0.187114168357
  CR33   NN2B     1  0.334087019303  0.187114168357
  CR33   NN2C     1  0.334087019303  0.187114168357
  CR33   NN2G     1  0.334087019303  0.187114168357
  CR33   NN2U     1  0.334087019303  0.187114168357
  CR33    NN3     1  0.334087019303  0.187114168357
  CR33   NN3A     1  0.334087019303  0.187114168357
  CR33   NN3G     1  0.334087019303  0.187114168357
  CR33   NN3I     1  0.334087019303  0.187114168357
  CR33    NN4     1  0.334087019303  0.187114168357
  CR33    NN6     1  0.334087019303  0.187114168357
  CR33    NNG     1  0.334087019303  0.187114168357
  CR33     NP     1  0.334087019303  0.187114168357
  CR33    NPH     1  0.334087019303  0.187114168357
  CR33    NR1     1  0.334087019303  0.187114168357
  CR33    NR2     1  0.334087019303  0.187114168357
  CR33    NR3     1  0.334087019303  0.187114168357
  CR33   NRC4     1  0.334087019303  0.187114168357
  CR33   NRN1     1  0.347450500075  0.280671252536
  CR33   NRN2     1  0.346559601357  0.102486650838
  CR33    NS1     1  0.334087019303  0.187114168357
  CR33    NS2     1  0.334087019303  0.187114168357
  CR33    NTL     1  0.334087019303  0.187114168357
  CR33     NY     1  0.334087019303  0.187114168357
  CR33      O     1  0.293996576986  0.144938011577
  CR33    O2L     1  0.320723538531  0.144938011577
  CR33    OAL     1  0.326959829558  0.163176000000
  CR33     OB     1  0.293996576986  0.144938011577
  CR33    OBL     1  0.293996576986  0.144938011577
  CR33     OC     1  0.320723538531  0.144938011577
  CR33  OC2D1     1  0.293996576986  0.144938011577
  CR33  OC2D2     1  0.320723538531  0.144938011577
  CR33  OC2D3     1  0.293996576986  0.144938011577
  CR33  OC2D4     1  0.293996576986  0.144938011577
  CR33  OC2DP     1  0.320723538531  0.144938011577
  CR33  OC301     1  0.316269044940  0.132309697301
  CR33  OC302     1  0.316269044940  0.132309697301
  CR33  OC303     1  0.316269044940  0.132309697301
  CR33 OC305A     1  0.316269044940  0.132309697301
  CR33  OC30A     1  0.316269044940  0.132309697301
  CR33  OC30P     1  0.326959829558  0.163176000000
  CR33  OC311     1  0.326514380198  0.183381431383
  CR33 OC311M     1  0.326514380198  0.183381431383
  CR33  OC312     1  0.326959829558  0.163176000000
  CR33 OC3C51     1  0.316269044940  0.132309697301
  CR33 OC3C5M     1  0.316269044940  0.132309697301
  CR33 OC3C61     1  0.316269044940  0.132309697301
  CR33    OCA     1  0.293996576986  0.144938011577
  CR33    OCL     1  0.320723538531  0.144938011577
  CR33  OG2D1     1  0.293996576986  0.144938011577
  CR33  OG2D2     1  0.320723538531  0.144938011577
  CR33  OG2D3     1  0.293996576986  0.144938011577
  CR33  OG2D4     1  0.320723538531  0.144938011577
  CR33  OG2D5     1  0.320010819556  0.169954883425
  CR33  OG2N1     1  0.320723538531  0.144938011577
  CR33  OG2P1     1  0.320723538531  0.144938011577
  CR33 OG2R50     1  0.320723538531  0.144938011577
  CR33  OG2S1     1  0.318906105146  0.157831660601
  CR33  OG301     1  0.316269044940  0.132309697301
  CR33  OG302     1  0.316269044940  0.132309697301
  CR33  OG303     1  0.316269044940  0.132309697301
  CR33  OG304     1  0.316269044940  0.132309697301
  CR33  OG311     1  0.326514380198  0.183381431383
  CR33  OG312     1  0.325178032121  0.144938011577
  CR33 OG3C31     1  0.316269044940  0.132309697301
  CR33 OG3C51     1  0.316269044940  0.132309697301
  CR33 OG3C61     1  0.316269044940  0.132309697301
  CR33 OG3R60     1  0.316269044940  0.132309697301
  CR33    OH1     1  0.326959829558  0.163176000000
  CR33    OHL     1  0.326959829558  0.163176000000
  CR33   OLG1     1  0.293996576986  0.144938011577
  CR33   OLG2     1  0.320723538531  0.144938011577
  CR33   OLG3     1  0.320723538531  0.144938011577
  CR33   OLG4     1  0.316269044940  0.132309697301
  CR33   OLG5     1  0.316269044940  0.132309697301
  CR33   OLG6     1  0.326514380198  0.183381431383
  CR33   OLG7     1  0.316269044940  0.132309697301
  CR33   OLG8     1  0.316269044940  0.132309697301
  CR33     OM     1  0.320723538531  0.144938011577
  CR33    ON1     1  0.320723538531  0.144938011577
  CR33   ON1C     1  0.320723538531  0.144938011577
  CR33    ON2     1  0.326959829558  0.163176000000
  CR33   ON2B     1  0.326959829558  0.163176000000
  CR33   ON2M     1  0.316269044940  0.132309697301
  CR33    ON3     1  0.320723538531  0.144938011577
  CR33    ON4     1  0.326959829558  0.163176000000
  CR33    ON5     1  0.326959829558  0.163176000000
  CR33    ON6     1  0.326959829558  0.163176000000
  CR33   ON6B     1  0.326959829558  0.163176000000
  CR33   OPER     1  0.318427692534  0.188901923946
  CR33     OS     1  0.326959829558  0.163176000000
  CR33   OSIA     1  0.326959829558  0.163176000000
  CR33   OSIE     1  0.326959829558  0.163176000000
  CR33   OSIH     1  0.326959829558  0.163176000000
  CR33    OSL     1  0.316269044940  0.132309697301
  CR33   OSLP     1  0.316269044940  0.132309697301
  CR33    OST     1  0.320010819556  0.169954883425
  CR33     OT     1  0.326799467788  0.163176000000
  CR33     OX     1  0.320723538531  0.144938011577
  CR33      P     1  0.360813980847  0.320014464673
  CR33     P2     1  0.360813980847  0.320014464673
  CR33     P3     1  0.360813980847  0.320014464673
  CR33     P4     1  0.360813980847  0.320014464673
  CR33     PB     1  0.328073452955  0.716185437439
  CR33   PB2P     1  0.325890751096  0.204716924713
  CR33     PC     1  0.360813980847  0.320014464673
  CR33     PD     1  0.294842930769  1.037598257516
  CR33   PD2P     1  0.251865976605  0.174628752363
  CR33    PG0     1  0.360813980847  0.320014464673
  CR33    PG1     1  0.360813980847  0.320014464673
  CR33    PG2     1  0.360813980847  0.320014464673
  CR33     PL     1  0.360813980847  0.320014464673
  CR33   PM3P     1  0.316910492017  0.176275053255
  CR33    POT     1  0.326403017859  0.123410269913
  CR33   PR3P     1  0.317079762773  0.178642591472
  CR33     PT     1  0.296001099102  1.168527606863
  CR33   PT2P     1  0.240284293270  0.168973521997
  CR33   PU3P     1  0.318024115415  0.179522368790
  CR33   RA2P     1  0.355459679551  0.229891668540
  CR33   RH3P     1  0.210367914314  0.149983415617
  CR33    RUB     1  0.338541512893  0.162045623205
  CR33      S     1  0.347450500075  0.280671252536
  CR33     SC     1  0.356359487256  0.286840588481
  CR33   SC3P     1  0.266993436839  0.157109060719
  CR33  SEGD1     1  0.363041227642  0.330244580395
  CR33  SG2D1     1  0.351904993665  0.314496560236
  CR33  SG2P1     1  0.355798221064  0.332305491450
  CR33  SG2P2     1  0.352314807076  0.329421919951
  CR33 SG2R50     1  0.347450500075  0.280671252536
  CR33  SG301     1  0.345223253279  0.257919081884
  CR33  SG302     1  0.365268474438  0.286840588481
  CR33  SG311     1  0.347450500075  0.280671252536
  CR33  SG3O1     1  0.356359487256  0.286840588481
  CR33  SG3O2     1  0.347450500075  0.247528778125
  CR33  SG3O3     1  0.347450500075  0.247528778125
  CR33     SI     1  0.365268474438  0.324091246411
  CR33   SIH3     1  0.365268474438  0.324091246411
  CR33     SL     1  0.356359487256  0.286840588481
  CR33     SM     1  0.345223253279  0.257919081884
  CR33   SM2P     1  0.334666103469  0.207012887251
  CR33   SM3P     1  0.308847858618  0.175378986746
  CR33   SN2P     1  0.316981763914  0.181365662197
  CR33    SOD     1  0.294954293108  0.090610410351
  CR33     SP     1  0.365268474438  0.280671252536
  CR33   SR2P     1  0.334612649546  0.200133451797
  CR33     SS     1  0.365268474438  0.286840588481
  CR33   TB3P     1  0.300678317372  0.172155203837
  CR33   TI1P     1  0.341276571958  0.266826378666
  CR33   TI3P     1  0.243117351193  0.149983415617
  CR33   TL3P     1  0.246716582015  0.168869889039
  CR33   TM3P     1  0.289417357575  0.168402751521
  CR33    U3P     1  0.320830446377  0.182184255566
  CR33    V2P     1  0.267599247968  0.167830039933
  CR33    V3P     1  0.223989755715  0.147096016316
  CR33    Y3P     1  0.295190381269  0.170263611896
  CR33   YB2P     1  0.312616360195  0.189623385225
  CR33   YB3P     1  0.284659958420  0.167569069413
  CR33     ZN     1  0.266378716724  0.209200000000
  CR3P   CRL1     1  0.244382427373  0.145299904804
  CR3P   CRL2     1  0.244382427373  0.145299904804
  CR3P     CT     1  0.244382427373  0.145299904804
  CR3P    CT1     1  0.244382427373  0.145299904804
  CR3P   CT1X     1  0.244382427373  0.145299904804
  CR3P    CT2     1  0.244382427373  0.145299904804
  CR3P   CT2A     1  0.244382427373  0.145299904804
  CR3P   CT2P     1  0.244382427373  0.145299904804
  CR3P   CT2X     1  0.244382427373  0.145299904804
  CR3P    CT3     1  0.244382427373  0.145299904804
  CR3P   CT3X     1  0.244382427373  0.145299904804
  CR3P   CTD1     1  0.244382427373  0.145299904804
  CR3P   CTL1     1  0.244382427373  0.145299904804
  CR3P   CTL2     1  0.244382427373  0.145299904804
  CR3P   CTL3     1  0.244382427373  0.145299904804
  CR3P   CTL5     1  0.244382427373  0.145299904804
  CR3P   CTO1     1  0.244382427373  0.145299904804
  CR3P   CTO2     1  0.244382427373  0.145299904804
  CR3P     HP     1  0.196113534824  0.251666817455
  CR3P      N     1  0.239927933782  0.014529990480
  CR3P  NC2D1     1  0.213200972238  0.649800928531
  CR3P  NG2S0     1  0.239927933782  0.014529990480
  CR3P  NG2S1     1  0.213200972238  0.649800928531
  CR3P    NH1     1  0.213200972238  0.649800928531
  CR3P    NHL     1  0.213200972238  0.649800928531
  CR3P      O     1  0.199837491466  0.503333634910
  CR3P     OB     1  0.199837491466  0.503333634910
  CR3P    OBL     1  0.199837491466  0.503333634910
  CR3P  OC2D1     1  0.199837491466  0.503333634910
  CR3P  OC2D3     1  0.199837491466  0.503333634910
  CR3P  OC2D4     1  0.199837491466  0.503333634910
  CR3P    OCA     1  0.199837491466  0.503333634910
  CR3P  OG2D1     1  0.199837491466  0.503333634910
  CR3P  OG2D3     1  0.199837491466  0.503333634910
  CR3P   OLG1     1  0.199837491466  0.503333634910
  CRL1   CRL1     1  0.338541512893  0.041840000000
  CRL1   CRL2     1  0.338541512893  0.041840000000
  CRL1   CRN1     1  0.347450500075  0.138767581228
  CRL1     CS     1  0.365268474438  0.138767581228
  CRL1    CST     1  0.308518226092  0.100764063435
  CRL1     CT     1  0.338541512893  0.041840000000
  CRL1    CT1     1  0.338541512893  0.041840000000
  CRL1   CT1X     1  0.338541512893  0.041840000000
  CRL1    CT2     1  0.338541512893  0.041840000000
  CRL1   CT2A     1  0.338541512893  0.041840000000
  CRL1   CT2P     1  0.338541512893  0.041840000000
  CRL1   CT2X     1  0.338541512893  0.041840000000
  CRL1    CT3     1  0.338541512893  0.041840000000
  CRL1   CT3X     1  0.338541512893  0.041840000000
  CRL1   CTD1     1  0.338541512893  0.041840000000
  CRL1   CTL1     1  0.357250385974  0.115060000000
  CRL1   CTL2     1  0.338541512893  0.041840000000
  CRL1   CTL3     1  0.338541512893  0.041840000000
  CRL1   CTL5     1  0.338541512893  0.041840000000
  CRL1   CTO1     1  0.338541512893  0.041840000000
  CRL1   CTO2     1  0.338541512893  0.041840000000
  CRL1     CU     1  0.285800308779  0.908997471504
  CRL1   CU1P     1  0.246066225950  0.180057894334
  CRL1   CU2P     1  0.233869822499  0.162315474555
  CRL1     CY     1  0.346559601357  0.113045454929
  CRL1    DUM     1  0.169270756447  0.000000000000
  CRL1   DY3P     1  0.297952167295  0.171135318061
  CRL1   ER3P     1  0.291083338178  0.169232326746
  CRL1   EU2P     1  0.333231756533  0.203602227414
  CRL1   EU3P     1  0.304954631219  0.174528477447
  CRL1     F1     1  0.314487247504  0.153729976257
  CRL1     F2     1  0.314487247504  0.135577095411
  CRL1     F3     1  0.311814551349  0.130309939452
  CRL1     FA     1  0.320723538531  0.144938011577
  CRL1     FE     1  0.227179173126  0.000000000000
  CRL1   FE2P     1  0.265496726993  0.167098295383
  CRL1   FE3P     1  0.219722350855  0.148045032716
  CRL1   FGA1     1  0.314487247504  0.153729976257
  CRL1   FGA2     1  0.314487247504  0.135577095411
  CRL1   FGA3     1  0.311814551349  0.130309939452
  CRL1   FGP1     1  0.311814551349  0.130309939452
  CRL1   FGR1     1  0.320723538531  0.144938011577
  CRL1    FNA     1  0.320723538531  0.144938011577
  CRL1   GA3P     1  0.189485248361  0.145299904804
  CRL1   GD3P     1  0.303351013527  0.173673803114
  CRL1      H     1  0.189271432669  0.089736802707
  CRL1     HA     1  0.286869387241  0.062058748940
  CRL1    HA1     1  0.288651184677  0.088756043175
  CRL1    HA2     1  0.288651184677  0.077149148019
  CRL1    HA3     1  0.288651184677  0.064818249282
  CRL1    HAL     1  0.286869387241  0.062058748940
  CRL1   HAL1     1  0.298451070577  0.122591200000
  CRL1   HAL2     1  0.298451070577  0.134306400000
  CRL1   HAL3     1  0.288651184677  0.064818249282
  CRL1     HB     1  0.286869387241  0.062058748940
  CRL1    HB1     1  0.286869387241  0.062058748940
  CRL1    HB2     1  0.288651184677  0.070011711020
  CRL1    HBL     1  0.286869387241  0.062058748940
  CRL1     HC     1  0.189271432669  0.089736802707
  CRL1   HCA1     1  0.288651184677  0.088756043175
  CRL1  HCA1A     1  0.288651184677  0.088756043175
  CRL1 HCA1C2     1  0.288651184677  0.088756043175
  CRL1   HCA2     1  0.288651184677  0.078275472531
  CRL1 HCA25A     1  0.285087589805  0.078275472531
  CRL1  HCA2A     1  0.288651184677  0.078275472531
  CRL1 HCA2C2     1  0.285087589805  0.078275472531
  CRL1   HCA3     1  0.288651184677  0.064818249282
  CRL1  HCA3A     1  0.288651184677  0.064818249282
  CRL1  HCA3M     1  0.288651184677  0.064818249282
  CRL1    HCL     1  0.189271432669  0.089736802707
  CRL1   HCP1     1  0.189271432669  0.089736802707
  CRL1  HCP1M     1  0.189271432669  0.089736802707
  CRL1   HCR1     1  0.240542653898  0.089736802707
  CRL1     HE     1  0.301123766731  0.061020452073
  CRL1    HE1     1  0.280633096214  0.073666921749
  CRL1    HE2     1  0.281523994932  0.067464972838
  CRL1   HEL1     1  0.280633096214  0.073666921749
  CRL1   HEL2     1  0.281523994932  0.067464972838
  CRL1    HF1     1  0.286869387241  0.070011711020
  CRL1    HF2     1  0.285087589805  0.072469005789
  CRL1   HG2P     1  0.274557166956  0.189623385225
  CRL1   HGA1     1  0.288651184677  0.088756043175
  CRL1   HGA2     1  0.288651184677  0.078275472531
  CRL1   HGA3     1  0.288651184677  0.064818249282
  CRL1   HGA4     1  0.280633096214  0.073666921749
  CRL1   HGA5     1  0.281523994932  0.067464972838
  CRL1   HGA6     1  0.286869387241  0.070011711020
  CRL1   HGA7     1  0.285087589805  0.072469005789
  CRL1 HGAAM0     1  0.283305792369  0.070011711020
  CRL1 HGAAM1     1  0.283305792369  0.070011711020
  CRL1 HGAAM2     1  0.281523994932  0.083680000000
  CRL1   HGP1     1  0.189271432669  0.089736802707
  CRL1   HGP2     1  0.189271432669  0.089736802707
  CRL1   HGP3     1  0.209361198763  0.132309697301
  CRL1   HGP4     1  0.189271432669  0.089736802707
  CRL1   HGP5     1  0.231633666716  0.089736802707
  CRL1 HGPAM1     1  0.247224394284  0.039692909190
  CRL1 HGPAM2     1  0.247224394284  0.041840000000
  CRL1 HGPAM3     1  0.246778944925  0.045833423612
  CRL1  HGR51     1  0.290272620344  0.072469005789
  CRL1  HGR52     1  0.249451641079  0.089736802707
  CRL1  HGR53     1  0.231633666716  0.089736802707
  CRL1  HGR61     1  0.290272620344  0.072469005789
  CRL1  HGR62     1  0.267269615442  0.089736802707
  CRL1  HGR63     1  0.249451641079  0.089736802707
  CRL1  HGR71     1  0.290272620344  0.072469005789
  CRL1     HL     1  0.231633666716  0.089736802707
  CRL1  HLGA1     1  0.288651184677  0.088756043175
  CRL1  HLGA2     1  0.288651184677  0.078275472531
  CRL1  HLGA3     1  0.288651184677  0.064818249282
  CRL1  HLGA4     1  0.280633096214  0.073666921749
  CRL1  HLGP1     1  0.189271432669  0.089736802707
  CRL1 HLGR52     1  0.249451641079  0.089736802707
  CRL1 HLGR61     1  0.290272620344  0.072469005789
  CRL1 HLGR62     1  0.267269615442  0.089736802707
  CRL1    HN1     1  0.189271432669  0.089736802707
  CRL1    HN2     1  0.189271432669  0.089736802707
  CRL1    HN3     1  0.267269615442  0.089736802707
  CRL1   HN3B     1  0.249451641079  0.089736802707
  CRL1    HN4     1  0.189271432669  0.089736802707
  CRL1    HN5     1  0.189271432669  0.089736802707
  CRL1    HN6     1  0.286869387241  0.062058748940
  CRL1    HN7     1  0.286869387241  0.062058748940
  CRL1    HN8     1  0.288651184677  0.070011711020
  CRL1    HN9     1  0.288651184677  0.064818249282
  CRL1   HNE1     1  0.280633096214  0.073666921749
  CRL1   HNE2     1  0.281523994932  0.067464972838
  CRL1    HNP     1  0.290272620344  0.072469005789
  CRL1   HO3P     1  0.293168041178  0.170263611896
  CRL1    HOL     1  0.189271432669  0.089736802707
  CRL1     HP     1  0.290272620344  0.072469005789
  CRL1   HPER     1  0.189271432669  0.089736802707
  CRL1    HR1     1  0.249451641079  0.089736802707
  CRL1    HR2     1  0.231633666716  0.089736802707
  CRL1    HR3     1  0.300054688270  0.036952087465
  CRL1   HRA3     1  0.288651184677  0.064818249282
  CRL1   HRM1     1  0.247224394284  0.039692909190
  CRL1   HRM2     1  0.247224394284  0.041840000000
  CRL1   HRP2     1  0.189271432669  0.089736802707
  CRL1     HS     1  0.209361198763  0.132309697301
  CRL1   HSIA     1  0.286869387241  0.062058748940
  CRL1   HSIO     1  0.189271432669  0.089736802707
  CRL1     HT     1  0.189271432669  0.089736802707
  CRL1     HX     1  0.189271432669  0.089736802707
  CRL1   IGR1     1  0.368832069310  0.301712530731
  CRL1   IN3P     1  0.246449312399  0.160580590010
  CRL1   LA3P     1  0.327200372211  0.182184255566
  CRL1    LIT     1  0.284864865125  0.020196198771
  CRL1    LPH     1  0.169270756447  0.000000000000
  CRL1   LU3P     1  0.289648991242  0.166731218816
  CRL1     MG     1  0.274842254546  0.051243325419
  CRL1   MN2P     1  0.276508235149  0.171747976291
  CRL1   MN3P     1  0.203516903172  0.148045032716
  CRL1      N     1  0.334087019303  0.004184000000
  CRL1     NC     1  0.334087019303  0.324091246411
  CRL1    NC2     1  0.334087019303  0.187114168357
  CRL1  NC2D1     1  0.307360057758  0.187114168357
  CRL1  NC311     1  0.347450500075  0.088756043175
  CRL1   ND3P     1  0.313587439798  0.177117175768
  CRL1     NE     1  0.305578260322  0.122698965603
  CRL1  NG1T1     1  0.328741626994  0.177512086349
  CRL1  NG2D1     1  0.334087019303  0.187114168357
  CRL1  NG2O1     1  0.334087019303  0.187114168357
  CRL1  NG2P1     1  0.334087019303  0.187114168357
  CRL1 NG2R43     1  0.334087019303  0.187114168357
  CRL1 NG2R50     1  0.334087019303  0.187114168357
  CRL1 NG2R51     1  0.334087019303  0.187114168357
  CRL1 NG2R52     1  0.334087019303  0.187114168357
  CRL1 NG2R53     1  0.334087019303  0.187114168357
  CRL1 NG2R57     1  0.334087019303  0.187114168357
  CRL1 NG2R60     1  0.337650614175  0.102486650838
  CRL1 NG2R61     1  0.334087019303  0.187114168357
  CRL1 NG2R62     1  0.352795892384  0.093557084179
  CRL1 NG2R67     1  0.334087019303  0.187114168357
  CRL1 NG2RC0     1  0.334087019303  0.187114168357
  CRL1  NG2S0     1  0.334087019303  0.004184000000
  CRL1  NG2S1     1  0.307360057758  0.187114168357
  CRL1  NG2S2     1  0.334087019303  0.187114168357
  CRL1  NG2S3     1  0.334087019303  0.187114168357
  CRL1  NG301     1  0.347450500075  0.078275472531
  CRL1  NG311     1  0.347450500075  0.088756043175
  CRL1  NG321     1  0.346559601357  0.102486650838
  CRL1  NG331     1  0.345668702638  0.110698234855
  CRL1 NG3C51     1  0.334087019303  0.187114168357
  CRL1  NG3N1     1  0.351904993665  0.102486650838
  CRL1  NG3P0     1  0.334087019303  0.187114168357
  CRL1  NG3P1     1  0.334087019303  0.187114168357
  CRL1  NG3P2     1  0.334087019303  0.187114168357
  CRL1  NG3P3     1  0.334087019303  0.187114168357
  CRL1    NH1     1  0.307360057758  0.187114168357
  CRL1    NH2     1  0.334087019303  0.187114168357
  CRL1    NH3     1  0.334087019303  0.187114168357
  CRL1   NH3L     1  0.334087019303  0.187114168357
  CRL1    NHL     1  0.307360057758  0.187114168357
  CRL1     NI     1  0.282949432881  0.994525446633
  CRL1   NI2P     1  0.238787583423  0.158440517242
  CRL1    NN1     1  0.334087019303  0.187114168357
  CRL1   NN1C     1  0.334087019303  0.187114168357
  CRL1    NN2     1  0.334087019303  0.187114168357
  CRL1   NN2B     1  0.334087019303  0.187114168357
  CRL1   NN2C     1  0.334087019303  0.187114168357
  CRL1   NN2G     1  0.334087019303  0.187114168357
  CRL1   NN2U     1  0.334087019303  0.187114168357
  CRL1    NN3     1  0.334087019303  0.187114168357
  CRL1   NN3A     1  0.334087019303  0.187114168357
  CRL1   NN3G     1  0.334087019303  0.187114168357
  CRL1   NN3I     1  0.334087019303  0.187114168357
  CRL1    NN4     1  0.334087019303  0.187114168357
  CRL1    NN6     1  0.334087019303  0.187114168357
  CRL1    NNG     1  0.334087019303  0.187114168357
  CRL1     NP     1  0.334087019303  0.187114168357
  CRL1    NPH     1  0.334087019303  0.187114168357
  CRL1    NR1     1  0.334087019303  0.187114168357
  CRL1    NR2     1  0.334087019303  0.187114168357
  CRL1    NR3     1  0.334087019303  0.187114168357
  CRL1   NRC4     1  0.334087019303  0.187114168357
  CRL1   NRN1     1  0.347450500075  0.280671252536
  CRL1   NRN2     1  0.346559601357  0.102486650838
  CRL1    NS1     1  0.334087019303  0.187114168357
  CRL1    NS2     1  0.334087019303  0.187114168357
  CRL1    NTL     1  0.334087019303  0.187114168357
  CRL1     NY     1  0.334087019303  0.187114168357
  CRL1      O     1  0.293996576986  0.144938011577
  CRL1    O2L     1  0.320723538531  0.144938011577
  CRL1    OAL     1  0.326959829558  0.163176000000
  CRL1     OB     1  0.293996576986  0.144938011577
  CRL1    OBL     1  0.293996576986  0.144938011577
  CRL1     OC     1  0.320723538531  0.144938011577
  CRL1  OC2D1     1  0.293996576986  0.144938011577
  CRL1  OC2D2     1  0.320723538531  0.144938011577
  CRL1  OC2D3     1  0.293996576986  0.144938011577
  CRL1  OC2D4     1  0.293996576986  0.144938011577
  CRL1  OC2DP     1  0.320723538531  0.144938011577
  CRL1  OC301     1  0.316269044940  0.132309697301
  CRL1  OC302     1  0.316269044940  0.132309697301
  CRL1  OC303     1  0.316269044940  0.132309697301
  CRL1 OC305A     1  0.316269044940  0.132309697301
  CRL1  OC30A     1  0.316269044940  0.132309697301
  CRL1  OC30P     1  0.326959829558  0.163176000000
  CRL1  OC311     1  0.326514380198  0.183381431383
  CRL1 OC311M     1  0.326514380198  0.183381431383
  CRL1  OC312     1  0.326959829558  0.163176000000
  CRL1 OC3C51     1  0.316269044940  0.132309697301
  CRL1 OC3C5M     1  0.316269044940  0.132309697301
  CRL1 OC3C61     1  0.316269044940  0.132309697301
  CRL1    OCA     1  0.293996576986  0.144938011577
  CRL1    OCL     1  0.320723538531  0.144938011577
  CRL1  OG2D1     1  0.293996576986  0.144938011577
  CRL1  OG2D2     1  0.320723538531  0.144938011577
  CRL1  OG2D3     1  0.293996576986  0.144938011577
  CRL1  OG2D4     1  0.320723538531  0.144938011577
  CRL1  OG2D5     1  0.320010819556  0.169954883425
  CRL1  OG2N1     1  0.320723538531  0.144938011577
  CRL1  OG2P1     1  0.320723538531  0.144938011577
  CRL1 OG2R50     1  0.320723538531  0.144938011577
  CRL1  OG2S1     1  0.318906105146  0.157831660601
  CRL1  OG301     1  0.316269044940  0.132309697301
  CRL1  OG302     1  0.316269044940  0.132309697301
  CRL1  OG303     1  0.316269044940  0.132309697301
  CRL1  OG304     1  0.316269044940  0.132309697301
  CRL1  OG311     1  0.326514380198  0.183381431383
  CRL1  OG312     1  0.325178032121  0.144938011577
  CRL1 OG3C31     1  0.316269044940  0.132309697301
  CRL1 OG3C51     1  0.316269044940  0.132309697301
  CRL1 OG3C61     1  0.316269044940  0.132309697301
  CRL1 OG3R60     1  0.316269044940  0.132309697301
  CRL1    OH1     1  0.326959829558  0.163176000000
  CRL1    OHL     1  0.326959829558  0.163176000000
  CRL1   OLG1     1  0.293996576986  0.144938011577
  CRL1   OLG2     1  0.320723538531  0.144938011577
  CRL1   OLG3     1  0.320723538531  0.144938011577
  CRL1   OLG4     1  0.316269044940  0.132309697301
  CRL1   OLG5     1  0.316269044940  0.132309697301
  CRL1   OLG6     1  0.326514380198  0.183381431383
  CRL1   OLG7     1  0.316269044940  0.132309697301
  CRL1   OLG8     1  0.316269044940  0.132309697301
  CRL1     OM     1  0.320723538531  0.144938011577
  CRL1    ON1     1  0.320723538531  0.144938011577
  CRL1   ON1C     1  0.320723538531  0.144938011577
  CRL1    ON2     1  0.326959829558  0.163176000000
  CRL1   ON2B     1  0.326959829558  0.163176000000
  CRL1   ON2M     1  0.316269044940  0.132309697301
  CRL1    ON3     1  0.320723538531  0.144938011577
  CRL1    ON4     1  0.326959829558  0.163176000000
  CRL1    ON5     1  0.326959829558  0.163176000000
  CRL1    ON6     1  0.326959829558  0.163176000000
  CRL1   ON6B     1  0.326959829558  0.163176000000
  CRL1   OPER     1  0.318427692534  0.188901923946
  CRL1     OS     1  0.326959829558  0.163176000000
  CRL1   OSIA     1  0.326959829558  0.163176000000
  CRL1   OSIE     1  0.326959829558  0.163176000000
  CRL1   OSIH     1  0.326959829558  0.163176000000
  CRL1    OSL     1  0.316269044940  0.132309697301
  CRL1   OSLP     1  0.316269044940  0.132309697301
  CRL1    OST     1  0.320010819556  0.169954883425
  CRL1     OT     1  0.326799467788  0.163176000000
  CRL1     OX     1  0.320723538531  0.144938011577
  CRL1      P     1  0.360813980847  0.320014464673
  CRL1     P2     1  0.360813980847  0.320014464673
  CRL1     P3     1  0.360813980847  0.320014464673
  CRL1     P4     1  0.360813980847  0.320014464673
  CRL1     PB     1  0.328073452955  0.716185437439
  CRL1   PB2P     1  0.325890751096  0.204716924713
  CRL1     PC     1  0.360813980847  0.320014464673
  CRL1     PD     1  0.294842930769  1.037598257516
  CRL1   PD2P     1  0.251865976605  0.174628752363
  CRL1    PG0     1  0.360813980847  0.320014464673
  CRL1    PG1     1  0.360813980847  0.320014464673
  CRL1    PG2     1  0.360813980847  0.320014464673
  CRL1     PL     1  0.360813980847  0.320014464673
  CRL1   PM3P     1  0.316910492017  0.176275053255
  CRL1    POT     1  0.326403017859  0.123410269913
  CRL1   PR3P     1  0.317079762773  0.178642591472
  CRL1     PT     1  0.296001099102  1.168527606863
  CRL1   PT2P     1  0.240284293270  0.168973521997
  CRL1   PU3P     1  0.318024115415  0.179522368790
  CRL1   RA2P     1  0.355459679551  0.229891668540
  CRL1   RH3P     1  0.210367914314  0.149983415617
  CRL1    RUB     1  0.338541512893  0.162045623205
  CRL1      S     1  0.347450500075  0.280671252536
  CRL1     SC     1  0.356359487256  0.286840588481
  CRL1   SC3P     1  0.266993436839  0.157109060719
  CRL1  SEGD1     1  0.363041227642  0.330244580395
  CRL1  SG2D1     1  0.351904993665  0.314496560236
  CRL1  SG2P1     1  0.355798221064  0.332305491450
  CRL1  SG2P2     1  0.352314807076  0.329421919951
  CRL1 SG2R50     1  0.347450500075  0.280671252536
  CRL1  SG301     1  0.345223253279  0.257919081884
  CRL1  SG302     1  0.365268474438  0.286840588481
  CRL1  SG311     1  0.347450500075  0.280671252536
  CRL1  SG3O1     1  0.356359487256  0.286840588481
  CRL1  SG3O2     1  0.347450500075  0.247528778125
  CRL1  SG3O3     1  0.347450500075  0.247528778125
  CRL1     SI     1  0.365268474438  0.324091246411
  CRL1   SIH3     1  0.365268474438  0.324091246411
  CRL1     SL     1  0.356359487256  0.286840588481
  CRL1     SM     1  0.345223253279  0.257919081884
  CRL1   SM2P     1  0.334666103469  0.207012887251
  CRL1   SM3P     1  0.308847858618  0.175378986746
  CRL1   SN2P     1  0.316981763914  0.181365662197
  CRL1    SOD     1  0.294954293108  0.090610410351
  CRL1     SP     1  0.365268474438  0.280671252536
  CRL1   SR2P     1  0.334612649546  0.200133451797
  CRL1     SS     1  0.365268474438  0.286840588481
  CRL1   TB3P     1  0.300678317372  0.172155203837
  CRL1   TI1P     1  0.341276571958  0.266826378666
  CRL1   TI3P     1  0.243117351193  0.149983415617
  CRL1   TL3P     1  0.246716582015  0.168869889039
  CRL1   TM3P     1  0.289417357575  0.168402751521
  CRL1    U3P     1  0.320830446377  0.182184255566
  CRL1    V2P     1  0.267599247968  0.167830039933
  CRL1    V3P     1  0.223989755715  0.147096016316
  CRL1    Y3P     1  0.295190381269  0.170263611896
  CRL1   YB2P     1  0.312616360195  0.189623385225
  CRL1   YB3P     1  0.284659958420  0.167569069413
  CRL1     ZN     1  0.266378716724  0.209200000000
  CRL2   CRL2     1  0.338541512893  0.041840000000
  CRL2   CRN1     1  0.347450500075  0.138767581228
  CRL2     CS     1  0.365268474438  0.138767581228
  CRL2    CST     1  0.308518226092  0.100764063435
  CRL2     CT     1  0.338541512893  0.041840000000
  CRL2    CT1     1  0.338541512893  0.041840000000
  CRL2   CT1X     1  0.338541512893  0.041840000000
  CRL2    CT2     1  0.338541512893  0.041840000000
  CRL2   CT2A     1  0.338541512893  0.041840000000
  CRL2   CT2P     1  0.338541512893  0.041840000000
  CRL2   CT2X     1  0.338541512893  0.041840000000
  CRL2    CT3     1  0.338541512893  0.041840000000
  CRL2   CT3X     1  0.338541512893  0.041840000000
  CRL2   CTD1     1  0.338541512893  0.041840000000
  CRL2   CTL1     1  0.358141284692  0.148532000000
  CRL2   CTL2     1  0.338541512893  0.041840000000
  CRL2   CTL3     1  0.338541512893  0.041840000000
  CRL2   CTL5     1  0.338541512893  0.041840000000
  CRL2   CTO1     1  0.338541512893  0.041840000000
  CRL2   CTO2     1  0.338541512893  0.041840000000
  CRL2     CU     1  0.285800308779  0.908997471504
  CRL2   CU1P     1  0.246066225950  0.180057894334
  CRL2   CU2P     1  0.233869822499  0.162315474555
  CRL2     CY     1  0.346559601357  0.113045454929
  CRL2    DUM     1  0.169270756447  0.000000000000
  CRL2   DY3P     1  0.297952167295  0.171135318061
  CRL2   ER3P     1  0.291083338178  0.169232326746
  CRL2   EU2P     1  0.333231756533  0.203602227414
  CRL2   EU3P     1  0.304954631219  0.174528477447
  CRL2     F1     1  0.314487247504  0.153729976257
  CRL2     F2     1  0.314487247504  0.135577095411
  CRL2     F3     1  0.311814551349  0.130309939452
  CRL2     FA     1  0.320723538531  0.144938011577
  CRL2     FE     1  0.227179173126  0.000000000000
  CRL2   FE2P     1  0.265496726993  0.167098295383
  CRL2   FE3P     1  0.219722350855  0.148045032716
  CRL2   FGA1     1  0.314487247504  0.153729976257
  CRL2   FGA2     1  0.314487247504  0.135577095411
  CRL2   FGA3     1  0.311814551349  0.130309939452
  CRL2   FGP1     1  0.311814551349  0.130309939452
  CRL2   FGR1     1  0.320723538531  0.144938011577
  CRL2    FNA     1  0.320723538531  0.144938011577
  CRL2   GA3P     1  0.189485248361  0.145299904804
  CRL2   GD3P     1  0.303351013527  0.173673803114
  CRL2      H     1  0.189271432669  0.089736802707
  CRL2     HA     1  0.286869387241  0.062058748940
  CRL2    HA1     1  0.288651184677  0.088756043175
  CRL2    HA2     1  0.288651184677  0.077149148019
  CRL2    HA3     1  0.288651184677  0.064818249282
  CRL2    HAL     1  0.286869387241  0.062058748940
  CRL2   HAL1     1  0.299341969295  0.158573600000
  CRL2   HAL2     1  0.299341969295  0.173636000000
  CRL2   HAL3     1  0.288651184677  0.064818249282
  CRL2     HB     1  0.286869387241  0.062058748940
  CRL2    HB1     1  0.286869387241  0.062058748940
  CRL2    HB2     1  0.288651184677  0.070011711020
  CRL2    HBL     1  0.286869387241  0.062058748940
  CRL2     HC     1  0.189271432669  0.089736802707
  CRL2   HCA1     1  0.288651184677  0.088756043175
  CRL2  HCA1A     1  0.288651184677  0.088756043175
  CRL2 HCA1C2     1  0.288651184677  0.088756043175
  CRL2   HCA2     1  0.288651184677  0.078275472531
  CRL2 HCA25A     1  0.285087589805  0.078275472531
  CRL2  HCA2A     1  0.288651184677  0.078275472531
  CRL2 HCA2C2     1  0.285087589805  0.078275472531
  CRL2   HCA3     1  0.288651184677  0.064818249282
  CRL2  HCA3A     1  0.288651184677  0.064818249282
  CRL2  HCA3M     1  0.288651184677  0.064818249282
  CRL2    HCL     1  0.189271432669  0.089736802707
  CRL2   HCP1     1  0.189271432669  0.089736802707
  CRL2  HCP1M     1  0.189271432669  0.089736802707
  CRL2   HCR1     1  0.240542653898  0.089736802707
  CRL2     HE     1  0.301123766731  0.061020452073
  CRL2    HE1     1  0.280633096214  0.073666921749
  CRL2    HE2     1  0.281523994932  0.067464972838
  CRL2   HEL1     1  0.280633096214  0.073666921749
  CRL2   HEL2     1  0.281523994932  0.067464972838
  CRL2    HF1     1  0.286869387241  0.070011711020
  CRL2    HF2     1  0.285087589805  0.072469005789
  CRL2   HG2P     1  0.274557166956  0.189623385225
  CRL2   HGA1     1  0.288651184677  0.088756043175
  CRL2   HGA2     1  0.288651184677  0.078275472531
  CRL2   HGA3     1  0.288651184677  0.064818249282
  CRL2   HGA4     1  0.280633096214  0.073666921749
  CRL2   HGA5     1  0.281523994932  0.067464972838
  CRL2   HGA6     1  0.286869387241  0.070011711020
  CRL2   HGA7     1  0.285087589805  0.072469005789
  CRL2 HGAAM0     1  0.283305792369  0.070011711020
  CRL2 HGAAM1     1  0.283305792369  0.070011711020
  CRL2 HGAAM2     1  0.281523994932  0.083680000000
  CRL2   HGP1     1  0.189271432669  0.089736802707
  CRL2   HGP2     1  0.189271432669  0.089736802707
  CRL2   HGP3     1  0.209361198763  0.132309697301
  CRL2   HGP4     1  0.189271432669  0.089736802707
  CRL2   HGP5     1  0.231633666716  0.089736802707
  CRL2 HGPAM1     1  0.247224394284  0.039692909190
  CRL2 HGPAM2     1  0.247224394284  0.041840000000
  CRL2 HGPAM3     1  0.246778944925  0.045833423612
  CRL2  HGR51     1  0.290272620344  0.072469005789
  CRL2  HGR52     1  0.249451641079  0.089736802707
  CRL2  HGR53     1  0.231633666716  0.089736802707
  CRL2  HGR61     1  0.290272620344  0.072469005789
  CRL2  HGR62     1  0.267269615442  0.089736802707
  CRL2  HGR63     1  0.249451641079  0.089736802707
  CRL2  HGR71     1  0.290272620344  0.072469005789
  CRL2     HL     1  0.231633666716  0.089736802707
  CRL2  HLGA1     1  0.288651184677  0.088756043175
  CRL2  HLGA2     1  0.288651184677  0.078275472531
  CRL2  HLGA3     1  0.288651184677  0.064818249282
  CRL2  HLGA4     1  0.280633096214  0.073666921749
  CRL2  HLGP1     1  0.189271432669  0.089736802707
  CRL2 HLGR52     1  0.249451641079  0.089736802707
  CRL2 HLGR61     1  0.290272620344  0.072469005789
  CRL2 HLGR62     1  0.267269615442  0.089736802707
  CRL2    HN1     1  0.189271432669  0.089736802707
  CRL2    HN2     1  0.189271432669  0.089736802707
  CRL2    HN3     1  0.267269615442  0.089736802707
  CRL2   HN3B     1  0.249451641079  0.089736802707
  CRL2    HN4     1  0.189271432669  0.089736802707
  CRL2    HN5     1  0.189271432669  0.089736802707
  CRL2    HN6     1  0.286869387241  0.062058748940
  CRL2    HN7     1  0.286869387241  0.062058748940
  CRL2    HN8     1  0.288651184677  0.070011711020
  CRL2    HN9     1  0.288651184677  0.064818249282
  CRL2   HNE1     1  0.280633096214  0.073666921749
  CRL2   HNE2     1  0.281523994932  0.067464972838
  CRL2    HNP     1  0.290272620344  0.072469005789
  CRL2   HO3P     1  0.293168041178  0.170263611896
  CRL2    HOL     1  0.189271432669  0.089736802707
  CRL2     HP     1  0.290272620344  0.072469005789
  CRL2   HPER     1  0.189271432669  0.089736802707
  CRL2    HR1     1  0.249451641079  0.089736802707
  CRL2    HR2     1  0.231633666716  0.089736802707
  CRL2    HR3     1  0.300054688270  0.036952087465
  CRL2   HRA3     1  0.288651184677  0.064818249282
  CRL2   HRM1     1  0.247224394284  0.039692909190
  CRL2   HRM2     1  0.247224394284  0.041840000000
  CRL2   HRP2     1  0.189271432669  0.089736802707
  CRL2     HS     1  0.209361198763  0.132309697301
  CRL2   HSIA     1  0.286869387241  0.062058748940
  CRL2   HSIO     1  0.189271432669  0.089736802707
  CRL2     HT     1  0.189271432669  0.089736802707
  CRL2     HX     1  0.189271432669  0.089736802707
  CRL2   IGR1     1  0.368832069310  0.301712530731
  CRL2   IN3P     1  0.246449312399  0.160580590010
  CRL2   LA3P     1  0.327200372211  0.182184255566
  CRL2    LIT     1  0.284864865125  0.020196198771
  CRL2    LPH     1  0.169270756447  0.000000000000
  CRL2   LU3P     1  0.289648991242  0.166731218816
  CRL2     MG     1  0.274842254546  0.051243325419
  CRL2   MN2P     1  0.276508235149  0.171747976291
  CRL2   MN3P     1  0.203516903172  0.148045032716
  CRL2      N     1  0.334087019303  0.004184000000
  CRL2     NC     1  0.334087019303  0.324091246411
  CRL2    NC2     1  0.334087019303  0.187114168357
  CRL2  NC2D1     1  0.307360057758  0.187114168357
  CRL2  NC311     1  0.347450500075  0.088756043175
  CRL2   ND3P     1  0.313587439798  0.177117175768
  CRL2     NE     1  0.305578260322  0.122698965603
  CRL2  NG1T1     1  0.328741626994  0.177512086349
  CRL2  NG2D1     1  0.334087019303  0.187114168357
  CRL2  NG2O1     1  0.334087019303  0.187114168357
  CRL2  NG2P1     1  0.334087019303  0.187114168357
  CRL2 NG2R43     1  0.334087019303  0.187114168357
  CRL2 NG2R50     1  0.334087019303  0.187114168357
  CRL2 NG2R51     1  0.334087019303  0.187114168357
  CRL2 NG2R52     1  0.334087019303  0.187114168357
  CRL2 NG2R53     1  0.334087019303  0.187114168357
  CRL2 NG2R57     1  0.334087019303  0.187114168357
  CRL2 NG2R60     1  0.337650614175  0.102486650838
  CRL2 NG2R61     1  0.334087019303  0.187114168357
  CRL2 NG2R62     1  0.352795892384  0.093557084179
  CRL2 NG2R67     1  0.334087019303  0.187114168357
  CRL2 NG2RC0     1  0.334087019303  0.187114168357
  CRL2  NG2S0     1  0.334087019303  0.004184000000
  CRL2  NG2S1     1  0.307360057758  0.187114168357
  CRL2  NG2S2     1  0.334087019303  0.187114168357
  CRL2  NG2S3     1  0.334087019303  0.187114168357
  CRL2  NG301     1  0.347450500075  0.078275472531
  CRL2  NG311     1  0.347450500075  0.088756043175
  CRL2  NG321     1  0.346559601357  0.102486650838
  CRL2  NG331     1  0.345668702638  0.110698234855
  CRL2 NG3C51     1  0.334087019303  0.187114168357
  CRL2  NG3N1     1  0.351904993665  0.102486650838
  CRL2  NG3P0     1  0.334087019303  0.187114168357
  CRL2  NG3P1     1  0.334087019303  0.187114168357
  CRL2  NG3P2     1  0.334087019303  0.187114168357
  CRL2  NG3P3     1  0.334087019303  0.187114168357
  CRL2    NH1     1  0.307360057758  0.187114168357
  CRL2    NH2     1  0.334087019303  0.187114168357
  CRL2    NH3     1  0.334087019303  0.187114168357
  CRL2   NH3L     1  0.334087019303  0.187114168357
  CRL2    NHL     1  0.307360057758  0.187114168357
  CRL2     NI     1  0.282949432881  0.994525446633
  CRL2   NI2P     1  0.238787583423  0.158440517242
  CRL2    NN1     1  0.334087019303  0.187114168357
  CRL2   NN1C     1  0.334087019303  0.187114168357
  CRL2    NN2     1  0.334087019303  0.187114168357
  CRL2   NN2B     1  0.334087019303  0.187114168357
  CRL2   NN2C     1  0.334087019303  0.187114168357
  CRL2   NN2G     1  0.334087019303  0.187114168357
  CRL2   NN2U     1  0.334087019303  0.187114168357
  CRL2    NN3     1  0.334087019303  0.187114168357
  CRL2   NN3A     1  0.334087019303  0.187114168357
  CRL2   NN3G     1  0.334087019303  0.187114168357
  CRL2   NN3I     1  0.334087019303  0.187114168357
  CRL2    NN4     1  0.334087019303  0.187114168357
  CRL2    NN6     1  0.334087019303  0.187114168357
  CRL2    NNG     1  0.334087019303  0.187114168357
  CRL2     NP     1  0.334087019303  0.187114168357
  CRL2    NPH     1  0.334087019303  0.187114168357
  CRL2    NR1     1  0.334087019303  0.187114168357
  CRL2    NR2     1  0.334087019303  0.187114168357
  CRL2    NR3     1  0.334087019303  0.187114168357
  CRL2   NRC4     1  0.334087019303  0.187114168357
  CRL2   NRN1     1  0.347450500075  0.280671252536
  CRL2   NRN2     1  0.346559601357  0.102486650838
  CRL2    NS1     1  0.334087019303  0.187114168357
  CRL2    NS2     1  0.334087019303  0.187114168357
  CRL2    NTL     1  0.334087019303  0.187114168357
  CRL2     NY     1  0.334087019303  0.187114168357
  CRL2      O     1  0.293996576986  0.144938011577
  CRL2    O2L     1  0.320723538531  0.144938011577
  CRL2    OAL     1  0.326959829558  0.163176000000
  CRL2     OB     1  0.293996576986  0.144938011577
  CRL2    OBL     1  0.293996576986  0.144938011577
  CRL2     OC     1  0.320723538531  0.144938011577
  CRL2  OC2D1     1  0.293996576986  0.144938011577
  CRL2  OC2D2     1  0.320723538531  0.144938011577
  CRL2  OC2D3     1  0.293996576986  0.144938011577
  CRL2  OC2D4     1  0.293996576986  0.144938011577
  CRL2  OC2DP     1  0.320723538531  0.144938011577
  CRL2  OC301     1  0.316269044940  0.132309697301
  CRL2  OC302     1  0.316269044940  0.132309697301
  CRL2  OC303     1  0.316269044940  0.132309697301
  CRL2 OC305A     1  0.316269044940  0.132309697301
  CRL2  OC30A     1  0.316269044940  0.132309697301
  CRL2  OC30P     1  0.326959829558  0.163176000000
  CRL2  OC311     1  0.326514380198  0.183381431383
  CRL2 OC311M     1  0.326514380198  0.183381431383
  CRL2  OC312     1  0.326959829558  0.163176000000
  CRL2 OC3C51     1  0.316269044940  0.132309697301
  CRL2 OC3C5M     1  0.316269044940  0.132309697301
  CRL2 OC3C61     1  0.316269044940  0.132309697301
  CRL2    OCA     1  0.293996576986  0.144938011577
  CRL2    OCL     1  0.320723538531  0.144938011577
  CRL2  OG2D1     1  0.293996576986  0.144938011577
  CRL2  OG2D2     1  0.320723538531  0.144938011577
  CRL2  OG2D3     1  0.293996576986  0.144938011577
  CRL2  OG2D4     1  0.320723538531  0.144938011577
  CRL2  OG2D5     1  0.320010819556  0.169954883425
  CRL2  OG2N1     1  0.320723538531  0.144938011577
  CRL2  OG2P1     1  0.320723538531  0.144938011577
  CRL2 OG2R50     1  0.320723538531  0.144938011577
  CRL2  OG2S1     1  0.318906105146  0.157831660601
  CRL2  OG301     1  0.316269044940  0.132309697301
  CRL2  OG302     1  0.316269044940  0.132309697301
  CRL2  OG303     1  0.316269044940  0.132309697301
  CRL2  OG304     1  0.316269044940  0.132309697301
  CRL2  OG311     1  0.326514380198  0.183381431383
  CRL2  OG312     1  0.325178032121  0.144938011577
  CRL2 OG3C31     1  0.316269044940  0.132309697301
  CRL2 OG3C51     1  0.316269044940  0.132309697301
  CRL2 OG3C61     1  0.316269044940  0.132309697301
  CRL2 OG3R60     1  0.316269044940  0.132309697301
  CRL2    OH1     1  0.326959829558  0.163176000000
  CRL2    OHL     1  0.326959829558  0.163176000000
  CRL2   OLG1     1  0.293996576986  0.144938011577
  CRL2   OLG2     1  0.320723538531  0.144938011577
  CRL2   OLG3     1  0.320723538531  0.144938011577
  CRL2   OLG4     1  0.316269044940  0.132309697301
  CRL2   OLG5     1  0.316269044940  0.132309697301
  CRL2   OLG6     1  0.326514380198  0.183381431383
  CRL2   OLG7     1  0.316269044940  0.132309697301
  CRL2   OLG8     1  0.316269044940  0.132309697301
  CRL2     OM     1  0.320723538531  0.144938011577
  CRL2    ON1     1  0.320723538531  0.144938011577
  CRL2   ON1C     1  0.320723538531  0.144938011577
  CRL2    ON2     1  0.326959829558  0.163176000000
  CRL2   ON2B     1  0.326959829558  0.163176000000
  CRL2   ON2M     1  0.316269044940  0.132309697301
  CRL2    ON3     1  0.320723538531  0.144938011577
  CRL2    ON4     1  0.326959829558  0.163176000000
  CRL2    ON5     1  0.326959829558  0.163176000000
  CRL2    ON6     1  0.326959829558  0.163176000000
  CRL2   ON6B     1  0.326959829558  0.163176000000
  CRL2   OPER     1  0.318427692534  0.188901923946
  CRL2     OS     1  0.326959829558  0.163176000000
  CRL2   OSIA     1  0.326959829558  0.163176000000
  CRL2   OSIE     1  0.326959829558  0.163176000000
  CRL2   OSIH     1  0.326959829558  0.163176000000
  CRL2    OSL     1  0.316269044940  0.132309697301
  CRL2   OSLP     1  0.316269044940  0.132309697301
  CRL2    OST     1  0.320010819556  0.169954883425
  CRL2     OT     1  0.326799467788  0.163176000000
  CRL2     OX     1  0.320723538531  0.144938011577
  CRL2      P     1  0.360813980847  0.320014464673
  CRL2     P2     1  0.360813980847  0.320014464673
  CRL2     P3     1  0.360813980847  0.320014464673
  CRL2     P4     1  0.360813980847  0.320014464673
  CRL2     PB     1  0.328073452955  0.716185437439
  CRL2   PB2P     1  0.325890751096  0.204716924713
  CRL2     PC     1  0.360813980847  0.320014464673
  CRL2     PD     1  0.294842930769  1.037598257516
  CRL2   PD2P     1  0.251865976605  0.174628752363
  CRL2    PG0     1  0.360813980847  0.320014464673
  CRL2    PG1     1  0.360813980847  0.320014464673
  CRL2    PG2     1  0.360813980847  0.320014464673
  CRL2     PL     1  0.360813980847  0.320014464673
  CRL2   PM3P     1  0.316910492017  0.176275053255
  CRL2    POT     1  0.326403017859  0.123410269913
  CRL2   PR3P     1  0.317079762773  0.178642591472
  CRL2     PT     1  0.296001099102  1.168527606863
  CRL2   PT2P     1  0.240284293270  0.168973521997
  CRL2   PU3P     1  0.318024115415  0.179522368790
  CRL2   RA2P     1  0.355459679551  0.229891668540
  CRL2   RH3P     1  0.210367914314  0.149983415617
  CRL2    RUB     1  0.338541512893  0.162045623205
  CRL2      S     1  0.347450500075  0.280671252536
  CRL2     SC     1  0.356359487256  0.286840588481
  CRL2   SC3P     1  0.266993436839  0.157109060719
  CRL2  SEGD1     1  0.363041227642  0.330244580395
  CRL2  SG2D1     1  0.351904993665  0.314496560236
  CRL2  SG2P1     1  0.355798221064  0.332305491450
  CRL2  SG2P2     1  0.352314807076  0.329421919951
  CRL2 SG2R50     1  0.347450500075  0.280671252536
  CRL2  SG301     1  0.345223253279  0.257919081884
  CRL2  SG302     1  0.365268474438  0.286840588481
  CRL2  SG311     1  0.347450500075  0.280671252536
  CRL2  SG3O1     1  0.356359487256  0.286840588481
  CRL2  SG3O2     1  0.347450500075  0.247528778125
  CRL2  SG3O3     1  0.347450500075  0.247528778125
  CRL2     SI     1  0.365268474438  0.324091246411
  CRL2   SIH3     1  0.365268474438  0.324091246411
  CRL2     SL     1  0.356359487256  0.286840588481
  CRL2     SM     1  0.345223253279  0.257919081884
  CRL2   SM2P     1  0.334666103469  0.207012887251
  CRL2   SM3P     1  0.308847858618  0.175378986746
  CRL2   SN2P     1  0.316981763914  0.181365662197
  CRL2    SOD     1  0.294954293108  0.090610410351
  CRL2     SP     1  0.365268474438  0.280671252536
  CRL2   SR2P     1  0.334612649546  0.200133451797
  CRL2     SS     1  0.365268474438  0.286840588481
  CRL2   TB3P     1  0.300678317372  0.172155203837
  CRL2   TI1P     1  0.341276571958  0.266826378666
  CRL2   TI3P     1  0.243117351193  0.149983415617
  CRL2   TL3P     1  0.246716582015  0.168869889039
  CRL2   TM3P     1  0.289417357575  0.168402751521
  CRL2    U3P     1  0.320830446377  0.182184255566
  CRL2    V2P     1  0.267599247968  0.167830039933
  CRL2    V3P     1  0.223989755715  0.147096016316
  CRL2    Y3P     1  0.295190381269  0.170263611896
  CRL2   YB2P     1  0.312616360195  0.189623385225
  CRL2   YB3P     1  0.284659958420  0.167569069413
  CRL2     ZN     1  0.266378716724  0.209200000000
  CRN1     CT     1  0.347450500075  0.138767581228
  CRN1    CT1     1  0.347450500075  0.138767581228
  CRN1   CT1X     1  0.347450500075  0.138767581228
  CRN1    CT2     1  0.347450500075  0.138767581228
  CRN1   CT2A     1  0.347450500075  0.138767581228
  CRN1   CT2P     1  0.347450500075  0.138767581228
  CRN1   CT2X     1  0.347450500075  0.138767581228
  CRN1    CT3     1  0.347450500075  0.138767581228
  CRN1   CT3X     1  0.347450500075  0.138767581228
  CRN1   CTD1     1  0.347450500075  0.138767581228
  CRN1   CTL1     1  0.347450500075  0.138767581228
  CRN1   CTL2     1  0.347450500075  0.138767581228
  CRN1   CTL3     1  0.347450500075  0.138767581228
  CRN1   CTL5     1  0.347450500075  0.138767581228
  CRN1   CTO1     1  0.347450500075  0.138767581228
  CRN1   CTO2     1  0.347450500075  0.138767581228
  CRN1     HP     1  0.299181607526  0.240352501131
  CRN1      N     1  0.342996006484  0.013876758123
  CRN1  NC2D1     1  0.316269044940  0.620587489400
  CRN1  NG2S0     1  0.342996006484  0.013876758123
  CRN1  NG2S1     1  0.316269044940  0.620587489400
  CRN1    NH1     1  0.316269044940  0.620587489400
  CRN1    NHL     1  0.316269044940  0.620587489400
  CRN1      O     1  0.302905564168  0.480705002262
  CRN1     OB     1  0.302905564168  0.480705002262
  CRN1    OBL     1  0.302905564168  0.480705002262
  CRN1  OC2D1     1  0.302905564168  0.480705002262
  CRN1  OC2D3     1  0.302905564168  0.480705002262
  CRN1  OC2D4     1  0.302905564168  0.480705002262
  CRN1    OCA     1  0.302905564168  0.480705002262
  CRN1  OG2D1     1  0.302905564168  0.480705002262
  CRN1  OG2D3     1  0.302905564168  0.480705002262
  CRN1   OLG1     1  0.302905564168  0.480705002262
    CS     CT     1  0.365268474438  0.138767581228
    CS    CT1     1  0.365268474438  0.138767581228
    CS   CT1X     1  0.365268474438  0.138767581228
    CS    CT2     1  0.365268474438  0.138767581228
    CS   CT2A     1  0.365268474438  0.138767581228
    CS   CT2P     1  0.365268474438  0.138767581228
    CS   CT2X     1  0.365268474438  0.138767581228
    CS    CT3     1  0.365268474438  0.138767581228
    CS   CT3X     1  0.365268474438  0.138767581228
    CS   CTD1     1  0.365268474438  0.138767581228
    CS   CTL1     1  0.365268474438  0.138767581228
    CS   CTL2     1  0.365268474438  0.138767581228
    CS   CTL3     1  0.365268474438  0.138767581228
    CS   CTL5     1  0.365268474438  0.138767581228
    CS   CTO1     1  0.365268474438  0.138767581228
    CS   CTO2     1  0.365268474438  0.138767581228
    CS     HP     1  0.316999581889  0.240352501131
    CS      N     1  0.360813980847  0.013876758123
    CS  NC2D1     1  0.334087019303  0.620587489400
    CS  NG2S0     1  0.360813980847  0.013876758123
    CS  NG2S1     1  0.334087019303  0.620587489400
    CS    NH1     1  0.334087019303  0.620587489400
    CS    NHL     1  0.334087019303  0.620587489400
    CS      O     1  0.320723538531  0.480705002262
    CS     OB     1  0.320723538531  0.480705002262
    CS    OBL     1  0.320723538531  0.480705002262
    CS  OC2D1     1  0.320723538531  0.480705002262
    CS  OC2D3     1  0.320723538531  0.480705002262
    CS  OC2D4     1  0.320723538531  0.480705002262
    CS    OCA     1  0.320723538531  0.480705002262
    CS  OG2D1     1  0.320723538531  0.480705002262
    CS  OG2D3     1  0.320723538531  0.480705002262
    CS   OLG1     1  0.320723538531  0.480705002262
   CST     CT     1  0.308518226092  0.100764063435
   CST    CT1     1  0.308518226092  0.100764063435
   CST   CT1X     1  0.308518226092  0.100764063435
   CST    CT2     1  0.308518226092  0.100764063435
   CST   CT2A     1  0.308518226092  0.100764063435
   CST   CT2P     1  0.308518226092  0.100764063435
   CST   CT2X     1  0.308518226092  0.100764063435
   CST    CT3     1  0.308518226092  0.100764063435
   CST   CT3X     1  0.308518226092  0.100764063435
   CST   CTD1     1  0.308518226092  0.100764063435
   CST   CTL1     1  0.308518226092  0.100764063435
   CST   CTL2     1  0.308518226092  0.100764063435
   CST   CTL3     1  0.308518226092  0.100764063435
   CST   CTL5     1  0.308518226092  0.100764063435
   CST   CTO1     1  0.308518226092  0.100764063435
   CST   CTO2     1  0.308518226092  0.100764063435
   CST     HP     1  0.260249333543  0.174528477447
   CST      N     1  0.304063732501  0.010076406344
   CST  NC2D1     1  0.277336770957  0.450630591061
   CST  NG2S0     1  0.304063732501  0.010076406344
   CST  NG2S1     1  0.277336770957  0.450630591061
   CST    NH1     1  0.277336770957  0.450630591061
   CST    NHL     1  0.277336770957  0.450630591061
   CST      O     1  0.263973290185  0.349056954894
   CST     OB     1  0.263973290185  0.349056954894
   CST    OBL     1  0.263973290185  0.349056954894
   CST  OC2D1     1  0.263973290185  0.349056954894
   CST  OC2D3     1  0.263973290185  0.349056954894
   CST  OC2D4     1  0.263973290185  0.349056954894
   CST    OCA     1  0.263973290185  0.349056954894
   CST  OG2D1     1  0.263973290185  0.349056954894
   CST  OG2D3     1  0.263973290185  0.349056954894
   CST   OLG1     1  0.263973290185  0.349056954894
    CT     CT     1  0.338541512893  0.041840000000
    CT    CT1     1  0.338541512893  0.041840000000
    CT   CT1X     1  0.338541512893  0.041840000000
    CT    CT2     1  0.338541512893  0.041840000000
    CT   CT2A     1  0.338541512893  0.041840000000
    CT   CT2P     1  0.338541512893  0.041840000000
    CT   CT2X     1  0.338541512893  0.041840000000
    CT    CT3     1  0.338541512893  0.041840000000
    CT   CT3X     1  0.338541512893  0.041840000000
    CT   CTD1     1  0.338541512893  0.041840000000
    CT   CTL1     1  0.338541512893  0.041840000000
    CT   CTL2     1  0.338541512893  0.041840000000
    CT   CTL3     1  0.338541512893  0.041840000000
    CT   CTL5     1  0.338541512893  0.041840000000
    CT   CTO1     1  0.338541512893  0.041840000000
    CT   CTO2     1  0.338541512893  0.041840000000
    CT     CU     1  0.285800308779  0.908997471504
    CT   CU1P     1  0.246066225950  0.180057894334
    CT   CU2P     1  0.233869822499  0.162315474555
    CT     CY     1  0.346559601357  0.113045454929
    CT    DUM     1  0.169270756447  0.000000000000
    CT   DY3P     1  0.297952167295  0.171135318061
    CT   ER3P     1  0.291083338178  0.169232326746
    CT   EU2P     1  0.333231756533  0.203602227414
    CT   EU3P     1  0.304954631219  0.174528477447
    CT     F1     1  0.314487247504  0.153729976257
    CT     F2     1  0.314487247504  0.135577095411
    CT     F3     1  0.311814551349  0.130309939452
    CT     FA     1  0.320723538531  0.144938011577
    CT     FE     1  0.227179173126  0.000000000000
    CT   FE2P     1  0.265496726993  0.167098295383
    CT   FE3P     1  0.219722350855  0.148045032716
    CT   FGA1     1  0.314487247504  0.153729976257
    CT   FGA2     1  0.314487247504  0.135577095411
    CT   FGA3     1  0.311814551349  0.130309939452
    CT   FGP1     1  0.311814551349  0.130309939452
    CT   FGR1     1  0.320723538531  0.144938011577
    CT    FNA     1  0.320723538531  0.144938011577
    CT   GA3P     1  0.189485248361  0.145299904804
    CT   GD3P     1  0.303351013527  0.173673803114
    CT      H     1  0.189271432669  0.089736802707
    CT     HA     1  0.286869387241  0.062058748940
    CT    HA1     1  0.288651184677  0.088756043175
    CT    HA2     1  0.288651184677  0.077149148019
    CT    HA3     1  0.288651184677  0.064818249282
    CT    HAL     1  0.286869387241  0.062058748940
    CT   HAL1     1  0.286869387241  0.062058748940
    CT   HAL2     1  0.288651184677  0.070011711020
    CT   HAL3     1  0.288651184677  0.064818249282
    CT     HB     1  0.286869387241  0.062058748940
    CT    HB1     1  0.286869387241  0.062058748940
    CT    HB2     1  0.288651184677  0.070011711020
    CT    HBL     1  0.286869387241  0.062058748940
    CT     HC     1  0.189271432669  0.089736802707
    CT   HCA1     1  0.288651184677  0.088756043175
    CT  HCA1A     1  0.288651184677  0.088756043175
    CT HCA1C2     1  0.288651184677  0.088756043175
    CT   HCA2     1  0.288651184677  0.078275472531
    CT HCA25A     1  0.285087589805  0.078275472531
    CT  HCA2A     1  0.288651184677  0.078275472531
    CT HCA2C2     1  0.285087589805  0.078275472531
    CT   HCA3     1  0.288651184677  0.064818249282
    CT  HCA3A     1  0.288651184677  0.064818249282
    CT  HCA3M     1  0.288651184677  0.064818249282
    CT    HCL     1  0.189271432669  0.089736802707
    CT   HCP1     1  0.189271432669  0.089736802707
    CT  HCP1M     1  0.189271432669  0.089736802707
    CT   HCR1     1  0.240542653898  0.089736802707
    CT     HE     1  0.301123766731  0.061020452073
    CT    HE1     1  0.280633096214  0.073666921749
    CT    HE2     1  0.281523994932  0.067464972838
    CT   HEL1     1  0.280633096214  0.073666921749
    CT   HEL2     1  0.281523994932  0.067464972838
    CT    HF1     1  0.286869387241  0.070011711020
    CT    HF2     1  0.285087589805  0.072469005789
    CT   HG2P     1  0.274557166956  0.189623385225
    CT   HGA1     1  0.288651184677  0.088756043175
    CT   HGA2     1  0.288651184677  0.078275472531
    CT   HGA3     1  0.288651184677  0.064818249282
    CT   HGA4     1  0.280633096214  0.073666921749
    CT   HGA5     1  0.281523994932  0.067464972838
    CT   HGA6     1  0.286869387241  0.070011711020
    CT   HGA7     1  0.285087589805  0.072469005789
    CT HGAAM0     1  0.283305792369  0.070011711020
    CT HGAAM1     1  0.283305792369  0.070011711020
    CT HGAAM2     1  0.281523994932  0.083680000000
    CT   HGP1     1  0.189271432669  0.089736802707
    CT   HGP2     1  0.189271432669  0.089736802707
    CT   HGP3     1  0.209361198763  0.132309697301
    CT   HGP4     1  0.189271432669  0.089736802707
    CT   HGP5     1  0.231633666716  0.089736802707
    CT HGPAM1     1  0.247224394284  0.039692909190
    CT HGPAM2     1  0.247224394284  0.041840000000
    CT HGPAM3     1  0.246778944925  0.045833423612
    CT  HGR51     1  0.290272620344  0.072469005789
    CT  HGR52     1  0.249451641079  0.089736802707
    CT  HGR53     1  0.231633666716  0.089736802707
    CT  HGR61     1  0.290272620344  0.072469005789
    CT  HGR62     1  0.267269615442  0.089736802707
    CT  HGR63     1  0.249451641079  0.089736802707
    CT  HGR71     1  0.290272620344  0.072469005789
    CT     HL     1  0.231633666716  0.089736802707
    CT  HLGA1     1  0.288651184677  0.088756043175
    CT  HLGA2     1  0.288651184677  0.078275472531
    CT  HLGA3     1  0.288651184677  0.064818249282
    CT  HLGA4     1  0.280633096214  0.073666921749
    CT  HLGP1     1  0.189271432669  0.089736802707
    CT HLGR52     1  0.249451641079  0.089736802707
    CT HLGR61     1  0.290272620344  0.072469005789
    CT HLGR62     1  0.267269615442  0.089736802707
    CT    HN1     1  0.189271432669  0.089736802707
    CT    HN2     1  0.189271432669  0.089736802707
    CT    HN3     1  0.267269615442  0.089736802707
    CT   HN3B     1  0.249451641079  0.089736802707
    CT    HN4     1  0.189271432669  0.089736802707
    CT    HN5     1  0.189271432669  0.089736802707
    CT    HN6     1  0.286869387241  0.062058748940
    CT    HN7     1  0.286869387241  0.062058748940
    CT    HN8     1  0.288651184677  0.070011711020
    CT    HN9     1  0.288651184677  0.064818249282
    CT   HNE1     1  0.280633096214  0.073666921749
    CT   HNE2     1  0.281523994932  0.067464972838
    CT    HNP     1  0.290272620344  0.072469005789
    CT   HO3P     1  0.293168041178  0.170263611896
    CT    HOL     1  0.189271432669  0.089736802707
    CT     HP     1  0.290272620344  0.072469005789
    CT   HPER     1  0.189271432669  0.089736802707
    CT    HR1     1  0.249451641079  0.089736802707
    CT    HR2     1  0.231633666716  0.089736802707
    CT    HR3     1  0.300054688270  0.036952087465
    CT   HRA3     1  0.288651184677  0.064818249282
    CT   HRM1     1  0.247224394284  0.039692909190
    CT   HRM2     1  0.247224394284  0.041840000000
    CT   HRP2     1  0.189271432669  0.089736802707
    CT     HS     1  0.209361198763  0.132309697301
    CT   HSIA     1  0.286869387241  0.062058748940
    CT   HSIO     1  0.189271432669  0.089736802707
    CT     HT     1  0.189271432669  0.089736802707
    CT     HX     1  0.189271432669  0.089736802707
    CT   IGR1     1  0.368832069310  0.301712530731
    CT   IN3P     1  0.246449312399  0.160580590010
    CT   LA3P     1  0.327200372211  0.182184255566
    CT    LIT     1  0.284864865125  0.020196198771
    CT    LPH     1  0.169270756447  0.000000000000
    CT   LU3P     1  0.289648991242  0.166731218816
    CT     MG     1  0.274842254546  0.051243325419
    CT   MN2P     1  0.276508235149  0.171747976291
    CT   MN3P     1  0.203516903172  0.148045032716
    CT      N     1  0.334087019303  0.004184000000
    CT     NC     1  0.334087019303  0.324091246411
    CT    NC2     1  0.334087019303  0.187114168357
    CT  NC2D1     1  0.307360057758  0.187114168357
    CT  NC311     1  0.347450500075  0.088756043175
    CT   ND3P     1  0.313587439798  0.177117175768
    CT     NE     1  0.305578260322  0.122698965603
    CT  NG1T1     1  0.328741626994  0.177512086349
    CT  NG2D1     1  0.334087019303  0.187114168357
    CT  NG2O1     1  0.334087019303  0.187114168357
    CT  NG2P1     1  0.334087019303  0.187114168357
    CT NG2R43     1  0.334087019303  0.187114168357
    CT NG2R50     1  0.334087019303  0.187114168357
    CT NG2R51     1  0.334087019303  0.187114168357
    CT NG2R52     1  0.334087019303  0.187114168357
    CT NG2R53     1  0.334087019303  0.187114168357
    CT NG2R57     1  0.334087019303  0.187114168357
    CT NG2R60     1  0.337650614175  0.102486650838
    CT NG2R61     1  0.334087019303  0.187114168357
    CT NG2R62     1  0.352795892384  0.093557084179
    CT NG2R67     1  0.334087019303  0.187114168357
    CT NG2RC0     1  0.334087019303  0.187114168357
    CT  NG2S0     1  0.334087019303  0.004184000000
    CT  NG2S1     1  0.307360057758  0.187114168357
    CT  NG2S2     1  0.334087019303  0.187114168357
    CT  NG2S3     1  0.334087019303  0.187114168357
    CT  NG301     1  0.347450500075  0.078275472531
    CT  NG311     1  0.347450500075  0.088756043175
    CT  NG321     1  0.346559601357  0.102486650838
    CT  NG331     1  0.345668702638  0.110698234855
    CT NG3C51     1  0.334087019303  0.187114168357
    CT  NG3N1     1  0.351904993665  0.102486650838
    CT  NG3P0     1  0.334087019303  0.187114168357
    CT  NG3P1     1  0.334087019303  0.187114168357
    CT  NG3P2     1  0.334087019303  0.187114168357
    CT  NG3P3     1  0.334087019303  0.187114168357
    CT    NH1     1  0.307360057758  0.187114168357
    CT    NH2     1  0.334087019303  0.187114168357
    CT    NH3     1  0.334087019303  0.187114168357
    CT   NH3L     1  0.334087019303  0.187114168357
    CT    NHL     1  0.307360057758  0.187114168357
    CT     NI     1  0.282949432881  0.994525446633
    CT   NI2P     1  0.238787583423  0.158440517242
    CT    NN1     1  0.334087019303  0.187114168357
    CT   NN1C     1  0.334087019303  0.187114168357
    CT    NN2     1  0.334087019303  0.187114168357
    CT   NN2B     1  0.334087019303  0.187114168357
    CT   NN2C     1  0.334087019303  0.187114168357
    CT   NN2G     1  0.334087019303  0.187114168357
    CT   NN2U     1  0.334087019303  0.187114168357
    CT    NN3     1  0.334087019303  0.187114168357
    CT   NN3A     1  0.334087019303  0.187114168357
    CT   NN3G     1  0.334087019303  0.187114168357
    CT   NN3I     1  0.334087019303  0.187114168357
    CT    NN4     1  0.334087019303  0.187114168357
    CT    NN6     1  0.334087019303  0.187114168357
    CT    NNG     1  0.334087019303  0.187114168357
    CT     NP     1  0.334087019303  0.187114168357
    CT    NPH     1  0.334087019303  0.187114168357
    CT    NR1     1  0.334087019303  0.187114168357
    CT    NR2     1  0.334087019303  0.187114168357
    CT    NR3     1  0.334087019303  0.187114168357
    CT   NRC4     1  0.334087019303  0.187114168357
    CT   NRN1     1  0.347450500075  0.280671252536
    CT   NRN2     1  0.346559601357  0.102486650838
    CT    NS1     1  0.334087019303  0.187114168357
    CT    NS2     1  0.334087019303  0.187114168357
    CT    NTL     1  0.334087019303  0.187114168357
    CT     NY     1  0.334087019303  0.187114168357
    CT      O     1  0.293996576986  0.144938011577
    CT    O2L     1  0.320723538531  0.144938011577
    CT    OAL     1  0.326959829558  0.163176000000
    CT     OB     1  0.293996576986  0.144938011577
    CT    OBL     1  0.293996576986  0.144938011577
    CT     OC     1  0.320723538531  0.144938011577
    CT  OC2D1     1  0.293996576986  0.144938011577
    CT  OC2D2     1  0.320723538531  0.144938011577
    CT  OC2D3     1  0.293996576986  0.144938011577
    CT  OC2D4     1  0.293996576986  0.144938011577
    CT  OC2DP     1  0.320723538531  0.144938011577
    CT  OC301     1  0.316269044940  0.132309697301
    CT  OC302     1  0.316269044940  0.132309697301
    CT  OC303     1  0.316269044940  0.132309697301
    CT OC305A     1  0.316269044940  0.132309697301
    CT  OC30A     1  0.316269044940  0.132309697301
    CT  OC30P     1  0.326959829558  0.163176000000
    CT  OC311     1  0.326514380198  0.183381431383
    CT OC311M     1  0.326514380198  0.183381431383
    CT  OC312     1  0.326959829558  0.163176000000
    CT OC3C51     1  0.316269044940  0.132309697301
    CT OC3C5M     1  0.316269044940  0.132309697301
    CT OC3C61     1  0.316269044940  0.132309697301
    CT    OCA     1  0.293996576986  0.144938011577
    CT    OCL     1  0.320723538531  0.144938011577
    CT  OG2D1     1  0.293996576986  0.144938011577
    CT  OG2D2     1  0.320723538531  0.144938011577
    CT  OG2D3     1  0.293996576986  0.144938011577
    CT  OG2D4     1  0.320723538531  0.144938011577
    CT  OG2D5     1  0.320010819556  0.169954883425
    CT  OG2N1     1  0.320723538531  0.144938011577
    CT  OG2P1     1  0.320723538531  0.144938011577
    CT OG2R50     1  0.320723538531  0.144938011577
    CT  OG2S1     1  0.318906105146  0.157831660601
    CT  OG301     1  0.316269044940  0.132309697301
    CT  OG302     1  0.316269044940  0.132309697301
    CT  OG303     1  0.316269044940  0.132309697301
    CT  OG304     1  0.316269044940  0.132309697301
    CT  OG311     1  0.326514380198  0.183381431383
    CT  OG312     1  0.325178032121  0.144938011577
    CT OG3C31     1  0.316269044940  0.132309697301
    CT OG3C51     1  0.316269044940  0.132309697301
    CT OG3C61     1  0.316269044940  0.132309697301
    CT OG3R60     1  0.316269044940  0.132309697301
    CT    OH1     1  0.326959829558  0.163176000000
    CT    OHL     1  0.326959829558  0.163176000000
    CT   OLG1     1  0.293996576986  0.144938011577
    CT   OLG2     1  0.320723538531  0.144938011577
    CT   OLG3     1  0.320723538531  0.144938011577
    CT   OLG4     1  0.316269044940  0.132309697301
    CT   OLG5     1  0.316269044940  0.132309697301
    CT   OLG6     1  0.326514380198  0.183381431383
    CT   OLG7     1  0.316269044940  0.132309697301
    CT   OLG8     1  0.316269044940  0.132309697301
    CT     OM     1  0.320723538531  0.144938011577
    CT    ON1     1  0.320723538531  0.144938011577
    CT   ON1C     1  0.320723538531  0.144938011577
    CT    ON2     1  0.326959829558  0.163176000000
    CT   ON2B     1  0.326959829558  0.163176000000
    CT   ON2M     1  0.316269044940  0.132309697301
    CT    ON3     1  0.320723538531  0.144938011577
    CT    ON4     1  0.326959829558  0.163176000000
    CT    ON5     1  0.326959829558  0.163176000000
    CT    ON6     1  0.326959829558  0.163176000000
    CT   ON6B     1  0.326959829558  0.163176000000
    CT   OPER     1  0.318427692534  0.188901923946
    CT     OS     1  0.326959829558  0.163176000000
    CT   OSIA     1  0.326959829558  0.163176000000
    CT   OSIE     1  0.326959829558  0.163176000000
    CT   OSIH     1  0.326959829558  0.163176000000
    CT    OSL     1  0.316269044940  0.132309697301
    CT   OSLP     1  0.316269044940  0.132309697301
    CT    OST     1  0.320010819556  0.169954883425
    CT     OT     1  0.326799467788  0.163176000000
    CT     OX     1  0.320723538531  0.144938011577
    CT      P     1  0.360813980847  0.320014464673
    CT     P2     1  0.360813980847  0.320014464673
    CT     P3     1  0.360813980847  0.320014464673
    CT     P4     1  0.360813980847  0.320014464673
    CT     PB     1  0.328073452955  0.716185437439
    CT   PB2P     1  0.325890751096  0.204716924713
    CT     PC     1  0.360813980847  0.320014464673
    CT     PD     1  0.294842930769  1.037598257516
    CT   PD2P     1  0.251865976605  0.174628752363
    CT    PG0     1  0.360813980847  0.320014464673
    CT    PG1     1  0.360813980847  0.320014464673
    CT    PG2     1  0.360813980847  0.320014464673
    CT     PL     1  0.360813980847  0.320014464673
    CT   PM3P     1  0.316910492017  0.176275053255
    CT    POT     1  0.326403017859  0.123410269913
    CT   PR3P     1  0.317079762773  0.178642591472
    CT     PT     1  0.296001099102  1.168527606863
    CT   PT2P     1  0.240284293270  0.168973521997
    CT   PU3P     1  0.318024115415  0.179522368790
    CT   RA2P     1  0.355459679551  0.229891668540
    CT   RH3P     1  0.210367914314  0.149983415617
    CT    RUB     1  0.338541512893  0.162045623205
    CT      S     1  0.347450500075  0.280671252536
    CT     SC     1  0.356359487256  0.286840588481
    CT   SC3P     1  0.266993436839  0.157109060719
    CT  SEGD1     1  0.363041227642  0.330244580395
    CT  SG2D1     1  0.351904993665  0.314496560236
    CT  SG2P1     1  0.355798221064  0.332305491450
    CT  SG2P2     1  0.352314807076  0.329421919951
    CT SG2R50     1  0.347450500075  0.280671252536
    CT  SG301     1  0.345223253279  0.257919081884
    CT  SG302     1  0.365268474438  0.286840588481
    CT  SG311     1  0.347450500075  0.280671252536
    CT  SG3O1     1  0.356359487256  0.286840588481
    CT  SG3O2     1  0.347450500075  0.247528778125
    CT  SG3O3     1  0.347450500075  0.247528778125
    CT     SI     1  0.365268474438  0.324091246411
    CT   SIH3     1  0.365268474438  0.324091246411
    CT     SL     1  0.356359487256  0.286840588481
    CT     SM     1  0.345223253279  0.257919081884
    CT   SM2P     1  0.334666103469  0.207012887251
    CT   SM3P     1  0.308847858618  0.175378986746
    CT   SN2P     1  0.316981763914  0.181365662197
    CT    SOD     1  0.294954293108  0.090610410351
    CT     SP     1  0.365268474438  0.280671252536
    CT   SR2P     1  0.334612649546  0.200133451797
    CT     SS     1  0.365268474438  0.286840588481
    CT   TB3P     1  0.300678317372  0.172155203837
    CT   TI1P     1  0.341276571958  0.266826378666
    CT   TI3P     1  0.243117351193  0.149983415617
    CT   TL3P     1  0.246716582015  0.168869889039
    CT   TM3P     1  0.289417357575  0.168402751521
    CT    U3P     1  0.320830446377  0.182184255566
    CT    V2P     1  0.267599247968  0.167830039933
    CT    V3P     1  0.223989755715  0.147096016316
    CT    Y3P     1  0.295190381269  0.170263611896
    CT   YB2P     1  0.312616360195  0.189623385225
    CT   YB3P     1  0.284659958420  0.167569069413
    CT     ZN     1  0.266378716724  0.209200000000
   CT1    CT1     1  0.338541512893  0.041840000000
   CT1   CT1X     1  0.338541512893  0.041840000000
   CT1    CT2     1  0.338541512893  0.041840000000
   CT1   CT2A     1  0.338541512893  0.041840000000
   CT1   CT2P     1  0.338541512893  0.041840000000
   CT1   CT2X     1  0.338541512893  0.041840000000
   CT1    CT3     1  0.338541512893  0.041840000000
   CT1   CT3X     1  0.338541512893  0.041840000000
   CT1   CTD1     1  0.338541512893  0.041840000000
   CT1   CTL1     1  0.338541512893  0.041840000000
   CT1   CTL2     1  0.338541512893  0.041840000000
   CT1   CTL3     1  0.338541512893  0.041840000000
   CT1   CTL5     1  0.338541512893  0.041840000000
   CT1   CTO1     1  0.338541512893  0.041840000000
   CT1   CTO2     1  0.338541512893  0.041840000000
   CT1     CU     1  0.285800308779  0.908997471504
   CT1   CU1P     1  0.246066225950  0.180057894334
   CT1   CU2P     1  0.233869822499  0.162315474555
   CT1     CY     1  0.346559601357  0.113045454929
   CT1    DUM     1  0.169270756447  0.000000000000
   CT1   DY3P     1  0.297952167295  0.171135318061
   CT1   ER3P     1  0.291083338178  0.169232326746
   CT1   EU2P     1  0.333231756533  0.203602227414
   CT1   EU3P     1  0.304954631219  0.174528477447
   CT1     F1     1  0.314487247504  0.153729976257
   CT1     F2     1  0.314487247504  0.135577095411
   CT1     F3     1  0.311814551349  0.130309939452
   CT1     FA     1  0.320723538531  0.144938011577
   CT1     FE     1  0.227179173126  0.000000000000
   CT1   FE2P     1  0.265496726993  0.167098295383
   CT1   FE3P     1  0.219722350855  0.148045032716
   CT1   FGA1     1  0.314487247504  0.153729976257
   CT1   FGA2     1  0.314487247504  0.135577095411
   CT1   FGA3     1  0.311814551349  0.130309939452
   CT1   FGP1     1  0.311814551349  0.130309939452
   CT1   FGR1     1  0.320723538531  0.144938011577
   CT1    FNA     1  0.320723538531  0.144938011577
   CT1   GA3P     1  0.189485248361  0.145299904804
   CT1   GD3P     1  0.303351013527  0.173673803114
   CT1      H     1  0.189271432669  0.089736802707
   CT1     HA     1  0.286869387241  0.062058748940
   CT1    HA1     1  0.288651184677  0.088756043175
   CT1    HA2     1  0.288651184677  0.077149148019
   CT1    HA3     1  0.288651184677  0.064818249282
   CT1    HAL     1  0.286869387241  0.062058748940
   CT1   HAL1     1  0.286869387241  0.062058748940
   CT1   HAL2     1  0.288651184677  0.070011711020
   CT1   HAL3     1  0.288651184677  0.064818249282
   CT1     HB     1  0.286869387241  0.062058748940
   CT1    HB1     1  0.286869387241  0.062058748940
   CT1    HB2     1  0.288651184677  0.070011711020
   CT1    HBL     1  0.286869387241  0.062058748940
   CT1     HC     1  0.189271432669  0.089736802707
   CT1   HCA1     1  0.288651184677  0.088756043175
   CT1  HCA1A     1  0.288651184677  0.088756043175
   CT1 HCA1C2     1  0.288651184677  0.088756043175
   CT1   HCA2     1  0.288651184677  0.078275472531
   CT1 HCA25A     1  0.285087589805  0.078275472531
   CT1  HCA2A     1  0.288651184677  0.078275472531
   CT1 HCA2C2     1  0.285087589805  0.078275472531
   CT1   HCA3     1  0.288651184677  0.064818249282
   CT1  HCA3A     1  0.288651184677  0.064818249282
   CT1  HCA3M     1  0.288651184677  0.064818249282
   CT1    HCL     1  0.189271432669  0.089736802707
   CT1   HCP1     1  0.189271432669  0.089736802707
   CT1  HCP1M     1  0.189271432669  0.089736802707
   CT1   HCR1     1  0.240542653898  0.089736802707
   CT1     HE     1  0.301123766731  0.061020452073
   CT1    HE1     1  0.280633096214  0.073666921749
   CT1    HE2     1  0.281523994932  0.067464972838
   CT1   HEL1     1  0.280633096214  0.073666921749
   CT1   HEL2     1  0.281523994932  0.067464972838
   CT1    HF1     1  0.286869387241  0.070011711020
   CT1    HF2     1  0.285087589805  0.072469005789
   CT1   HG2P     1  0.274557166956  0.189623385225
   CT1   HGA1     1  0.288651184677  0.088756043175
   CT1   HGA2     1  0.288651184677  0.078275472531
   CT1   HGA3     1  0.288651184677  0.064818249282
   CT1   HGA4     1  0.280633096214  0.073666921749
   CT1   HGA5     1  0.281523994932  0.067464972838
   CT1   HGA6     1  0.286869387241  0.070011711020
   CT1   HGA7     1  0.285087589805  0.072469005789
   CT1 HGAAM0     1  0.283305792369  0.070011711020
   CT1 HGAAM1     1  0.283305792369  0.070011711020
   CT1 HGAAM2     1  0.281523994932  0.083680000000
   CT1   HGP1     1  0.189271432669  0.089736802707
   CT1   HGP2     1  0.189271432669  0.089736802707
   CT1   HGP3     1  0.209361198763  0.132309697301
   CT1   HGP4     1  0.189271432669  0.089736802707
   CT1   HGP5     1  0.231633666716  0.089736802707
   CT1 HGPAM1     1  0.247224394284  0.039692909190
   CT1 HGPAM2     1  0.247224394284  0.041840000000
   CT1 HGPAM3     1  0.246778944925  0.045833423612
   CT1  HGR51     1  0.290272620344  0.072469005789
   CT1  HGR52     1  0.249451641079  0.089736802707
   CT1  HGR53     1  0.231633666716  0.089736802707
   CT1  HGR61     1  0.290272620344  0.072469005789
   CT1  HGR62     1  0.267269615442  0.089736802707
   CT1  HGR63     1  0.249451641079  0.089736802707
   CT1  HGR71     1  0.290272620344  0.072469005789
   CT1     HL     1  0.231633666716  0.089736802707
   CT1  HLGA1     1  0.288651184677  0.088756043175
   CT1  HLGA2     1  0.288651184677  0.078275472531
   CT1  HLGA3     1  0.288651184677  0.064818249282
   CT1  HLGA4     1  0.280633096214  0.073666921749
   CT1  HLGP1     1  0.189271432669  0.089736802707
   CT1 HLGR52     1  0.249451641079  0.089736802707
   CT1 HLGR61     1  0.290272620344  0.072469005789
   CT1 HLGR62     1  0.267269615442  0.089736802707
   CT1    HN1     1  0.189271432669  0.089736802707
   CT1    HN2     1  0.189271432669  0.089736802707
   CT1    HN3     1  0.267269615442  0.089736802707
   CT1   HN3B     1  0.249451641079  0.089736802707
   CT1    HN4     1  0.189271432669  0.089736802707
   CT1    HN5     1  0.189271432669  0.089736802707
   CT1    HN6     1  0.286869387241  0.062058748940
   CT1    HN7     1  0.286869387241  0.062058748940
   CT1    HN8     1  0.288651184677  0.070011711020
   CT1    HN9     1  0.288651184677  0.064818249282
   CT1   HNE1     1  0.280633096214  0.073666921749
   CT1   HNE2     1  0.281523994932  0.067464972838
   CT1    HNP     1  0.290272620344  0.072469005789
   CT1   HO3P     1  0.293168041178  0.170263611896
   CT1    HOL     1  0.189271432669  0.089736802707
   CT1     HP     1  0.290272620344  0.072469005789
   CT1   HPER     1  0.189271432669  0.089736802707
   CT1    HR1     1  0.249451641079  0.089736802707
   CT1    HR2     1  0.231633666716  0.089736802707
   CT1    HR3     1  0.300054688270  0.036952087465
   CT1   HRA3     1  0.288651184677  0.064818249282
   CT1   HRM1     1  0.247224394284  0.039692909190
   CT1   HRM2     1  0.247224394284  0.041840000000
   CT1   HRP2     1  0.189271432669  0.089736802707
   CT1     HS     1  0.209361198763  0.132309697301
   CT1   HSIA     1  0.286869387241  0.062058748940
   CT1   HSIO     1  0.189271432669  0.089736802707
   CT1     HT     1  0.189271432669  0.089736802707
   CT1     HX     1  0.189271432669  0.089736802707
   CT1   IGR1     1  0.368832069310  0.301712530731
   CT1   IN3P     1  0.246449312399  0.160580590010
   CT1   LA3P     1  0.327200372211  0.182184255566
   CT1    LIT     1  0.284864865125  0.020196198771
   CT1    LPH     1  0.169270756447  0.000000000000
   CT1   LU3P     1  0.289648991242  0.166731218816
   CT1     MG     1  0.274842254546  0.051243325419
   CT1   MN2P     1  0.276508235149  0.171747976291
   CT1   MN3P     1  0.203516903172  0.148045032716
   CT1      N     1  0.334087019303  0.004184000000
   CT1     NC     1  0.334087019303  0.324091246411
   CT1    NC2     1  0.334087019303  0.187114168357
   CT1  NC2D1     1  0.307360057758  0.187114168357
   CT1  NC311     1  0.347450500075  0.088756043175
   CT1   ND3P     1  0.313587439798  0.177117175768
   CT1     NE     1  0.305578260322  0.122698965603
   CT1  NG1T1     1  0.328741626994  0.177512086349
   CT1  NG2D1     1  0.334087019303  0.187114168357
   CT1  NG2O1     1  0.334087019303  0.187114168357
   CT1  NG2P1     1  0.334087019303  0.187114168357
   CT1 NG2R43     1  0.334087019303  0.187114168357
   CT1 NG2R50     1  0.334087019303  0.187114168357
   CT1 NG2R51     1  0.334087019303  0.187114168357
   CT1 NG2R52     1  0.334087019303  0.187114168357
   CT1 NG2R53     1  0.334087019303  0.187114168357
   CT1 NG2R57     1  0.334087019303  0.187114168357
   CT1 NG2R60     1  0.337650614175  0.102486650838
   CT1 NG2R61     1  0.334087019303  0.187114168357
   CT1 NG2R62     1  0.352795892384  0.093557084179
   CT1 NG2R67     1  0.334087019303  0.187114168357
   CT1 NG2RC0     1  0.334087019303  0.187114168357
   CT1  NG2S0     1  0.334087019303  0.004184000000
   CT1  NG2S1     1  0.307360057758  0.187114168357
   CT1  NG2S2     1  0.334087019303  0.187114168357
   CT1  NG2S3     1  0.334087019303  0.187114168357
   CT1  NG301     1  0.347450500075  0.078275472531
   CT1  NG311     1  0.347450500075  0.088756043175
   CT1  NG321     1  0.346559601357  0.102486650838
   CT1  NG331     1  0.345668702638  0.110698234855
   CT1 NG3C51     1  0.334087019303  0.187114168357
   CT1  NG3N1     1  0.351904993665  0.102486650838
   CT1  NG3P0     1  0.334087019303  0.187114168357
   CT1  NG3P1     1  0.334087019303  0.187114168357
   CT1  NG3P2     1  0.334087019303  0.187114168357
   CT1  NG3P3     1  0.334087019303  0.187114168357
   CT1    NH1     1  0.307360057758  0.187114168357
   CT1    NH2     1  0.334087019303  0.187114168357
   CT1    NH3     1  0.334087019303  0.187114168357
   CT1   NH3L     1  0.334087019303  0.187114168357
   CT1    NHL     1  0.307360057758  0.187114168357
   CT1     NI     1  0.282949432881  0.994525446633
   CT1   NI2P     1  0.238787583423  0.158440517242
   CT1    NN1     1  0.334087019303  0.187114168357
   CT1   NN1C     1  0.334087019303  0.187114168357
   CT1    NN2     1  0.334087019303  0.187114168357
   CT1   NN2B     1  0.334087019303  0.187114168357
   CT1   NN2C     1  0.334087019303  0.187114168357
   CT1   NN2G     1  0.334087019303  0.187114168357
   CT1   NN2U     1  0.334087019303  0.187114168357
   CT1    NN3     1  0.334087019303  0.187114168357
   CT1   NN3A     1  0.334087019303  0.187114168357
   CT1   NN3G     1  0.334087019303  0.187114168357
   CT1   NN3I     1  0.334087019303  0.187114168357
   CT1    NN4     1  0.334087019303  0.187114168357
   CT1    NN6     1  0.334087019303  0.187114168357
   CT1    NNG     1  0.334087019303  0.187114168357
   CT1     NP     1  0.334087019303  0.187114168357
   CT1    NPH     1  0.334087019303  0.187114168357
   CT1    NR1     1  0.334087019303  0.187114168357
   CT1    NR2     1  0.334087019303  0.187114168357
   CT1    NR3     1  0.334087019303  0.187114168357
   CT1   NRC4     1  0.334087019303  0.187114168357
   CT1   NRN1     1  0.347450500075  0.280671252536
   CT1   NRN2     1  0.346559601357  0.102486650838
   CT1    NS1     1  0.334087019303  0.187114168357
   CT1    NS2     1  0.334087019303  0.187114168357
   CT1    NTL     1  0.334087019303  0.187114168357
   CT1     NY     1  0.334087019303  0.187114168357
   CT1      O     1  0.293996576986  0.144938011577
   CT1    O2L     1  0.320723538531  0.144938011577
   CT1    OAL     1  0.326959829558  0.163176000000
   CT1     OB     1  0.293996576986  0.144938011577
   CT1    OBL     1  0.293996576986  0.144938011577
   CT1     OC     1  0.320723538531  0.144938011577
   CT1  OC2D1     1  0.293996576986  0.144938011577
   CT1  OC2D2     1  0.320723538531  0.144938011577
   CT1  OC2D3     1  0.293996576986  0.144938011577
   CT1  OC2D4     1  0.293996576986  0.144938011577
   CT1  OC2DP     1  0.320723538531  0.144938011577
   CT1  OC301     1  0.316269044940  0.132309697301
   CT1  OC302     1  0.316269044940  0.132309697301
   CT1  OC303     1  0.316269044940  0.132309697301
   CT1 OC305A     1  0.316269044940  0.132309697301
   CT1  OC30A     1  0.316269044940  0.132309697301
   CT1  OC30P     1  0.326959829558  0.163176000000
   CT1  OC311     1  0.326514380198  0.183381431383
   CT1 OC311M     1  0.326514380198  0.183381431383
   CT1  OC312     1  0.326959829558  0.163176000000
   CT1 OC3C51     1  0.316269044940  0.132309697301
   CT1 OC3C5M     1  0.316269044940  0.132309697301
   CT1 OC3C61     1  0.316269044940  0.132309697301
   CT1    OCA     1  0.293996576986  0.144938011577
   CT1    OCL     1  0.320723538531  0.144938011577
   CT1  OG2D1     1  0.293996576986  0.144938011577
   CT1  OG2D2     1  0.320723538531  0.144938011577
   CT1  OG2D3     1  0.293996576986  0.144938011577
   CT1  OG2D4     1  0.320723538531  0.144938011577
   CT1  OG2D5     1  0.320010819556  0.169954883425
   CT1  OG2N1     1  0.320723538531  0.144938011577
   CT1  OG2P1     1  0.320723538531  0.144938011577
   CT1 OG2R50     1  0.320723538531  0.144938011577
   CT1  OG2S1     1  0.318906105146  0.157831660601
   CT1  OG301     1  0.316269044940  0.132309697301
   CT1  OG302     1  0.316269044940  0.132309697301
   CT1  OG303     1  0.316269044940  0.132309697301
   CT1  OG304     1  0.316269044940  0.132309697301
   CT1  OG311     1  0.326514380198  0.183381431383
   CT1  OG312     1  0.325178032121  0.144938011577
   CT1 OG3C31     1  0.316269044940  0.132309697301
   CT1 OG3C51     1  0.316269044940  0.132309697301
   CT1 OG3C61     1  0.316269044940  0.132309697301
   CT1 OG3R60     1  0.316269044940  0.132309697301
   CT1    OH1     1  0.326959829558  0.163176000000
   CT1    OHL     1  0.326959829558  0.163176000000
   CT1   OLG1     1  0.293996576986  0.144938011577
   CT1   OLG2     1  0.320723538531  0.144938011577
   CT1   OLG3     1  0.320723538531  0.144938011577
   CT1   OLG4     1  0.316269044940  0.132309697301
   CT1   OLG5     1  0.316269044940  0.132309697301
   CT1   OLG6     1  0.326514380198  0.183381431383
   CT1   OLG7     1  0.316269044940  0.132309697301
   CT1   OLG8     1  0.316269044940  0.132309697301
   CT1     OM     1  0.320723538531  0.144938011577
   CT1    ON1     1  0.320723538531  0.144938011577
   CT1   ON1C     1  0.320723538531  0.144938011577
   CT1    ON2     1  0.326959829558  0.163176000000
   CT1   ON2B     1  0.326959829558  0.163176000000
   CT1   ON2M     1  0.316269044940  0.132309697301
   CT1    ON3     1  0.320723538531  0.144938011577
   CT1    ON4     1  0.326959829558  0.163176000000
   CT1    ON5     1  0.326959829558  0.163176000000
   CT1    ON6     1  0.326959829558  0.163176000000
   CT1   ON6B     1  0.326959829558  0.163176000000
   CT1   OPER     1  0.318427692534  0.188901923946
   CT1     OS     1  0.326959829558  0.163176000000
   CT1   OSIA     1  0.326959829558  0.163176000000
   CT1   OSIE     1  0.326959829558  0.163176000000
   CT1   OSIH     1  0.326959829558  0.163176000000
   CT1    OSL     1  0.316269044940  0.132309697301
   CT1   OSLP     1  0.316269044940  0.132309697301
   CT1    OST     1  0.320010819556  0.169954883425
   CT1     OT     1  0.326799467788  0.163176000000
   CT1     OX     1  0.320723538531  0.144938011577
   CT1      P     1  0.360813980847  0.320014464673
   CT1     P2     1  0.360813980847  0.320014464673
   CT1     P3     1  0.360813980847  0.320014464673
   CT1     P4     1  0.360813980847  0.320014464673
   CT1     PB     1  0.328073452955  0.716185437439
   CT1   PB2P     1  0.325890751096  0.204716924713
   CT1     PC     1  0.360813980847  0.320014464673
   CT1     PD     1  0.294842930769  1.037598257516
   CT1   PD2P     1  0.251865976605  0.174628752363
   CT1    PG0     1  0.360813980847  0.320014464673
   CT1    PG1     1  0.360813980847  0.320014464673
   CT1    PG2     1  0.360813980847  0.320014464673
   CT1     PL     1  0.360813980847  0.320014464673
   CT1   PM3P     1  0.316910492017  0.176275053255
   CT1    POT     1  0.326403017859  0.123410269913
   CT1   PR3P     1  0.317079762773  0.178642591472
   CT1     PT     1  0.296001099102  1.168527606863
   CT1   PT2P     1  0.240284293270  0.168973521997
   CT1   PU3P     1  0.318024115415  0.179522368790
   CT1   RA2P     1  0.355459679551  0.229891668540
   CT1   RH3P     1  0.210367914314  0.149983415617
   CT1    RUB     1  0.338541512893  0.162045623205
   CT1      S     1  0.347450500075  0.280671252536
   CT1     SC     1  0.356359487256  0.286840588481
   CT1   SC3P     1  0.266993436839  0.157109060719
   CT1  SEGD1     1  0.363041227642  0.330244580395
   CT1  SG2D1     1  0.351904993665  0.314496560236
   CT1  SG2P1     1  0.355798221064  0.332305491450
   CT1  SG2P2     1  0.352314807076  0.329421919951
   CT1 SG2R50     1  0.347450500075  0.280671252536
   CT1  SG301     1  0.345223253279  0.257919081884
   CT1  SG302     1  0.365268474438  0.286840588481
   CT1  SG311     1  0.347450500075  0.280671252536
   CT1  SG3O1     1  0.356359487256  0.286840588481
   CT1  SG3O2     1  0.347450500075  0.247528778125
   CT1  SG3O3     1  0.347450500075  0.247528778125
   CT1     SI     1  0.365268474438  0.324091246411
   CT1   SIH3     1  0.365268474438  0.324091246411
   CT1     SL     1  0.356359487256  0.286840588481
   CT1     SM     1  0.345223253279  0.257919081884
   CT1   SM2P     1  0.334666103469  0.207012887251
   CT1   SM3P     1  0.308847858618  0.175378986746
   CT1   SN2P     1  0.316981763914  0.181365662197
   CT1    SOD     1  0.294954293108  0.090610410351
   CT1     SP     1  0.365268474438  0.280671252536
   CT1   SR2P     1  0.334612649546  0.200133451797
   CT1     SS     1  0.365268474438  0.286840588481
   CT1   TB3P     1  0.300678317372  0.172155203837
   CT1   TI1P     1  0.341276571958  0.266826378666
   CT1   TI3P     1  0.243117351193  0.149983415617
   CT1   TL3P     1  0.246716582015  0.168869889039
   CT1   TM3P     1  0.289417357575  0.168402751521
   CT1    U3P     1  0.320830446377  0.182184255566
   CT1    V2P     1  0.267599247968  0.167830039933
   CT1    V3P     1  0.223989755715  0.147096016316
   CT1    Y3P     1  0.295190381269  0.170263611896
   CT1   YB2P     1  0.312616360195  0.189623385225
   CT1   YB3P     1  0.284659958420  0.167569069413
   CT1     ZN     1  0.266378716724  0.209200000000
  CT1X   CT1X     1  0.338541512893  0.041840000000
  CT1X    CT2     1  0.338541512893  0.041840000000
  CT1X   CT2A     1  0.338541512893  0.041840000000
  CT1X   CT2P     1  0.338541512893  0.041840000000
  CT1X   CT2X     1  0.338541512893  0.041840000000
  CT1X    CT3     1  0.338541512893  0.041840000000
  CT1X   CT3X     1  0.338541512893  0.041840000000
  CT1X   CTD1     1  0.338541512893  0.041840000000
  CT1X   CTL1     1  0.338541512893  0.041840000000
  CT1X   CTL2     1  0.338541512893  0.041840000000
  CT1X   CTL3     1  0.338541512893  0.041840000000
  CT1X   CTL5     1  0.338541512893  0.041840000000
  CT1X   CTO1     1  0.338541512893  0.041840000000
  CT1X   CTO2     1  0.338541512893  0.041840000000
  CT1X     CU     1  0.285800308779  0.908997471504
  CT1X   CU1P     1  0.246066225950  0.180057894334
  CT1X   CU2P     1  0.233869822499  0.162315474555
  CT1X     CY     1  0.346559601357  0.113045454929
  CT1X    DUM     1  0.169270756447  0.000000000000
  CT1X   DY3P     1  0.297952167295  0.171135318061
  CT1X   ER3P     1  0.291083338178  0.169232326746
  CT1X   EU2P     1  0.333231756533  0.203602227414
  CT1X   EU3P     1  0.304954631219  0.174528477447
  CT1X     F1     1  0.314487247504  0.153729976257
  CT1X     F2     1  0.314487247504  0.135577095411
  CT1X     F3     1  0.311814551349  0.130309939452
  CT1X     FA     1  0.320723538531  0.144938011577
  CT1X     FE     1  0.227179173126  0.000000000000
  CT1X   FE2P     1  0.265496726993  0.167098295383
  CT1X   FE3P     1  0.219722350855  0.148045032716
  CT1X   FGA1     1  0.314487247504  0.153729976257
  CT1X   FGA2     1  0.314487247504  0.135577095411
  CT1X   FGA3     1  0.311814551349  0.130309939452
  CT1X   FGP1     1  0.311814551349  0.130309939452
  CT1X   FGR1     1  0.320723538531  0.144938011577
  CT1X    FNA     1  0.320723538531  0.144938011577
  CT1X   GA3P     1  0.189485248361  0.145299904804
  CT1X   GD3P     1  0.303351013527  0.173673803114
  CT1X      H     1  0.189271432669  0.089736802707
  CT1X     HA     1  0.286869387241  0.062058748940
  CT1X    HA1     1  0.288651184677  0.088756043175
  CT1X    HA2     1  0.288651184677  0.077149148019
  CT1X    HA3     1  0.288651184677  0.064818249282
  CT1X    HAL     1  0.286869387241  0.062058748940
  CT1X   HAL1     1  0.286869387241  0.062058748940
  CT1X   HAL2     1  0.288651184677  0.070011711020
  CT1X   HAL3     1  0.288651184677  0.064818249282
  CT1X     HB     1  0.286869387241  0.062058748940
  CT1X    HB1     1  0.286869387241  0.062058748940
  CT1X    HB2     1  0.288651184677  0.070011711020
  CT1X    HBL     1  0.286869387241  0.062058748940
  CT1X     HC     1  0.189271432669  0.089736802707
  CT1X   HCA1     1  0.288651184677  0.088756043175
  CT1X  HCA1A     1  0.288651184677  0.088756043175
  CT1X HCA1C2     1  0.288651184677  0.088756043175
  CT1X   HCA2     1  0.288651184677  0.078275472531
  CT1X HCA25A     1  0.285087589805  0.078275472531
  CT1X  HCA2A     1  0.288651184677  0.078275472531
  CT1X HCA2C2     1  0.285087589805  0.078275472531
  CT1X   HCA3     1  0.288651184677  0.064818249282
  CT1X  HCA3A     1  0.288651184677  0.064818249282
  CT1X  HCA3M     1  0.288651184677  0.064818249282
  CT1X    HCL     1  0.189271432669  0.089736802707
  CT1X   HCP1     1  0.189271432669  0.089736802707
  CT1X  HCP1M     1  0.189271432669  0.089736802707
  CT1X   HCR1     1  0.240542653898  0.089736802707
  CT1X     HE     1  0.301123766731  0.061020452073
  CT1X    HE1     1  0.280633096214  0.073666921749
  CT1X    HE2     1  0.281523994932  0.067464972838
  CT1X   HEL1     1  0.280633096214  0.073666921749
  CT1X   HEL2     1  0.281523994932  0.067464972838
  CT1X    HF1     1  0.286869387241  0.070011711020
  CT1X    HF2     1  0.285087589805  0.072469005789
  CT1X   HG2P     1  0.274557166956  0.189623385225
  CT1X   HGA1     1  0.288651184677  0.088756043175
  CT1X   HGA2     1  0.288651184677  0.078275472531
  CT1X   HGA3     1  0.288651184677  0.064818249282
  CT1X   HGA4     1  0.280633096214  0.073666921749
  CT1X   HGA5     1  0.281523994932  0.067464972838
  CT1X   HGA6     1  0.286869387241  0.070011711020
  CT1X   HGA7     1  0.285087589805  0.072469005789
  CT1X HGAAM0     1  0.283305792369  0.070011711020
  CT1X HGAAM1     1  0.283305792369  0.070011711020
  CT1X HGAAM2     1  0.281523994932  0.083680000000
  CT1X   HGP1     1  0.189271432669  0.089736802707
  CT1X   HGP2     1  0.189271432669  0.089736802707
  CT1X   HGP3     1  0.209361198763  0.132309697301
  CT1X   HGP4     1  0.189271432669  0.089736802707
  CT1X   HGP5     1  0.231633666716  0.089736802707
  CT1X HGPAM1     1  0.247224394284  0.039692909190
  CT1X HGPAM2     1  0.247224394284  0.041840000000
  CT1X HGPAM3     1  0.246778944925  0.045833423612
  CT1X  HGR51     1  0.290272620344  0.072469005789
  CT1X  HGR52     1  0.249451641079  0.089736802707
  CT1X  HGR53     1  0.231633666716  0.089736802707
  CT1X  HGR61     1  0.290272620344  0.072469005789
  CT1X  HGR62     1  0.267269615442  0.089736802707
  CT1X  HGR63     1  0.249451641079  0.089736802707
  CT1X  HGR71     1  0.290272620344  0.072469005789
  CT1X     HL     1  0.231633666716  0.089736802707
  CT1X  HLGA1     1  0.288651184677  0.088756043175
  CT1X  HLGA2     1  0.288651184677  0.078275472531
  CT1X  HLGA3     1  0.288651184677  0.064818249282
  CT1X  HLGA4     1  0.280633096214  0.073666921749
  CT1X  HLGP1     1  0.189271432669  0.089736802707
  CT1X HLGR52     1  0.249451641079  0.089736802707
  CT1X HLGR61     1  0.290272620344  0.072469005789
  CT1X HLGR62     1  0.267269615442  0.089736802707
  CT1X    HN1     1  0.189271432669  0.089736802707
  CT1X    HN2     1  0.189271432669  0.089736802707
  CT1X    HN3     1  0.267269615442  0.089736802707
  CT1X   HN3B     1  0.249451641079  0.089736802707
  CT1X    HN4     1  0.189271432669  0.089736802707
  CT1X    HN5     1  0.189271432669  0.089736802707
  CT1X    HN6     1  0.286869387241  0.062058748940
  CT1X    HN7     1  0.286869387241  0.062058748940
  CT1X    HN8     1  0.288651184677  0.070011711020
  CT1X    HN9     1  0.288651184677  0.064818249282
  CT1X   HNE1     1  0.280633096214  0.073666921749
  CT1X   HNE2     1  0.281523994932  0.067464972838
  CT1X    HNP     1  0.290272620344  0.072469005789
  CT1X   HO3P     1  0.293168041178  0.170263611896
  CT1X    HOL     1  0.189271432669  0.089736802707
  CT1X     HP     1  0.290272620344  0.072469005789
  CT1X   HPER     1  0.189271432669  0.089736802707
  CT1X    HR1     1  0.249451641079  0.089736802707
  CT1X    HR2     1  0.231633666716  0.089736802707
  CT1X    HR3     1  0.300054688270  0.036952087465
  CT1X   HRA3     1  0.288651184677  0.064818249282
  CT1X   HRM1     1  0.247224394284  0.039692909190
  CT1X   HRM2     1  0.247224394284  0.041840000000
  CT1X   HRP2     1  0.189271432669  0.089736802707
  CT1X     HS     1  0.209361198763  0.132309697301
  CT1X   HSIA     1  0.286869387241  0.062058748940
  CT1X   HSIO     1  0.189271432669  0.089736802707
  CT1X     HT     1  0.189271432669  0.089736802707
  CT1X     HX     1  0.189271432669  0.089736802707
  CT1X   IGR1     1  0.368832069310  0.301712530731
  CT1X   IN3P     1  0.246449312399  0.160580590010
  CT1X   LA3P     1  0.327200372211  0.182184255566
  CT1X    LIT     1  0.284864865125  0.020196198771
  CT1X    LPH     1  0.169270756447  0.000000000000
  CT1X   LU3P     1  0.289648991242  0.166731218816
  CT1X     MG     1  0.274842254546  0.051243325419
  CT1X   MN2P     1  0.276508235149  0.171747976291
  CT1X   MN3P     1  0.203516903172  0.148045032716
  CT1X      N     1  0.334087019303  0.004184000000
  CT1X     NC     1  0.334087019303  0.324091246411
  CT1X    NC2     1  0.334087019303  0.187114168357
  CT1X  NC2D1     1  0.307360057758  0.187114168357
  CT1X  NC311     1  0.347450500075  0.088756043175
  CT1X   ND3P     1  0.313587439798  0.177117175768
  CT1X     NE     1  0.305578260322  0.122698965603
  CT1X  NG1T1     1  0.328741626994  0.177512086349
  CT1X  NG2D1     1  0.334087019303  0.187114168357
  CT1X  NG2O1     1  0.334087019303  0.187114168357
  CT1X  NG2P1     1  0.334087019303  0.187114168357
  CT1X NG2R43     1  0.334087019303  0.187114168357
  CT1X NG2R50     1  0.334087019303  0.187114168357
  CT1X NG2R51     1  0.334087019303  0.187114168357
  CT1X NG2R52     1  0.334087019303  0.187114168357
  CT1X NG2R53     1  0.334087019303  0.187114168357
  CT1X NG2R57     1  0.334087019303  0.187114168357
  CT1X NG2R60     1  0.337650614175  0.102486650838
  CT1X NG2R61     1  0.334087019303  0.187114168357
  CT1X NG2R62     1  0.352795892384  0.093557084179
  CT1X NG2R67     1  0.334087019303  0.187114168357
  CT1X NG2RC0     1  0.334087019303  0.187114168357
  CT1X  NG2S0     1  0.334087019303  0.004184000000
  CT1X  NG2S1     1  0.307360057758  0.187114168357
  CT1X  NG2S2     1  0.334087019303  0.187114168357
  CT1X  NG2S3     1  0.334087019303  0.187114168357
  CT1X  NG301     1  0.347450500075  0.078275472531
  CT1X  NG311     1  0.347450500075  0.088756043175
  CT1X  NG321     1  0.346559601357  0.102486650838
  CT1X  NG331     1  0.345668702638  0.110698234855
  CT1X NG3C51     1  0.334087019303  0.187114168357
  CT1X  NG3N1     1  0.351904993665  0.102486650838
  CT1X  NG3P0     1  0.334087019303  0.187114168357
  CT1X  NG3P1     1  0.334087019303  0.187114168357
  CT1X  NG3P2     1  0.334087019303  0.187114168357
  CT1X  NG3P3     1  0.334087019303  0.187114168357
  CT1X    NH1     1  0.307360057758  0.187114168357
  CT1X    NH2     1  0.334087019303  0.187114168357
  CT1X    NH3     1  0.334087019303  0.187114168357
  CT1X   NH3L     1  0.334087019303  0.187114168357
  CT1X    NHL     1  0.307360057758  0.187114168357
  CT1X     NI     1  0.282949432881  0.994525446633
  CT1X   NI2P     1  0.238787583423  0.158440517242
  CT1X    NN1     1  0.334087019303  0.187114168357
  CT1X   NN1C     1  0.334087019303  0.187114168357
  CT1X    NN2     1  0.334087019303  0.187114168357
  CT1X   NN2B     1  0.334087019303  0.187114168357
  CT1X   NN2C     1  0.334087019303  0.187114168357
  CT1X   NN2G     1  0.334087019303  0.187114168357
  CT1X   NN2U     1  0.334087019303  0.187114168357
  CT1X    NN3     1  0.334087019303  0.187114168357
  CT1X   NN3A     1  0.334087019303  0.187114168357
  CT1X   NN3G     1  0.334087019303  0.187114168357
  CT1X   NN3I     1  0.334087019303  0.187114168357
  CT1X    NN4     1  0.334087019303  0.187114168357
  CT1X    NN6     1  0.334087019303  0.187114168357
  CT1X    NNG     1  0.334087019303  0.187114168357
  CT1X     NP     1  0.334087019303  0.187114168357
  CT1X    NPH     1  0.334087019303  0.187114168357
  CT1X    NR1     1  0.334087019303  0.187114168357
  CT1X    NR2     1  0.334087019303  0.187114168357
  CT1X    NR3     1  0.334087019303  0.187114168357
  CT1X   NRC4     1  0.334087019303  0.187114168357
  CT1X   NRN1     1  0.347450500075  0.280671252536
  CT1X   NRN2     1  0.346559601357  0.102486650838
  CT1X    NS1     1  0.334087019303  0.187114168357
  CT1X    NS2     1  0.334087019303  0.187114168357
  CT1X    NTL     1  0.334087019303  0.187114168357
  CT1X     NY     1  0.334087019303  0.187114168357
  CT1X      O     1  0.293996576986  0.144938011577
  CT1X    O2L     1  0.320723538531  0.144938011577
  CT1X    OAL     1  0.326959829558  0.163176000000
  CT1X     OB     1  0.293996576986  0.144938011577
  CT1X    OBL     1  0.293996576986  0.144938011577
  CT1X     OC     1  0.320723538531  0.144938011577
  CT1X  OC2D1     1  0.293996576986  0.144938011577
  CT1X  OC2D2     1  0.320723538531  0.144938011577
  CT1X  OC2D3     1  0.293996576986  0.144938011577
  CT1X  OC2D4     1  0.293996576986  0.144938011577
  CT1X  OC2DP     1  0.320723538531  0.144938011577
  CT1X  OC301     1  0.316269044940  0.132309697301
  CT1X  OC302     1  0.316269044940  0.132309697301
  CT1X  OC303     1  0.316269044940  0.132309697301
  CT1X OC305A     1  0.316269044940  0.132309697301
  CT1X  OC30A     1  0.316269044940  0.132309697301
  CT1X  OC30P     1  0.326959829558  0.163176000000
  CT1X  OC311     1  0.326514380198  0.183381431383
  CT1X OC311M     1  0.326514380198  0.183381431383
  CT1X  OC312     1  0.326959829558  0.163176000000
  CT1X OC3C51     1  0.316269044940  0.132309697301
  CT1X OC3C5M     1  0.316269044940  0.132309697301
  CT1X OC3C61     1  0.316269044940  0.132309697301
  CT1X    OCA     1  0.293996576986  0.144938011577
  CT1X    OCL     1  0.320723538531  0.144938011577
  CT1X  OG2D1     1  0.293996576986  0.144938011577
  CT1X  OG2D2     1  0.320723538531  0.144938011577
  CT1X  OG2D3     1  0.293996576986  0.144938011577
  CT1X  OG2D4     1  0.320723538531  0.144938011577
  CT1X  OG2D5     1  0.320010819556  0.169954883425
  CT1X  OG2N1     1  0.320723538531  0.144938011577
  CT1X  OG2P1     1  0.320723538531  0.144938011577
  CT1X OG2R50     1  0.320723538531  0.144938011577
  CT1X  OG2S1     1  0.318906105146  0.157831660601
  CT1X  OG301     1  0.316269044940  0.132309697301
  CT1X  OG302     1  0.316269044940  0.132309697301
  CT1X  OG303     1  0.316269044940  0.132309697301
  CT1X  OG304     1  0.316269044940  0.132309697301
  CT1X  OG311     1  0.326514380198  0.183381431383
  CT1X  OG312     1  0.325178032121  0.144938011577
  CT1X OG3C31     1  0.316269044940  0.132309697301
  CT1X OG3C51     1  0.316269044940  0.132309697301
  CT1X OG3C61     1  0.316269044940  0.132309697301
  CT1X OG3R60     1  0.316269044940  0.132309697301
  CT1X    OH1     1  0.326959829558  0.163176000000
  CT1X    OHL     1  0.326959829558  0.163176000000
  CT1X   OLG1     1  0.293996576986  0.144938011577
  CT1X   OLG2     1  0.320723538531  0.144938011577
  CT1X   OLG3     1  0.320723538531  0.144938011577
  CT1X   OLG4     1  0.316269044940  0.132309697301
  CT1X   OLG5     1  0.316269044940  0.132309697301
  CT1X   OLG6     1  0.326514380198  0.183381431383
  CT1X   OLG7     1  0.316269044940  0.132309697301
  CT1X   OLG8     1  0.316269044940  0.132309697301
  CT1X     OM     1  0.320723538531  0.144938011577
  CT1X    ON1     1  0.320723538531  0.144938011577
  CT1X   ON1C     1  0.320723538531  0.144938011577
  CT1X    ON2     1  0.326959829558  0.163176000000
  CT1X   ON2B     1  0.326959829558  0.163176000000
  CT1X   ON2M     1  0.316269044940  0.132309697301
  CT1X    ON3     1  0.320723538531  0.144938011577
  CT1X    ON4     1  0.326959829558  0.163176000000
  CT1X    ON5     1  0.326959829558  0.163176000000
  CT1X    ON6     1  0.326959829558  0.163176000000
  CT1X   ON6B     1  0.326959829558  0.163176000000
  CT1X   OPER     1  0.318427692534  0.188901923946
  CT1X     OS     1  0.326959829558  0.163176000000
  CT1X   OSIA     1  0.326959829558  0.163176000000
  CT1X   OSIE     1  0.326959829558  0.163176000000
  CT1X   OSIH     1  0.326959829558  0.163176000000
  CT1X    OSL     1  0.316269044940  0.132309697301
  CT1X   OSLP     1  0.316269044940  0.132309697301
  CT1X    OST     1  0.320010819556  0.169954883425
  CT1X     OT     1  0.326799467788  0.163176000000
  CT1X     OX     1  0.320723538531  0.144938011577
  CT1X      P     1  0.360813980847  0.320014464673
  CT1X     P2     1  0.360813980847  0.320014464673
  CT1X     P3     1  0.360813980847  0.320014464673
  CT1X     P4     1  0.360813980847  0.320014464673
  CT1X     PB     1  0.328073452955  0.716185437439
  CT1X   PB2P     1  0.325890751096  0.204716924713
  CT1X     PC     1  0.360813980847  0.320014464673
  CT1X     PD     1  0.294842930769  1.037598257516
  CT1X   PD2P     1  0.251865976605  0.174628752363
  CT1X    PG0     1  0.360813980847  0.320014464673
  CT1X    PG1     1  0.360813980847  0.320014464673
  CT1X    PG2     1  0.360813980847  0.320014464673
  CT1X     PL     1  0.360813980847  0.320014464673
  CT1X   PM3P     1  0.316910492017  0.176275053255
  CT1X    POT     1  0.326403017859  0.123410269913
  CT1X   PR3P     1  0.317079762773  0.178642591472
  CT1X     PT     1  0.296001099102  1.168527606863
  CT1X   PT2P     1  0.240284293270  0.168973521997
  CT1X   PU3P     1  0.318024115415  0.179522368790
  CT1X   RA2P     1  0.355459679551  0.229891668540
  CT1X   RH3P     1  0.210367914314  0.149983415617
  CT1X    RUB     1  0.338541512893  0.162045623205
  CT1X      S     1  0.347450500075  0.280671252536
  CT1X     SC     1  0.356359487256  0.286840588481
  CT1X   SC3P     1  0.266993436839  0.157109060719
  CT1X  SEGD1     1  0.363041227642  0.330244580395
  CT1X  SG2D1     1  0.351904993665  0.314496560236
  CT1X  SG2P1     1  0.355798221064  0.332305491450
  CT1X  SG2P2     1  0.352314807076  0.329421919951
  CT1X SG2R50     1  0.347450500075  0.280671252536
  CT1X  SG301     1  0.345223253279  0.257919081884
  CT1X  SG302     1  0.365268474438  0.286840588481
  CT1X  SG311     1  0.347450500075  0.280671252536
  CT1X  SG3O1     1  0.356359487256  0.286840588481
  CT1X  SG3O2     1  0.347450500075  0.247528778125
  CT1X  SG3O3     1  0.347450500075  0.247528778125
  CT1X     SI     1  0.365268474438  0.324091246411
  CT1X   SIH3     1  0.365268474438  0.324091246411
  CT1X     SL     1  0.356359487256  0.286840588481
  CT1X     SM     1  0.345223253279  0.257919081884
  CT1X   SM2P     1  0.334666103469  0.207012887251
  CT1X   SM3P     1  0.308847858618  0.175378986746
  CT1X   SN2P     1  0.316981763914  0.181365662197
  CT1X    SOD     1  0.294954293108  0.090610410351
  CT1X     SP     1  0.365268474438  0.280671252536
  CT1X   SR2P     1  0.334612649546  0.200133451797
  CT1X     SS     1  0.365268474438  0.286840588481
  CT1X   TB3P     1  0.300678317372  0.172155203837
  CT1X   TI1P     1  0.341276571958  0.266826378666
  CT1X   TI3P     1  0.243117351193  0.149983415617
  CT1X   TL3P     1  0.246716582015  0.168869889039
  CT1X   TM3P     1  0.289417357575  0.168402751521
  CT1X    U3P     1  0.320830446377  0.182184255566
  CT1X    V2P     1  0.267599247968  0.167830039933
  CT1X    V3P     1  0.223989755715  0.147096016316
  CT1X    Y3P     1  0.295190381269  0.170263611896
  CT1X   YB2P     1  0.312616360195  0.189623385225
  CT1X   YB3P     1  0.284659958420  0.167569069413
  CT1X     ZN     1  0.266378716724  0.209200000000
   CT2    CT2     1  0.338541512893  0.041840000000
   CT2   CT2A     1  0.338541512893  0.041840000000
   CT2   CT2P     1  0.338541512893  0.041840000000
   CT2   CT2X     1  0.338541512893  0.041840000000
   CT2    CT3     1  0.338541512893  0.041840000000
   CT2   CT3X     1  0.338541512893  0.041840000000
   CT2   CTD1     1  0.338541512893  0.041840000000
   CT2   CTL1     1  0.338541512893  0.041840000000
   CT2   CTL2     1  0.338541512893  0.041840000000
   CT2   CTL3     1  0.338541512893  0.041840000000
   CT2   CTL5     1  0.338541512893  0.041840000000
   CT2   CTO1     1  0.338541512893  0.041840000000
   CT2   CTO2     1  0.338541512893  0.041840000000
   CT2     CU     1  0.285800308779  0.908997471504
   CT2   CU1P     1  0.246066225950  0.180057894334
   CT2   CU2P     1  0.233869822499  0.162315474555
   CT2     CY     1  0.346559601357  0.113045454929
   CT2    DUM     1  0.169270756447  0.000000000000
   CT2   DY3P     1  0.297952167295  0.171135318061
   CT2   ER3P     1  0.291083338178  0.169232326746
   CT2   EU2P     1  0.333231756533  0.203602227414
   CT2   EU3P     1  0.304954631219  0.174528477447
   CT2     F1     1  0.314487247504  0.153729976257
   CT2     F2     1  0.314487247504  0.135577095411
   CT2     F3     1  0.311814551349  0.130309939452
   CT2     FA     1  0.320723538531  0.144938011577
   CT2     FE     1  0.227179173126  0.000000000000
   CT2   FE2P     1  0.265496726993  0.167098295383
   CT2   FE3P     1  0.219722350855  0.148045032716
   CT2   FGA1     1  0.314487247504  0.153729976257
   CT2   FGA2     1  0.314487247504  0.135577095411
   CT2   FGA3     1  0.311814551349  0.130309939452
   CT2   FGP1     1  0.311814551349  0.130309939452
   CT2   FGR1     1  0.320723538531  0.144938011577
   CT2    FNA     1  0.320723538531  0.144938011577
   CT2   GA3P     1  0.189485248361  0.145299904804
   CT2   GD3P     1  0.303351013527  0.173673803114
   CT2      H     1  0.189271432669  0.089736802707
   CT2     HA     1  0.286869387241  0.062058748940
   CT2    HA1     1  0.288651184677  0.088756043175
   CT2    HA2     1  0.288651184677  0.077149148019
   CT2    HA3     1  0.288651184677  0.064818249282
   CT2    HAL     1  0.286869387241  0.062058748940
   CT2   HAL1     1  0.286869387241  0.062058748940
   CT2   HAL2     1  0.288651184677  0.070011711020
   CT2   HAL3     1  0.288651184677  0.064818249282
   CT2     HB     1  0.286869387241  0.062058748940
   CT2    HB1     1  0.286869387241  0.062058748940
   CT2    HB2     1  0.288651184677  0.070011711020
   CT2    HBL     1  0.286869387241  0.062058748940
   CT2     HC     1  0.189271432669  0.089736802707
   CT2   HCA1     1  0.288651184677  0.088756043175
   CT2  HCA1A     1  0.288651184677  0.088756043175
   CT2 HCA1C2     1  0.288651184677  0.088756043175
   CT2   HCA2     1  0.288651184677  0.078275472531
   CT2 HCA25A     1  0.285087589805  0.078275472531
   CT2  HCA2A     1  0.288651184677  0.078275472531
   CT2 HCA2C2     1  0.285087589805  0.078275472531
   CT2   HCA3     1  0.288651184677  0.064818249282
   CT2  HCA3A     1  0.288651184677  0.064818249282
   CT2  HCA3M     1  0.288651184677  0.064818249282
   CT2    HCL     1  0.189271432669  0.089736802707
   CT2   HCP1     1  0.189271432669  0.089736802707
   CT2  HCP1M     1  0.189271432669  0.089736802707
   CT2   HCR1     1  0.240542653898  0.089736802707
   CT2     HE     1  0.301123766731  0.061020452073
   CT2    HE1     1  0.280633096214  0.073666921749
   CT2    HE2     1  0.281523994932  0.067464972838
   CT2   HEL1     1  0.280633096214  0.073666921749
   CT2   HEL2     1  0.281523994932  0.067464972838
   CT2    HF1     1  0.286869387241  0.070011711020
   CT2    HF2     1  0.285087589805  0.072469005789
   CT2   HG2P     1  0.274557166956  0.189623385225
   CT2   HGA1     1  0.288651184677  0.088756043175
   CT2   HGA2     1  0.288651184677  0.078275472531
   CT2   HGA3     1  0.288651184677  0.064818249282
   CT2   HGA4     1  0.280633096214  0.073666921749
   CT2   HGA5     1  0.281523994932  0.067464972838
   CT2   HGA6     1  0.286869387241  0.070011711020
   CT2   HGA7     1  0.285087589805  0.072469005789
   CT2 HGAAM0     1  0.283305792369  0.070011711020
   CT2 HGAAM1     1  0.283305792369  0.070011711020
   CT2 HGAAM2     1  0.281523994932  0.083680000000
   CT2   HGP1     1  0.189271432669  0.089736802707
   CT2   HGP2     1  0.189271432669  0.089736802707
   CT2   HGP3     1  0.209361198763  0.132309697301
   CT2   HGP4     1  0.189271432669  0.089736802707
   CT2   HGP5     1  0.231633666716  0.089736802707
   CT2 HGPAM1     1  0.247224394284  0.039692909190
   CT2 HGPAM2     1  0.247224394284  0.041840000000
   CT2 HGPAM3     1  0.246778944925  0.045833423612
   CT2  HGR51     1  0.290272620344  0.072469005789
   CT2  HGR52     1  0.249451641079  0.089736802707
   CT2  HGR53     1  0.231633666716  0.089736802707
   CT2  HGR61     1  0.290272620344  0.072469005789
   CT2  HGR62     1  0.267269615442  0.089736802707
   CT2  HGR63     1  0.249451641079  0.089736802707
   CT2  HGR71     1  0.290272620344  0.072469005789
   CT2     HL     1  0.231633666716  0.089736802707
   CT2  HLGA1     1  0.288651184677  0.088756043175
   CT2  HLGA2     1  0.288651184677  0.078275472531
   CT2  HLGA3     1  0.288651184677  0.064818249282
   CT2  HLGA4     1  0.280633096214  0.073666921749
   CT2  HLGP1     1  0.189271432669  0.089736802707
   CT2 HLGR52     1  0.249451641079  0.089736802707
   CT2 HLGR61     1  0.290272620344  0.072469005789
   CT2 HLGR62     1  0.267269615442  0.089736802707
   CT2    HN1     1  0.189271432669  0.089736802707
   CT2    HN2     1  0.189271432669  0.089736802707
   CT2    HN3     1  0.267269615442  0.089736802707
   CT2   HN3B     1  0.249451641079  0.089736802707
   CT2    HN4     1  0.189271432669  0.089736802707
   CT2    HN5     1  0.189271432669  0.089736802707
   CT2    HN6     1  0.286869387241  0.062058748940
   CT2    HN7     1  0.286869387241  0.062058748940
   CT2    HN8     1  0.288651184677  0.070011711020
   CT2    HN9     1  0.288651184677  0.064818249282
   CT2   HNE1     1  0.280633096214  0.073666921749
   CT2   HNE2     1  0.281523994932  0.067464972838
   CT2    HNP     1  0.290272620344  0.072469005789
   CT2   HO3P     1  0.293168041178  0.170263611896
   CT2    HOL     1  0.189271432669  0.089736802707
   CT2     HP     1  0.290272620344  0.072469005789
   CT2   HPER     1  0.189271432669  0.089736802707
   CT2    HR1     1  0.249451641079  0.089736802707
   CT2    HR2     1  0.231633666716  0.089736802707
   CT2    HR3     1  0.300054688270  0.036952087465
   CT2   HRA3     1  0.288651184677  0.064818249282
   CT2   HRM1     1  0.247224394284  0.039692909190
   CT2   HRM2     1  0.247224394284  0.041840000000
   CT2   HRP2     1  0.189271432669  0.089736802707
   CT2     HS     1  0.209361198763  0.132309697301
   CT2   HSIA     1  0.286869387241  0.062058748940
   CT2   HSIO     1  0.189271432669  0.089736802707
   CT2     HT     1  0.189271432669  0.089736802707
   CT2     HX     1  0.189271432669  0.089736802707
   CT2   IGR1     1  0.368832069310  0.301712530731
   CT2   IN3P     1  0.246449312399  0.160580590010
   CT2   LA3P     1  0.327200372211  0.182184255566
   CT2    LIT     1  0.284864865125  0.020196198771
   CT2    LPH     1  0.169270756447  0.000000000000
   CT2   LU3P     1  0.289648991242  0.166731218816
   CT2     MG     1  0.274842254546  0.051243325419
   CT2   MN2P     1  0.276508235149  0.171747976291
   CT2   MN3P     1  0.203516903172  0.148045032716
   CT2      N     1  0.334087019303  0.004184000000
   CT2     NC     1  0.334087019303  0.324091246411
   CT2    NC2     1  0.334087019303  0.187114168357
   CT2  NC2D1     1  0.307360057758  0.187114168357
   CT2  NC311     1  0.347450500075  0.088756043175
   CT2   ND3P     1  0.313587439798  0.177117175768
   CT2     NE     1  0.305578260322  0.122698965603
   CT2  NG1T1     1  0.328741626994  0.177512086349
   CT2  NG2D1     1  0.334087019303  0.187114168357
   CT2  NG2O1     1  0.334087019303  0.187114168357
   CT2  NG2P1     1  0.334087019303  0.187114168357
   CT2 NG2R43     1  0.334087019303  0.187114168357
   CT2 NG2R50     1  0.334087019303  0.187114168357
   CT2 NG2R51     1  0.334087019303  0.187114168357
   CT2 NG2R52     1  0.334087019303  0.187114168357
   CT2 NG2R53     1  0.334087019303  0.187114168357
   CT2 NG2R57     1  0.334087019303  0.187114168357
   CT2 NG2R60     1  0.337650614175  0.102486650838
   CT2 NG2R61     1  0.334087019303  0.187114168357
   CT2 NG2R62     1  0.352795892384  0.093557084179
   CT2 NG2R67     1  0.334087019303  0.187114168357
   CT2 NG2RC0     1  0.334087019303  0.187114168357
   CT2  NG2S0     1  0.334087019303  0.004184000000
   CT2  NG2S1     1  0.307360057758  0.187114168357
   CT2  NG2S2     1  0.334087019303  0.187114168357
   CT2  NG2S3     1  0.334087019303  0.187114168357
   CT2  NG301     1  0.347450500075  0.078275472531
   CT2  NG311     1  0.347450500075  0.088756043175
   CT2  NG321     1  0.346559601357  0.102486650838
   CT2  NG331     1  0.345668702638  0.110698234855
   CT2 NG3C51     1  0.334087019303  0.187114168357
   CT2  NG3N1     1  0.351904993665  0.102486650838
   CT2  NG3P0     1  0.334087019303  0.187114168357
   CT2  NG3P1     1  0.334087019303  0.187114168357
   CT2  NG3P2     1  0.334087019303  0.187114168357
   CT2  NG3P3     1  0.334087019303  0.187114168357
   CT2    NH1     1  0.307360057758  0.187114168357
   CT2    NH2     1  0.334087019303  0.187114168357
   CT2    NH3     1  0.334087019303  0.187114168357
   CT2   NH3L     1  0.334087019303  0.187114168357
   CT2    NHL     1  0.307360057758  0.187114168357
   CT2     NI     1  0.282949432881  0.994525446633
   CT2   NI2P     1  0.238787583423  0.158440517242
   CT2    NN1     1  0.334087019303  0.187114168357
   CT2   NN1C     1  0.334087019303  0.187114168357
   CT2    NN2     1  0.334087019303  0.187114168357
   CT2   NN2B     1  0.334087019303  0.187114168357
   CT2   NN2C     1  0.334087019303  0.187114168357
   CT2   NN2G     1  0.334087019303  0.187114168357
   CT2   NN2U     1  0.334087019303  0.187114168357
   CT2    NN3     1  0.334087019303  0.187114168357
   CT2   NN3A     1  0.334087019303  0.187114168357
   CT2   NN3G     1  0.334087019303  0.187114168357
   CT2   NN3I     1  0.334087019303  0.187114168357
   CT2    NN4     1  0.334087019303  0.187114168357
   CT2    NN6     1  0.334087019303  0.187114168357
   CT2    NNG     1  0.334087019303  0.187114168357
   CT2     NP     1  0.334087019303  0.187114168357
   CT2    NPH     1  0.334087019303  0.187114168357
   CT2    NR1     1  0.334087019303  0.187114168357
   CT2    NR2     1  0.334087019303  0.187114168357
   CT2    NR3     1  0.334087019303  0.187114168357
   CT2   NRC4     1  0.334087019303  0.187114168357
   CT2   NRN1     1  0.347450500075  0.280671252536
   CT2   NRN2     1  0.346559601357  0.102486650838
   CT2    NS1     1  0.334087019303  0.187114168357
   CT2    NS2     1  0.334087019303  0.187114168357
   CT2    NTL     1  0.334087019303  0.187114168357
   CT2     NY     1  0.334087019303  0.187114168357
   CT2      O     1  0.293996576986  0.144938011577
   CT2    O2L     1  0.320723538531  0.144938011577
   CT2    OAL     1  0.326959829558  0.163176000000
   CT2     OB     1  0.293996576986  0.144938011577
   CT2    OBL     1  0.293996576986  0.144938011577
   CT2     OC     1  0.320723538531  0.144938011577
   CT2  OC2D1     1  0.293996576986  0.144938011577
   CT2  OC2D2     1  0.320723538531  0.144938011577
   CT2  OC2D3     1  0.293996576986  0.144938011577
   CT2  OC2D4     1  0.293996576986  0.144938011577
   CT2  OC2DP     1  0.320723538531  0.144938011577
   CT2  OC301     1  0.316269044940  0.132309697301
   CT2  OC302     1  0.316269044940  0.132309697301
   CT2  OC303     1  0.316269044940  0.132309697301
   CT2 OC305A     1  0.316269044940  0.132309697301
   CT2  OC30A     1  0.316269044940  0.132309697301
   CT2  OC30P     1  0.326959829558  0.163176000000
   CT2  OC311     1  0.326514380198  0.183381431383
   CT2 OC311M     1  0.326514380198  0.183381431383
   CT2  OC312     1  0.326959829558  0.163176000000
   CT2 OC3C51     1  0.316269044940  0.132309697301
   CT2 OC3C5M     1  0.316269044940  0.132309697301
   CT2 OC3C61     1  0.316269044940  0.132309697301
   CT2    OCA     1  0.293996576986  0.144938011577
   CT2    OCL     1  0.320723538531  0.144938011577
   CT2  OG2D1     1  0.293996576986  0.144938011577
   CT2  OG2D2     1  0.320723538531  0.144938011577
   CT2  OG2D3     1  0.293996576986  0.144938011577
   CT2  OG2D4     1  0.320723538531  0.144938011577
   CT2  OG2D5     1  0.320010819556  0.169954883425
   CT2  OG2N1     1  0.320723538531  0.144938011577
   CT2  OG2P1     1  0.320723538531  0.144938011577
   CT2 OG2R50     1  0.320723538531  0.144938011577
   CT2  OG2S1     1  0.318906105146  0.157831660601
   CT2  OG301     1  0.316269044940  0.132309697301
   CT2  OG302     1  0.316269044940  0.132309697301
   CT2  OG303     1  0.316269044940  0.132309697301
   CT2  OG304     1  0.316269044940  0.132309697301
   CT2  OG311     1  0.326514380198  0.183381431383
   CT2  OG312     1  0.325178032121  0.144938011577
   CT2 OG3C31     1  0.316269044940  0.132309697301
   CT2 OG3C51     1  0.316269044940  0.132309697301
   CT2 OG3C61     1  0.316269044940  0.132309697301
   CT2 OG3R60     1  0.316269044940  0.132309697301
   CT2    OH1     1  0.326959829558  0.163176000000
   CT2    OHL     1  0.326959829558  0.163176000000
   CT2   OLG1     1  0.293996576986  0.144938011577
   CT2   OLG2     1  0.320723538531  0.144938011577
   CT2   OLG3     1  0.320723538531  0.144938011577
   CT2   OLG4     1  0.316269044940  0.132309697301
   CT2   OLG5     1  0.316269044940  0.132309697301
   CT2   OLG6     1  0.326514380198  0.183381431383
   CT2   OLG7     1  0.316269044940  0.132309697301
   CT2   OLG8     1  0.316269044940  0.132309697301
   CT2     OM     1  0.320723538531  0.144938011577
   CT2    ON1     1  0.320723538531  0.144938011577
   CT2   ON1C     1  0.320723538531  0.144938011577
   CT2    ON2     1  0.326959829558  0.163176000000
   CT2   ON2B     1  0.326959829558  0.163176000000
   CT2   ON2M     1  0.316269044940  0.132309697301
   CT2    ON3     1  0.320723538531  0.144938011577
   CT2    ON4     1  0.326959829558  0.163176000000
   CT2    ON5     1  0.326959829558  0.163176000000
   CT2    ON6     1  0.326959829558  0.163176000000
   CT2   ON6B     1  0.326959829558  0.163176000000
   CT2   OPER     1  0.318427692534  0.188901923946
   CT2     OS     1  0.326959829558  0.163176000000
   CT2   OSIA     1  0.326959829558  0.163176000000
   CT2   OSIE     1  0.326959829558  0.163176000000
   CT2   OSIH     1  0.326959829558  0.163176000000
   CT2    OSL     1  0.316269044940  0.132309697301
   CT2   OSLP     1  0.316269044940  0.132309697301
   CT2    OST     1  0.320010819556  0.169954883425
   CT2     OT     1  0.326799467788  0.163176000000
   CT2     OX     1  0.320723538531  0.144938011577
   CT2      P     1  0.360813980847  0.320014464673
   CT2     P2     1  0.360813980847  0.320014464673
   CT2     P3     1  0.360813980847  0.320014464673
   CT2     P4     1  0.360813980847  0.320014464673
   CT2     PB     1  0.328073452955  0.716185437439
   CT2   PB2P     1  0.325890751096  0.204716924713
   CT2     PC     1  0.360813980847  0.320014464673
   CT2     PD     1  0.294842930769  1.037598257516
   CT2   PD2P     1  0.251865976605  0.174628752363
   CT2    PG0     1  0.360813980847  0.320014464673
   CT2    PG1     1  0.360813980847  0.320014464673
   CT2    PG2     1  0.360813980847  0.320014464673
   CT2     PL     1  0.360813980847  0.320014464673
   CT2   PM3P     1  0.316910492017  0.176275053255
   CT2    POT     1  0.326403017859  0.123410269913
   CT2   PR3P     1  0.317079762773  0.178642591472
   CT2     PT     1  0.296001099102  1.168527606863
   CT2   PT2P     1  0.240284293270  0.168973521997
   CT2   PU3P     1  0.318024115415  0.179522368790
   CT2   RA2P     1  0.355459679551  0.229891668540
   CT2   RH3P     1  0.210367914314  0.149983415617
   CT2    RUB     1  0.338541512893  0.162045623205
   CT2      S     1  0.347450500075  0.280671252536
   CT2     SC     1  0.356359487256  0.286840588481
   CT2   SC3P     1  0.266993436839  0.157109060719
   CT2  SEGD1     1  0.363041227642  0.330244580395
   CT2  SG2D1     1  0.351904993665  0.314496560236
   CT2  SG2P1     1  0.355798221064  0.332305491450
   CT2  SG2P2     1  0.352314807076  0.329421919951
   CT2 SG2R50     1  0.347450500075  0.280671252536
   CT2  SG301     1  0.345223253279  0.257919081884
   CT2  SG302     1  0.365268474438  0.286840588481
   CT2  SG311     1  0.347450500075  0.280671252536
   CT2  SG3O1     1  0.356359487256  0.286840588481
   CT2  SG3O2     1  0.347450500075  0.247528778125
   CT2  SG3O3     1  0.347450500075  0.247528778125
   CT2     SI     1  0.365268474438  0.324091246411
   CT2   SIH3     1  0.365268474438  0.324091246411
   CT2     SL     1  0.356359487256  0.286840588481
   CT2     SM     1  0.345223253279  0.257919081884
   CT2   SM2P     1  0.334666103469  0.207012887251
   CT2   SM3P     1  0.308847858618  0.175378986746
   CT2   SN2P     1  0.316981763914  0.181365662197
   CT2    SOD     1  0.294954293108  0.090610410351
   CT2     SP     1  0.365268474438  0.280671252536
   CT2   SR2P     1  0.334612649546  0.200133451797
   CT2     SS     1  0.365268474438  0.286840588481
   CT2   TB3P     1  0.300678317372  0.172155203837
   CT2   TI1P     1  0.341276571958  0.266826378666
   CT2   TI3P     1  0.243117351193  0.149983415617
   CT2   TL3P     1  0.246716582015  0.168869889039
   CT2   TM3P     1  0.289417357575  0.168402751521
   CT2    U3P     1  0.320830446377  0.182184255566
   CT2    V2P     1  0.267599247968  0.167830039933
   CT2    V3P     1  0.223989755715  0.147096016316
   CT2    Y3P     1  0.295190381269  0.170263611896
   CT2   YB2P     1  0.312616360195  0.189623385225
   CT2   YB3P     1  0.284659958420  0.167569069413
   CT2     ZN     1  0.266378716724  0.209200000000
  CT2A   CT2A     1  0.338541512893  0.041840000000
  CT2A   CT2P     1  0.338541512893  0.041840000000
  CT2A   CT2X     1  0.338541512893  0.041840000000
  CT2A    CT3     1  0.338541512893  0.041840000000
  CT2A   CT3X     1  0.338541512893  0.041840000000
  CT2A   CTD1     1  0.338541512893  0.041840000000
  CT2A   CTL1     1  0.338541512893  0.041840000000
  CT2A   CTL2     1  0.338541512893  0.041840000000
  CT2A   CTL3     1  0.338541512893  0.041840000000
  CT2A   CTL5     1  0.338541512893  0.041840000000
  CT2A   CTO1     1  0.338541512893  0.041840000000
  CT2A   CTO2     1  0.338541512893  0.041840000000
  CT2A     CU     1  0.285800308779  0.908997471504
  CT2A   CU1P     1  0.246066225950  0.180057894334
  CT2A   CU2P     1  0.233869822499  0.162315474555
  CT2A     CY     1  0.346559601357  0.113045454929
  CT2A    DUM     1  0.169270756447  0.000000000000
  CT2A   DY3P     1  0.297952167295  0.171135318061
  CT2A   ER3P     1  0.291083338178  0.169232326746
  CT2A   EU2P     1  0.333231756533  0.203602227414
  CT2A   EU3P     1  0.304954631219  0.174528477447
  CT2A     F1     1  0.314487247504  0.153729976257
  CT2A     F2     1  0.314487247504  0.135577095411
  CT2A     F3     1  0.311814551349  0.130309939452
  CT2A     FA     1  0.320723538531  0.144938011577
  CT2A     FE     1  0.227179173126  0.000000000000
  CT2A   FE2P     1  0.265496726993  0.167098295383
  CT2A   FE3P     1  0.219722350855  0.148045032716
  CT2A   FGA1     1  0.314487247504  0.153729976257
  CT2A   FGA2     1  0.314487247504  0.135577095411
  CT2A   FGA3     1  0.311814551349  0.130309939452
  CT2A   FGP1     1  0.311814551349  0.130309939452
  CT2A   FGR1     1  0.320723538531  0.144938011577
  CT2A    FNA     1  0.320723538531  0.144938011577
  CT2A   GA3P     1  0.189485248361  0.145299904804
  CT2A   GD3P     1  0.303351013527  0.173673803114
  CT2A      H     1  0.189271432669  0.089736802707
  CT2A     HA     1  0.286869387241  0.062058748940
  CT2A    HA1     1  0.288651184677  0.088756043175
  CT2A    HA2     1  0.288651184677  0.077149148019
  CT2A    HA3     1  0.288651184677  0.064818249282
  CT2A    HAL     1  0.286869387241  0.062058748940
  CT2A   HAL1     1  0.286869387241  0.062058748940
  CT2A   HAL2     1  0.288651184677  0.070011711020
  CT2A   HAL3     1  0.288651184677  0.064818249282
  CT2A     HB     1  0.286869387241  0.062058748940
  CT2A    HB1     1  0.286869387241  0.062058748940
  CT2A    HB2     1  0.288651184677  0.070011711020
  CT2A    HBL     1  0.286869387241  0.062058748940
  CT2A     HC     1  0.189271432669  0.089736802707
  CT2A   HCA1     1  0.288651184677  0.088756043175
  CT2A  HCA1A     1  0.288651184677  0.088756043175
  CT2A HCA1C2     1  0.288651184677  0.088756043175
  CT2A   HCA2     1  0.288651184677  0.078275472531
  CT2A HCA25A     1  0.285087589805  0.078275472531
  CT2A  HCA2A     1  0.288651184677  0.078275472531
  CT2A HCA2C2     1  0.285087589805  0.078275472531
  CT2A   HCA3     1  0.288651184677  0.064818249282
  CT2A  HCA3A     1  0.288651184677  0.064818249282
  CT2A  HCA3M     1  0.288651184677  0.064818249282
  CT2A    HCL     1  0.189271432669  0.089736802707
  CT2A   HCP1     1  0.189271432669  0.089736802707
  CT2A  HCP1M     1  0.189271432669  0.089736802707
  CT2A   HCR1     1  0.240542653898  0.089736802707
  CT2A     HE     1  0.301123766731  0.061020452073
  CT2A    HE1     1  0.280633096214  0.073666921749
  CT2A    HE2     1  0.281523994932  0.067464972838
  CT2A   HEL1     1  0.280633096214  0.073666921749
  CT2A   HEL2     1  0.281523994932  0.067464972838
  CT2A    HF1     1  0.286869387241  0.070011711020
  CT2A    HF2     1  0.285087589805  0.072469005789
  CT2A   HG2P     1  0.274557166956  0.189623385225
  CT2A   HGA1     1  0.288651184677  0.088756043175
  CT2A   HGA2     1  0.288651184677  0.078275472531
  CT2A   HGA3     1  0.288651184677  0.064818249282
  CT2A   HGA4     1  0.280633096214  0.073666921749
  CT2A   HGA5     1  0.281523994932  0.067464972838
  CT2A   HGA6     1  0.286869387241  0.070011711020
  CT2A   HGA7     1  0.285087589805  0.072469005789
  CT2A HGAAM0     1  0.283305792369  0.070011711020
  CT2A HGAAM1     1  0.283305792369  0.070011711020
  CT2A HGAAM2     1  0.281523994932  0.083680000000
  CT2A   HGP1     1  0.189271432669  0.089736802707
  CT2A   HGP2     1  0.189271432669  0.089736802707
  CT2A   HGP3     1  0.209361198763  0.132309697301
  CT2A   HGP4     1  0.189271432669  0.089736802707
  CT2A   HGP5     1  0.231633666716  0.089736802707
  CT2A HGPAM1     1  0.247224394284  0.039692909190
  CT2A HGPAM2     1  0.247224394284  0.041840000000
  CT2A HGPAM3     1  0.246778944925  0.045833423612
  CT2A  HGR51     1  0.290272620344  0.072469005789
  CT2A  HGR52     1  0.249451641079  0.089736802707
  CT2A  HGR53     1  0.231633666716  0.089736802707
  CT2A  HGR61     1  0.290272620344  0.072469005789
  CT2A  HGR62     1  0.267269615442  0.089736802707
  CT2A  HGR63     1  0.249451641079  0.089736802707
  CT2A  HGR71     1  0.290272620344  0.072469005789
  CT2A     HL     1  0.231633666716  0.089736802707
  CT2A  HLGA1     1  0.288651184677  0.088756043175
  CT2A  HLGA2     1  0.288651184677  0.078275472531
  CT2A  HLGA3     1  0.288651184677  0.064818249282
  CT2A  HLGA4     1  0.280633096214  0.073666921749
  CT2A  HLGP1     1  0.189271432669  0.089736802707
  CT2A HLGR52     1  0.249451641079  0.089736802707
  CT2A HLGR61     1  0.290272620344  0.072469005789
  CT2A HLGR62     1  0.267269615442  0.089736802707
  CT2A    HN1     1  0.189271432669  0.089736802707
  CT2A    HN2     1  0.189271432669  0.089736802707
  CT2A    HN3     1  0.267269615442  0.089736802707
  CT2A   HN3B     1  0.249451641079  0.089736802707
  CT2A    HN4     1  0.189271432669  0.089736802707
  CT2A    HN5     1  0.189271432669  0.089736802707
  CT2A    HN6     1  0.286869387241  0.062058748940
  CT2A    HN7     1  0.286869387241  0.062058748940
  CT2A    HN8     1  0.288651184677  0.070011711020
  CT2A    HN9     1  0.288651184677  0.064818249282
  CT2A   HNE1     1  0.280633096214  0.073666921749
  CT2A   HNE2     1  0.281523994932  0.067464972838
  CT2A    HNP     1  0.290272620344  0.072469005789
  CT2A   HO3P     1  0.293168041178  0.170263611896
  CT2A    HOL     1  0.189271432669  0.089736802707
  CT2A     HP     1  0.290272620344  0.072469005789
  CT2A   HPER     1  0.189271432669  0.089736802707
  CT2A    HR1     1  0.249451641079  0.089736802707
  CT2A    HR2     1  0.231633666716  0.089736802707
  CT2A    HR3     1  0.300054688270  0.036952087465
  CT2A   HRA3     1  0.288651184677  0.064818249282
  CT2A   HRM1     1  0.247224394284  0.039692909190
  CT2A   HRM2     1  0.247224394284  0.041840000000
  CT2A   HRP2     1  0.189271432669  0.089736802707
  CT2A     HS     1  0.209361198763  0.132309697301
  CT2A   HSIA     1  0.286869387241  0.062058748940
  CT2A   HSIO     1  0.189271432669  0.089736802707
  CT2A     HT     1  0.189271432669  0.089736802707
  CT2A     HX     1  0.189271432669  0.089736802707
  CT2A   IGR1     1  0.368832069310  0.301712530731
  CT2A   IN3P     1  0.246449312399  0.160580590010
  CT2A   LA3P     1  0.327200372211  0.182184255566
  CT2A    LIT     1  0.284864865125  0.020196198771
  CT2A    LPH     1  0.169270756447  0.000000000000
  CT2A   LU3P     1  0.289648991242  0.166731218816
  CT2A     MG     1  0.274842254546  0.051243325419
  CT2A   MN2P     1  0.276508235149  0.171747976291
  CT2A   MN3P     1  0.203516903172  0.148045032716
  CT2A      N     1  0.334087019303  0.004184000000
  CT2A     NC     1  0.334087019303  0.324091246411
  CT2A    NC2     1  0.334087019303  0.187114168357
  CT2A  NC2D1     1  0.307360057758  0.187114168357
  CT2A  NC311     1  0.347450500075  0.088756043175
  CT2A   ND3P     1  0.313587439798  0.177117175768
  CT2A     NE     1  0.305578260322  0.122698965603
  CT2A  NG1T1     1  0.328741626994  0.177512086349
  CT2A  NG2D1     1  0.334087019303  0.187114168357
  CT2A  NG2O1     1  0.334087019303  0.187114168357
  CT2A  NG2P1     1  0.334087019303  0.187114168357
  CT2A NG2R43     1  0.334087019303  0.187114168357
  CT2A NG2R50     1  0.334087019303  0.187114168357
  CT2A NG2R51     1  0.334087019303  0.187114168357
  CT2A NG2R52     1  0.334087019303  0.187114168357
  CT2A NG2R53     1  0.334087019303  0.187114168357
  CT2A NG2R57     1  0.334087019303  0.187114168357
  CT2A NG2R60     1  0.337650614175  0.102486650838
  CT2A NG2R61     1  0.334087019303  0.187114168357
  CT2A NG2R62     1  0.352795892384  0.093557084179
  CT2A NG2R67     1  0.334087019303  0.187114168357
  CT2A NG2RC0     1  0.334087019303  0.187114168357
  CT2A  NG2S0     1  0.334087019303  0.004184000000
  CT2A  NG2S1     1  0.307360057758  0.187114168357
  CT2A  NG2S2     1  0.334087019303  0.187114168357
  CT2A  NG2S3     1  0.334087019303  0.187114168357
  CT2A  NG301     1  0.347450500075  0.078275472531
  CT2A  NG311     1  0.347450500075  0.088756043175
  CT2A  NG321     1  0.346559601357  0.102486650838
  CT2A  NG331     1  0.345668702638  0.110698234855
  CT2A NG3C51     1  0.334087019303  0.187114168357
  CT2A  NG3N1     1  0.351904993665  0.102486650838
  CT2A  NG3P0     1  0.334087019303  0.187114168357
  CT2A  NG3P1     1  0.334087019303  0.187114168357
  CT2A  NG3P2     1  0.334087019303  0.187114168357
  CT2A  NG3P3     1  0.334087019303  0.187114168357
  CT2A    NH1     1  0.307360057758  0.187114168357
  CT2A    NH2     1  0.334087019303  0.187114168357
  CT2A    NH3     1  0.334087019303  0.187114168357
  CT2A   NH3L     1  0.334087019303  0.187114168357
  CT2A    NHL     1  0.307360057758  0.187114168357
  CT2A     NI     1  0.282949432881  0.994525446633
  CT2A   NI2P     1  0.238787583423  0.158440517242
  CT2A    NN1     1  0.334087019303  0.187114168357
  CT2A   NN1C     1  0.334087019303  0.187114168357
  CT2A    NN2     1  0.334087019303  0.187114168357
  CT2A   NN2B     1  0.334087019303  0.187114168357
  CT2A   NN2C     1  0.334087019303  0.187114168357
  CT2A   NN2G     1  0.334087019303  0.187114168357
  CT2A   NN2U     1  0.334087019303  0.187114168357
  CT2A    NN3     1  0.334087019303  0.187114168357
  CT2A   NN3A     1  0.334087019303  0.187114168357
  CT2A   NN3G     1  0.334087019303  0.187114168357
  CT2A   NN3I     1  0.334087019303  0.187114168357
  CT2A    NN4     1  0.334087019303  0.187114168357
  CT2A    NN6     1  0.334087019303  0.187114168357
  CT2A    NNG     1  0.334087019303  0.187114168357
  CT2A     NP     1  0.334087019303  0.187114168357
  CT2A    NPH     1  0.334087019303  0.187114168357
  CT2A    NR1     1  0.334087019303  0.187114168357
  CT2A    NR2     1  0.334087019303  0.187114168357
  CT2A    NR3     1  0.334087019303  0.187114168357
  CT2A   NRC4     1  0.334087019303  0.187114168357
  CT2A   NRN1     1  0.347450500075  0.280671252536
  CT2A   NRN2     1  0.346559601357  0.102486650838
  CT2A    NS1     1  0.334087019303  0.187114168357
  CT2A    NS2     1  0.334087019303  0.187114168357
  CT2A    NTL     1  0.334087019303  0.187114168357
  CT2A     NY     1  0.334087019303  0.187114168357
  CT2A      O     1  0.293996576986  0.144938011577
  CT2A    O2L     1  0.320723538531  0.144938011577
  CT2A    OAL     1  0.326959829558  0.163176000000
  CT2A     OB     1  0.293996576986  0.144938011577
  CT2A    OBL     1  0.293996576986  0.144938011577
  CT2A     OC     1  0.320723538531  0.144938011577
  CT2A  OC2D1     1  0.293996576986  0.144938011577
  CT2A  OC2D2     1  0.320723538531  0.144938011577
  CT2A  OC2D3     1  0.293996576986  0.144938011577
  CT2A  OC2D4     1  0.293996576986  0.144938011577
  CT2A  OC2DP     1  0.320723538531  0.144938011577
  CT2A  OC301     1  0.316269044940  0.132309697301
  CT2A  OC302     1  0.316269044940  0.132309697301
  CT2A  OC303     1  0.316269044940  0.132309697301
  CT2A OC305A     1  0.316269044940  0.132309697301
  CT2A  OC30A     1  0.316269044940  0.132309697301
  CT2A  OC30P     1  0.326959829558  0.163176000000
  CT2A  OC311     1  0.326514380198  0.183381431383
  CT2A OC311M     1  0.326514380198  0.183381431383
  CT2A  OC312     1  0.326959829558  0.163176000000
  CT2A OC3C51     1  0.316269044940  0.132309697301
  CT2A OC3C5M     1  0.316269044940  0.132309697301
  CT2A OC3C61     1  0.316269044940  0.132309697301
  CT2A    OCA     1  0.293996576986  0.144938011577
  CT2A    OCL     1  0.320723538531  0.144938011577
  CT2A  OG2D1     1  0.293996576986  0.144938011577
  CT2A  OG2D2     1  0.320723538531  0.144938011577
  CT2A  OG2D3     1  0.293996576986  0.144938011577
  CT2A  OG2D4     1  0.320723538531  0.144938011577
  CT2A  OG2D5     1  0.320010819556  0.169954883425
  CT2A  OG2N1     1  0.320723538531  0.144938011577
  CT2A  OG2P1     1  0.320723538531  0.144938011577
  CT2A OG2R50     1  0.320723538531  0.144938011577
  CT2A  OG2S1     1  0.318906105146  0.157831660601
  CT2A  OG301     1  0.316269044940  0.132309697301
  CT2A  OG302     1  0.316269044940  0.132309697301
  CT2A  OG303     1  0.316269044940  0.132309697301
  CT2A  OG304     1  0.316269044940  0.132309697301
  CT2A  OG311     1  0.326514380198  0.183381431383
  CT2A  OG312     1  0.325178032121  0.144938011577
  CT2A OG3C31     1  0.316269044940  0.132309697301
  CT2A OG3C51     1  0.316269044940  0.132309697301
  CT2A OG3C61     1  0.316269044940  0.132309697301
  CT2A OG3R60     1  0.316269044940  0.132309697301
  CT2A    OH1     1  0.326959829558  0.163176000000
  CT2A    OHL     1  0.326959829558  0.163176000000
  CT2A   OLG1     1  0.293996576986  0.144938011577
  CT2A   OLG2     1  0.320723538531  0.144938011577
  CT2A   OLG3     1  0.320723538531  0.144938011577
  CT2A   OLG4     1  0.316269044940  0.132309697301
  CT2A   OLG5     1  0.316269044940  0.132309697301
  CT2A   OLG6     1  0.326514380198  0.183381431383
  CT2A   OLG7     1  0.316269044940  0.132309697301
  CT2A   OLG8     1  0.316269044940  0.132309697301
  CT2A     OM     1  0.320723538531  0.144938011577
  CT2A    ON1     1  0.320723538531  0.144938011577
  CT2A   ON1C     1  0.320723538531  0.144938011577
  CT2A    ON2     1  0.326959829558  0.163176000000
  CT2A   ON2B     1  0.326959829558  0.163176000000
  CT2A   ON2M     1  0.316269044940  0.132309697301
  CT2A    ON3     1  0.320723538531  0.144938011577
  CT2A    ON4     1  0.326959829558  0.163176000000
  CT2A    ON5     1  0.326959829558  0.163176000000
  CT2A    ON6     1  0.326959829558  0.163176000000
  CT2A   ON6B     1  0.326959829558  0.163176000000
  CT2A   OPER     1  0.318427692534  0.188901923946
  CT2A     OS     1  0.326959829558  0.163176000000
  CT2A   OSIA     1  0.326959829558  0.163176000000
  CT2A   OSIE     1  0.326959829558  0.163176000000
  CT2A   OSIH     1  0.326959829558  0.163176000000
  CT2A    OSL     1  0.316269044940  0.132309697301
  CT2A   OSLP     1  0.316269044940  0.132309697301
  CT2A    OST     1  0.320010819556  0.169954883425
  CT2A     OT     1  0.326799467788  0.163176000000
  CT2A     OX     1  0.320723538531  0.144938011577
  CT2A      P     1  0.360813980847  0.320014464673
  CT2A     P2     1  0.360813980847  0.320014464673
  CT2A     P3     1  0.360813980847  0.320014464673
  CT2A     P4     1  0.360813980847  0.320014464673
  CT2A     PB     1  0.328073452955  0.716185437439
  CT2A   PB2P     1  0.325890751096  0.204716924713
  CT2A     PC     1  0.360813980847  0.320014464673
  CT2A     PD     1  0.294842930769  1.037598257516
  CT2A   PD2P     1  0.251865976605  0.174628752363
  CT2A    PG0     1  0.360813980847  0.320014464673
  CT2A    PG1     1  0.360813980847  0.320014464673
  CT2A    PG2     1  0.360813980847  0.320014464673
  CT2A     PL     1  0.360813980847  0.320014464673
  CT2A   PM3P     1  0.316910492017  0.176275053255
  CT2A    POT     1  0.326403017859  0.123410269913
  CT2A   PR3P     1  0.317079762773  0.178642591472
  CT2A     PT     1  0.296001099102  1.168527606863
  CT2A   PT2P     1  0.240284293270  0.168973521997
  CT2A   PU3P     1  0.318024115415  0.179522368790
  CT2A   RA2P     1  0.355459679551  0.229891668540
  CT2A   RH3P     1  0.210367914314  0.149983415617
  CT2A    RUB     1  0.338541512893  0.162045623205
  CT2A      S     1  0.347450500075  0.280671252536
  CT2A     SC     1  0.356359487256  0.286840588481
  CT2A   SC3P     1  0.266993436839  0.157109060719
  CT2A  SEGD1     1  0.363041227642  0.330244580395
  CT2A  SG2D1     1  0.351904993665  0.314496560236
  CT2A  SG2P1     1  0.355798221064  0.332305491450
  CT2A  SG2P2     1  0.352314807076  0.329421919951
  CT2A SG2R50     1  0.347450500075  0.280671252536
  CT2A  SG301     1  0.345223253279  0.257919081884
  CT2A  SG302     1  0.365268474438  0.286840588481
  CT2A  SG311     1  0.347450500075  0.280671252536
  CT2A  SG3O1     1  0.356359487256  0.286840588481
  CT2A  SG3O2     1  0.347450500075  0.247528778125
  CT2A  SG3O3     1  0.347450500075  0.247528778125
  CT2A     SI     1  0.365268474438  0.324091246411
  CT2A   SIH3     1  0.365268474438  0.324091246411
  CT2A     SL     1  0.356359487256  0.286840588481
  CT2A     SM     1  0.345223253279  0.257919081884
  CT2A   SM2P     1  0.334666103469  0.207012887251
  CT2A   SM3P     1  0.308847858618  0.175378986746
  CT2A   SN2P     1  0.316981763914  0.181365662197
  CT2A    SOD     1  0.294954293108  0.090610410351
  CT2A     SP     1  0.365268474438  0.280671252536
  CT2A   SR2P     1  0.334612649546  0.200133451797
  CT2A     SS     1  0.365268474438  0.286840588481
  CT2A   TB3P     1  0.300678317372  0.172155203837
  CT2A   TI1P     1  0.341276571958  0.266826378666
  CT2A   TI3P     1  0.243117351193  0.149983415617
  CT2A   TL3P     1  0.246716582015  0.168869889039
  CT2A   TM3P     1  0.289417357575  0.168402751521
  CT2A    U3P     1  0.320830446377  0.182184255566
  CT2A    V2P     1  0.267599247968  0.167830039933
  CT2A    V3P     1  0.223989755715  0.147096016316
  CT2A    Y3P     1  0.295190381269  0.170263611896
  CT2A   YB2P     1  0.312616360195  0.189623385225
  CT2A   YB3P     1  0.284659958420  0.167569069413
  CT2A     ZN     1  0.266378716724  0.209200000000
  CT2P   CT2P     1  0.338541512893  0.041840000000
  CT2P   CT2X     1  0.338541512893  0.041840000000
  CT2P    CT3     1  0.338541512893  0.041840000000
  CT2P   CT3X     1  0.338541512893  0.041840000000
  CT2P   CTD1     1  0.338541512893  0.041840000000
  CT2P   CTL1     1  0.338541512893  0.041840000000
  CT2P   CTL2     1  0.338541512893  0.041840000000
  CT2P   CTL3     1  0.338541512893  0.041840000000
  CT2P   CTL5     1  0.338541512893  0.041840000000
  CT2P   CTO1     1  0.338541512893  0.041840000000
  CT2P   CTO2     1  0.338541512893  0.041840000000
  CT2P     CU     1  0.285800308779  0.908997471504
  CT2P   CU1P     1  0.246066225950  0.180057894334
  CT2P   CU2P     1  0.233869822499  0.162315474555
  CT2P     CY     1  0.346559601357  0.113045454929
  CT2P    DUM     1  0.169270756447  0.000000000000
  CT2P   DY3P     1  0.297952167295  0.171135318061
  CT2P   ER3P     1  0.291083338178  0.169232326746
  CT2P   EU2P     1  0.333231756533  0.203602227414
  CT2P   EU3P     1  0.304954631219  0.174528477447
  CT2P     F1     1  0.314487247504  0.153729976257
  CT2P     F2     1  0.314487247504  0.135577095411
  CT2P     F3     1  0.311814551349  0.130309939452
  CT2P     FA     1  0.320723538531  0.144938011577
  CT2P     FE     1  0.227179173126  0.000000000000
  CT2P   FE2P     1  0.265496726993  0.167098295383
  CT2P   FE3P     1  0.219722350855  0.148045032716
  CT2P   FGA1     1  0.314487247504  0.153729976257
  CT2P   FGA2     1  0.314487247504  0.135577095411
  CT2P   FGA3     1  0.311814551349  0.130309939452
  CT2P   FGP1     1  0.311814551349  0.130309939452
  CT2P   FGR1     1  0.320723538531  0.144938011577
  CT2P    FNA     1  0.320723538531  0.144938011577
  CT2P   GA3P     1  0.189485248361  0.145299904804
  CT2P   GD3P     1  0.303351013527  0.173673803114
  CT2P      H     1  0.189271432669  0.089736802707
  CT2P     HA     1  0.286869387241  0.062058748940
  CT2P    HA1     1  0.288651184677  0.088756043175
  CT2P    HA2     1  0.288651184677  0.077149148019
  CT2P    HA3     1  0.288651184677  0.064818249282
  CT2P    HAL     1  0.286869387241  0.062058748940
  CT2P   HAL1     1  0.286869387241  0.062058748940
  CT2P   HAL2     1  0.288651184677  0.070011711020
  CT2P   HAL3     1  0.288651184677  0.064818249282
  CT2P     HB     1  0.286869387241  0.062058748940
  CT2P    HB1     1  0.286869387241  0.062058748940
  CT2P    HB2     1  0.288651184677  0.070011711020
  CT2P    HBL     1  0.286869387241  0.062058748940
  CT2P     HC     1  0.189271432669  0.089736802707
  CT2P   HCA1     1  0.288651184677  0.088756043175
  CT2P  HCA1A     1  0.288651184677  0.088756043175
  CT2P HCA1C2     1  0.288651184677  0.088756043175
  CT2P   HCA2     1  0.288651184677  0.078275472531
  CT2P HCA25A     1  0.285087589805  0.078275472531
  CT2P  HCA2A     1  0.288651184677  0.078275472531
  CT2P HCA2C2     1  0.285087589805  0.078275472531
  CT2P   HCA3     1  0.288651184677  0.064818249282
  CT2P  HCA3A     1  0.288651184677  0.064818249282
  CT2P  HCA3M     1  0.288651184677  0.064818249282
  CT2P    HCL     1  0.189271432669  0.089736802707
  CT2P   HCP1     1  0.189271432669  0.089736802707
  CT2P  HCP1M     1  0.189271432669  0.089736802707
  CT2P   HCR1     1  0.240542653898  0.089736802707
  CT2P     HE     1  0.301123766731  0.061020452073
  CT2P    HE1     1  0.280633096214  0.073666921749
  CT2P    HE2     1  0.281523994932  0.067464972838
  CT2P   HEL1     1  0.280633096214  0.073666921749
  CT2P   HEL2     1  0.281523994932  0.067464972838
  CT2P    HF1     1  0.286869387241  0.070011711020
  CT2P    HF2     1  0.285087589805  0.072469005789
  CT2P   HG2P     1  0.274557166956  0.189623385225
  CT2P   HGA1     1  0.288651184677  0.088756043175
  CT2P   HGA2     1  0.288651184677  0.078275472531
  CT2P   HGA3     1  0.288651184677  0.064818249282
  CT2P   HGA4     1  0.280633096214  0.073666921749
  CT2P   HGA5     1  0.281523994932  0.067464972838
  CT2P   HGA6     1  0.286869387241  0.070011711020
  CT2P   HGA7     1  0.285087589805  0.072469005789
  CT2P HGAAM0     1  0.283305792369  0.070011711020
  CT2P HGAAM1     1  0.283305792369  0.070011711020
  CT2P HGAAM2     1  0.281523994932  0.083680000000
  CT2P   HGP1     1  0.189271432669  0.089736802707
  CT2P   HGP2     1  0.189271432669  0.089736802707
  CT2P   HGP3     1  0.209361198763  0.132309697301
  CT2P   HGP4     1  0.189271432669  0.089736802707
  CT2P   HGP5     1  0.231633666716  0.089736802707
  CT2P HGPAM1     1  0.247224394284  0.039692909190
  CT2P HGPAM2     1  0.247224394284  0.041840000000
  CT2P HGPAM3     1  0.246778944925  0.045833423612
  CT2P  HGR51     1  0.290272620344  0.072469005789
  CT2P  HGR52     1  0.249451641079  0.089736802707
  CT2P  HGR53     1  0.231633666716  0.089736802707
  CT2P  HGR61     1  0.290272620344  0.072469005789
  CT2P  HGR62     1  0.267269615442  0.089736802707
  CT2P  HGR63     1  0.249451641079  0.089736802707
  CT2P  HGR71     1  0.290272620344  0.072469005789
  CT2P     HL     1  0.231633666716  0.089736802707
  CT2P  HLGA1     1  0.288651184677  0.088756043175
  CT2P  HLGA2     1  0.288651184677  0.078275472531
  CT2P  HLGA3     1  0.288651184677  0.064818249282
  CT2P  HLGA4     1  0.280633096214  0.073666921749
  CT2P  HLGP1     1  0.189271432669  0.089736802707
  CT2P HLGR52     1  0.249451641079  0.089736802707
  CT2P HLGR61     1  0.290272620344  0.072469005789
  CT2P HLGR62     1  0.267269615442  0.089736802707
  CT2P    HN1     1  0.189271432669  0.089736802707
  CT2P    HN2     1  0.189271432669  0.089736802707
  CT2P    HN3     1  0.267269615442  0.089736802707
  CT2P   HN3B     1  0.249451641079  0.089736802707
  CT2P    HN4     1  0.189271432669  0.089736802707
  CT2P    HN5     1  0.189271432669  0.089736802707
  CT2P    HN6     1  0.286869387241  0.062058748940
  CT2P    HN7     1  0.286869387241  0.062058748940
  CT2P    HN8     1  0.288651184677  0.070011711020
  CT2P    HN9     1  0.288651184677  0.064818249282
  CT2P   HNE1     1  0.280633096214  0.073666921749
  CT2P   HNE2     1  0.281523994932  0.067464972838
  CT2P    HNP     1  0.290272620344  0.072469005789
  CT2P   HO3P     1  0.293168041178  0.170263611896
  CT2P    HOL     1  0.189271432669  0.089736802707
  CT2P     HP     1  0.290272620344  0.072469005789
  CT2P   HPER     1  0.189271432669  0.089736802707
  CT2P    HR1     1  0.249451641079  0.089736802707
  CT2P    HR2     1  0.231633666716  0.089736802707
  CT2P    HR3     1  0.300054688270  0.036952087465
  CT2P   HRA3     1  0.288651184677  0.064818249282
  CT2P   HRM1     1  0.247224394284  0.039692909190
  CT2P   HRM2     1  0.247224394284  0.041840000000
  CT2P   HRP2     1  0.189271432669  0.089736802707
  CT2P     HS     1  0.209361198763  0.132309697301
  CT2P   HSIA     1  0.286869387241  0.062058748940
  CT2P   HSIO     1  0.189271432669  0.089736802707
  CT2P     HT     1  0.189271432669  0.089736802707
  CT2P     HX     1  0.189271432669  0.089736802707
  CT2P   IGR1     1  0.368832069310  0.301712530731
  CT2P   IN3P     1  0.246449312399  0.160580590010
  CT2P   LA3P     1  0.327200372211  0.182184255566
  CT2P    LIT     1  0.284864865125  0.020196198771
  CT2P    LPH     1  0.169270756447  0.000000000000
  CT2P   LU3P     1  0.289648991242  0.166731218816
  CT2P     MG     1  0.274842254546  0.051243325419
  CT2P   MN2P     1  0.276508235149  0.171747976291
  CT2P   MN3P     1  0.203516903172  0.148045032716
  CT2P      N     1  0.334087019303  0.004184000000
  CT2P     NC     1  0.334087019303  0.324091246411
  CT2P    NC2     1  0.334087019303  0.187114168357
  CT2P  NC2D1     1  0.307360057758  0.187114168357
  CT2P  NC311     1  0.347450500075  0.088756043175
  CT2P   ND3P     1  0.313587439798  0.177117175768
  CT2P     NE     1  0.305578260322  0.122698965603
  CT2P  NG1T1     1  0.328741626994  0.177512086349
  CT2P  NG2D1     1  0.334087019303  0.187114168357
  CT2P  NG2O1     1  0.334087019303  0.187114168357
  CT2P  NG2P1     1  0.334087019303  0.187114168357
  CT2P NG2R43     1  0.334087019303  0.187114168357
  CT2P NG2R50     1  0.334087019303  0.187114168357
  CT2P NG2R51     1  0.334087019303  0.187114168357
  CT2P NG2R52     1  0.334087019303  0.187114168357
  CT2P NG2R53     1  0.334087019303  0.187114168357
  CT2P NG2R57     1  0.334087019303  0.187114168357
  CT2P NG2R60     1  0.337650614175  0.102486650838
  CT2P NG2R61     1  0.334087019303  0.187114168357
  CT2P NG2R62     1  0.352795892384  0.093557084179
  CT2P NG2R67     1  0.334087019303  0.187114168357
  CT2P NG2RC0     1  0.334087019303  0.187114168357
  CT2P  NG2S0     1  0.334087019303  0.004184000000
  CT2P  NG2S1     1  0.307360057758  0.187114168357
  CT2P  NG2S2     1  0.334087019303  0.187114168357
  CT2P  NG2S3     1  0.334087019303  0.187114168357
  CT2P  NG301     1  0.347450500075  0.078275472531
  CT2P  NG311     1  0.347450500075  0.088756043175
  CT2P  NG321     1  0.346559601357  0.102486650838
  CT2P  NG331     1  0.345668702638  0.110698234855
  CT2P NG3C51     1  0.334087019303  0.187114168357
  CT2P  NG3N1     1  0.351904993665  0.102486650838
  CT2P  NG3P0     1  0.334087019303  0.187114168357
  CT2P  NG3P1     1  0.334087019303  0.187114168357
  CT2P  NG3P2     1  0.334087019303  0.187114168357
  CT2P  NG3P3     1  0.334087019303  0.187114168357
  CT2P    NH1     1  0.307360057758  0.187114168357
  CT2P    NH2     1  0.334087019303  0.187114168357
  CT2P    NH3     1  0.334087019303  0.187114168357
  CT2P   NH3L     1  0.334087019303  0.187114168357
  CT2P    NHL     1  0.307360057758  0.187114168357
  CT2P     NI     1  0.282949432881  0.994525446633
  CT2P   NI2P     1  0.238787583423  0.158440517242
  CT2P    NN1     1  0.334087019303  0.187114168357
  CT2P   NN1C     1  0.334087019303  0.187114168357
  CT2P    NN2     1  0.334087019303  0.187114168357
  CT2P   NN2B     1  0.334087019303  0.187114168357
  CT2P   NN2C     1  0.334087019303  0.187114168357
  CT2P   NN2G     1  0.334087019303  0.187114168357
  CT2P   NN2U     1  0.334087019303  0.187114168357
  CT2P    NN3     1  0.334087019303  0.187114168357
  CT2P   NN3A     1  0.334087019303  0.187114168357
  CT2P   NN3G     1  0.334087019303  0.187114168357
  CT2P   NN3I     1  0.334087019303  0.187114168357
  CT2P    NN4     1  0.334087019303  0.187114168357
  CT2P    NN6     1  0.334087019303  0.187114168357
  CT2P    NNG     1  0.334087019303  0.187114168357
  CT2P     NP     1  0.334087019303  0.187114168357
  CT2P    NPH     1  0.334087019303  0.187114168357
  CT2P    NR1     1  0.334087019303  0.187114168357
  CT2P    NR2     1  0.334087019303  0.187114168357
  CT2P    NR3     1  0.334087019303  0.187114168357
  CT2P   NRC4     1  0.334087019303  0.187114168357
  CT2P   NRN1     1  0.347450500075  0.280671252536
  CT2P   NRN2     1  0.346559601357  0.102486650838
  CT2P    NS1     1  0.334087019303  0.187114168357
  CT2P    NS2     1  0.334087019303  0.187114168357
  CT2P    NTL     1  0.334087019303  0.187114168357
  CT2P     NY     1  0.334087019303  0.187114168357
  CT2P      O     1  0.293996576986  0.144938011577
  CT2P    O2L     1  0.320723538531  0.144938011577
  CT2P    OAL     1  0.326959829558  0.163176000000
  CT2P     OB     1  0.293996576986  0.144938011577
  CT2P    OBL     1  0.293996576986  0.144938011577
  CT2P     OC     1  0.320723538531  0.144938011577
  CT2P  OC2D1     1  0.293996576986  0.144938011577
  CT2P  OC2D2     1  0.320723538531  0.144938011577
  CT2P  OC2D3     1  0.293996576986  0.144938011577
  CT2P  OC2D4     1  0.293996576986  0.144938011577
  CT2P  OC2DP     1  0.320723538531  0.144938011577
  CT2P  OC301     1  0.316269044940  0.132309697301
  CT2P  OC302     1  0.316269044940  0.132309697301
  CT2P  OC303     1  0.316269044940  0.132309697301
  CT2P OC305A     1  0.316269044940  0.132309697301
  CT2P  OC30A     1  0.316269044940  0.132309697301
  CT2P  OC30P     1  0.326959829558  0.163176000000
  CT2P  OC311     1  0.326514380198  0.183381431383
  CT2P OC311M     1  0.326514380198  0.183381431383
  CT2P  OC312     1  0.326959829558  0.163176000000
  CT2P OC3C51     1  0.316269044940  0.132309697301
  CT2P OC3C5M     1  0.316269044940  0.132309697301
  CT2P OC3C61     1  0.316269044940  0.132309697301
  CT2P    OCA     1  0.293996576986  0.144938011577
  CT2P    OCL     1  0.320723538531  0.144938011577
  CT2P  OG2D1     1  0.293996576986  0.144938011577
  CT2P  OG2D2     1  0.320723538531  0.144938011577
  CT2P  OG2D3     1  0.293996576986  0.144938011577
  CT2P  OG2D4     1  0.320723538531  0.144938011577
  CT2P  OG2D5     1  0.320010819556  0.169954883425
  CT2P  OG2N1     1  0.320723538531  0.144938011577
  CT2P  OG2P1     1  0.320723538531  0.144938011577
  CT2P OG2R50     1  0.320723538531  0.144938011577
  CT2P  OG2S1     1  0.318906105146  0.157831660601
  CT2P  OG301     1  0.316269044940  0.132309697301
  CT2P  OG302     1  0.316269044940  0.132309697301
  CT2P  OG303     1  0.316269044940  0.132309697301
  CT2P  OG304     1  0.316269044940  0.132309697301
  CT2P  OG311     1  0.326514380198  0.183381431383
  CT2P  OG312     1  0.325178032121  0.144938011577
  CT2P OG3C31     1  0.316269044940  0.132309697301
  CT2P OG3C51     1  0.316269044940  0.132309697301
  CT2P OG3C61     1  0.316269044940  0.132309697301
  CT2P OG3R60     1  0.316269044940  0.132309697301
  CT2P    OH1     1  0.326959829558  0.163176000000
  CT2P    OHL     1  0.326959829558  0.163176000000
  CT2P   OLG1     1  0.293996576986  0.144938011577
  CT2P   OLG2     1  0.320723538531  0.144938011577
  CT2P   OLG3     1  0.320723538531  0.144938011577
  CT2P   OLG4     1  0.316269044940  0.132309697301
  CT2P   OLG5     1  0.316269044940  0.132309697301
  CT2P   OLG6     1  0.326514380198  0.183381431383
  CT2P   OLG7     1  0.316269044940  0.132309697301
  CT2P   OLG8     1  0.316269044940  0.132309697301
  CT2P     OM     1  0.320723538531  0.144938011577
  CT2P    ON1     1  0.320723538531  0.144938011577
  CT2P   ON1C     1  0.320723538531  0.144938011577
  CT2P    ON2     1  0.326959829558  0.163176000000
  CT2P   ON2B     1  0.326959829558  0.163176000000
  CT2P   ON2M     1  0.316269044940  0.132309697301
  CT2P    ON3     1  0.320723538531  0.144938011577
  CT2P    ON4     1  0.326959829558  0.163176000000
  CT2P    ON5     1  0.326959829558  0.163176000000
  CT2P    ON6     1  0.326959829558  0.163176000000
  CT2P   ON6B     1  0.326959829558  0.163176000000
  CT2P   OPER     1  0.318427692534  0.188901923946
  CT2P     OS     1  0.326959829558  0.163176000000
  CT2P   OSIA     1  0.326959829558  0.163176000000
  CT2P   OSIE     1  0.326959829558  0.163176000000
  CT2P   OSIH     1  0.326959829558  0.163176000000
  CT2P    OSL     1  0.316269044940  0.132309697301
  CT2P   OSLP     1  0.316269044940  0.132309697301
  CT2P    OST     1  0.320010819556  0.169954883425
  CT2P     OT     1  0.326799467788  0.163176000000
  CT2P     OX     1  0.320723538531  0.144938011577
  CT2P      P     1  0.360813980847  0.320014464673
  CT2P     P2     1  0.360813980847  0.320014464673
  CT2P     P3     1  0.360813980847  0.320014464673
  CT2P     P4     1  0.360813980847  0.320014464673
  CT2P     PB     1  0.328073452955  0.716185437439
  CT2P   PB2P     1  0.325890751096  0.204716924713
  CT2P     PC     1  0.360813980847  0.320014464673
  CT2P     PD     1  0.294842930769  1.037598257516
  CT2P   PD2P     1  0.251865976605  0.174628752363
  CT2P    PG0     1  0.360813980847  0.320014464673
  CT2P    PG1     1  0.360813980847  0.320014464673
  CT2P    PG2     1  0.360813980847  0.320014464673
  CT2P     PL     1  0.360813980847  0.320014464673
  CT2P   PM3P     1  0.316910492017  0.176275053255
  CT2P    POT     1  0.326403017859  0.123410269913
  CT2P   PR3P     1  0.317079762773  0.178642591472
  CT2P     PT     1  0.296001099102  1.168527606863
  CT2P   PT2P     1  0.240284293270  0.168973521997
  CT2P   PU3P     1  0.318024115415  0.179522368790
  CT2P   RA2P     1  0.355459679551  0.229891668540
  CT2P   RH3P     1  0.210367914314  0.149983415617
  CT2P    RUB     1  0.338541512893  0.162045623205
  CT2P      S     1  0.347450500075  0.280671252536
  CT2P     SC     1  0.356359487256  0.286840588481
  CT2P   SC3P     1  0.266993436839  0.157109060719
  CT2P  SEGD1     1  0.363041227642  0.330244580395
  CT2P  SG2D1     1  0.351904993665  0.314496560236
  CT2P  SG2P1     1  0.355798221064  0.332305491450
  CT2P  SG2P2     1  0.352314807076  0.329421919951
  CT2P SG2R50     1  0.347450500075  0.280671252536
  CT2P  SG301     1  0.345223253279  0.257919081884
  CT2P  SG302     1  0.365268474438  0.286840588481
  CT2P  SG311     1  0.347450500075  0.280671252536
  CT2P  SG3O1     1  0.356359487256  0.286840588481
  CT2P  SG3O2     1  0.347450500075  0.247528778125
  CT2P  SG3O3     1  0.347450500075  0.247528778125
  CT2P     SI     1  0.365268474438  0.324091246411
  CT2P   SIH3     1  0.365268474438  0.324091246411
  CT2P     SL     1  0.356359487256  0.286840588481
  CT2P     SM     1  0.345223253279  0.257919081884
  CT2P   SM2P     1  0.334666103469  0.207012887251
  CT2P   SM3P     1  0.308847858618  0.175378986746
  CT2P   SN2P     1  0.316981763914  0.181365662197
  CT2P    SOD     1  0.294954293108  0.090610410351
  CT2P     SP     1  0.365268474438  0.280671252536
  CT2P   SR2P     1  0.334612649546  0.200133451797
  CT2P     SS     1  0.365268474438  0.286840588481
  CT2P   TB3P     1  0.300678317372  0.172155203837
  CT2P   TI1P     1  0.341276571958  0.266826378666
  CT2P   TI3P     1  0.243117351193  0.149983415617
  CT2P   TL3P     1  0.246716582015  0.168869889039
  CT2P   TM3P     1  0.289417357575  0.168402751521
  CT2P    U3P     1  0.320830446377  0.182184255566
  CT2P    V2P     1  0.267599247968  0.167830039933
  CT2P    V3P     1  0.223989755715  0.147096016316
  CT2P    Y3P     1  0.295190381269  0.170263611896
  CT2P   YB2P     1  0.312616360195  0.189623385225
  CT2P   YB3P     1  0.284659958420  0.167569069413
  CT2P     ZN     1  0.266378716724  0.209200000000
  CT2X   CT2X     1  0.338541512893  0.041840000000
  CT2X    CT3     1  0.338541512893  0.041840000000
  CT2X   CT3X     1  0.338541512893  0.041840000000
  CT2X   CTD1     1  0.338541512893  0.041840000000
  CT2X   CTL1     1  0.338541512893  0.041840000000
  CT2X   CTL2     1  0.338541512893  0.041840000000
  CT2X   CTL3     1  0.338541512893  0.041840000000
  CT2X   CTL5     1  0.338541512893  0.041840000000
  CT2X   CTO1     1  0.338541512893  0.041840000000
  CT2X   CTO2     1  0.338541512893  0.041840000000
  CT2X     CU     1  0.285800308779  0.908997471504
  CT2X   CU1P     1  0.246066225950  0.180057894334
  CT2X   CU2P     1  0.233869822499  0.162315474555
  CT2X     CY     1  0.346559601357  0.113045454929
  CT2X    DUM     1  0.169270756447  0.000000000000
  CT2X   DY3P     1  0.297952167295  0.171135318061
  CT2X   ER3P     1  0.291083338178  0.169232326746
  CT2X   EU2P     1  0.333231756533  0.203602227414
  CT2X   EU3P     1  0.304954631219  0.174528477447
  CT2X     F1     1  0.314487247504  0.153729976257
  CT2X     F2     1  0.314487247504  0.135577095411
  CT2X     F3     1  0.311814551349  0.130309939452
  CT2X     FA     1  0.320723538531  0.144938011577
  CT2X     FE     1  0.227179173126  0.000000000000
  CT2X   FE2P     1  0.265496726993  0.167098295383
  CT2X   FE3P     1  0.219722350855  0.148045032716
  CT2X   FGA1     1  0.314487247504  0.153729976257
  CT2X   FGA2     1  0.314487247504  0.135577095411
  CT2X   FGA3     1  0.311814551349  0.130309939452
  CT2X   FGP1     1  0.311814551349  0.130309939452
  CT2X   FGR1     1  0.320723538531  0.144938011577
  CT2X    FNA     1  0.320723538531  0.144938011577
  CT2X   GA3P     1  0.189485248361  0.145299904804
  CT2X   GD3P     1  0.303351013527  0.173673803114
  CT2X      H     1  0.189271432669  0.089736802707
  CT2X     HA     1  0.286869387241  0.062058748940
  CT2X    HA1     1  0.288651184677  0.088756043175
  CT2X    HA2     1  0.288651184677  0.077149148019
  CT2X    HA3     1  0.288651184677  0.064818249282
  CT2X    HAL     1  0.286869387241  0.062058748940
  CT2X   HAL1     1  0.286869387241  0.062058748940
  CT2X   HAL2     1  0.288651184677  0.070011711020
  CT2X   HAL3     1  0.288651184677  0.064818249282
  CT2X     HB     1  0.286869387241  0.062058748940
  CT2X    HB1     1  0.286869387241  0.062058748940
  CT2X    HB2     1  0.288651184677  0.070011711020
  CT2X    HBL     1  0.286869387241  0.062058748940
  CT2X     HC     1  0.189271432669  0.089736802707
  CT2X   HCA1     1  0.288651184677  0.088756043175
  CT2X  HCA1A     1  0.288651184677  0.088756043175
  CT2X HCA1C2     1  0.288651184677  0.088756043175
  CT2X   HCA2     1  0.288651184677  0.078275472531
  CT2X HCA25A     1  0.285087589805  0.078275472531
  CT2X  HCA2A     1  0.288651184677  0.078275472531
  CT2X HCA2C2     1  0.285087589805  0.078275472531
  CT2X   HCA3     1  0.288651184677  0.064818249282
  CT2X  HCA3A     1  0.288651184677  0.064818249282
  CT2X  HCA3M     1  0.288651184677  0.064818249282
  CT2X    HCL     1  0.189271432669  0.089736802707
  CT2X   HCP1     1  0.189271432669  0.089736802707
  CT2X  HCP1M     1  0.189271432669  0.089736802707
  CT2X   HCR1     1  0.240542653898  0.089736802707
  CT2X     HE     1  0.301123766731  0.061020452073
  CT2X    HE1     1  0.280633096214  0.073666921749
  CT2X    HE2     1  0.281523994932  0.067464972838
  CT2X   HEL1     1  0.280633096214  0.073666921749
  CT2X   HEL2     1  0.281523994932  0.067464972838
  CT2X    HF1     1  0.286869387241  0.070011711020
  CT2X    HF2     1  0.285087589805  0.072469005789
  CT2X   HG2P     1  0.274557166956  0.189623385225
  CT2X   HGA1     1  0.288651184677  0.088756043175
  CT2X   HGA2     1  0.288651184677  0.078275472531
  CT2X   HGA3     1  0.288651184677  0.064818249282
  CT2X   HGA4     1  0.280633096214  0.073666921749
  CT2X   HGA5     1  0.281523994932  0.067464972838
  CT2X   HGA6     1  0.286869387241  0.070011711020
  CT2X   HGA7     1  0.285087589805  0.072469005789
  CT2X HGAAM0     1  0.283305792369  0.070011711020
  CT2X HGAAM1     1  0.283305792369  0.070011711020
  CT2X HGAAM2     1  0.281523994932  0.083680000000
  CT2X   HGP1     1  0.189271432669  0.089736802707
  CT2X   HGP2     1  0.189271432669  0.089736802707
  CT2X   HGP3     1  0.209361198763  0.132309697301
  CT2X   HGP4     1  0.189271432669  0.089736802707
  CT2X   HGP5     1  0.231633666716  0.089736802707
  CT2X HGPAM1     1  0.247224394284  0.039692909190
  CT2X HGPAM2     1  0.247224394284  0.041840000000
  CT2X HGPAM3     1  0.246778944925  0.045833423612
  CT2X  HGR51     1  0.290272620344  0.072469005789
  CT2X  HGR52     1  0.249451641079  0.089736802707
  CT2X  HGR53     1  0.231633666716  0.089736802707
  CT2X  HGR61     1  0.290272620344  0.072469005789
  CT2X  HGR62     1  0.267269615442  0.089736802707
  CT2X  HGR63     1  0.249451641079  0.089736802707
  CT2X  HGR71     1  0.290272620344  0.072469005789
  CT2X     HL     1  0.231633666716  0.089736802707
  CT2X  HLGA1     1  0.288651184677  0.088756043175
  CT2X  HLGA2     1  0.288651184677  0.078275472531
  CT2X  HLGA3     1  0.288651184677  0.064818249282
  CT2X  HLGA4     1  0.280633096214  0.073666921749
  CT2X  HLGP1     1  0.189271432669  0.089736802707
  CT2X HLGR52     1  0.249451641079  0.089736802707
  CT2X HLGR61     1  0.290272620344  0.072469005789
  CT2X HLGR62     1  0.267269615442  0.089736802707
  CT2X    HN1     1  0.189271432669  0.089736802707
  CT2X    HN2     1  0.189271432669  0.089736802707
  CT2X    HN3     1  0.267269615442  0.089736802707
  CT2X   HN3B     1  0.249451641079  0.089736802707
  CT2X    HN4     1  0.189271432669  0.089736802707
  CT2X    HN5     1  0.189271432669  0.089736802707
  CT2X    HN6     1  0.286869387241  0.062058748940
  CT2X    HN7     1  0.286869387241  0.062058748940
  CT2X    HN8     1  0.288651184677  0.070011711020
  CT2X    HN9     1  0.288651184677  0.064818249282
  CT2X   HNE1     1  0.280633096214  0.073666921749
  CT2X   HNE2     1  0.281523994932  0.067464972838
  CT2X    HNP     1  0.290272620344  0.072469005789
  CT2X   HO3P     1  0.293168041178  0.170263611896
  CT2X    HOL     1  0.189271432669  0.089736802707
  CT2X     HP     1  0.290272620344  0.072469005789
  CT2X   HPER     1  0.189271432669  0.089736802707
  CT2X    HR1     1  0.249451641079  0.089736802707
  CT2X    HR2     1  0.231633666716  0.089736802707
  CT2X    HR3     1  0.300054688270  0.036952087465
  CT2X   HRA3     1  0.288651184677  0.064818249282
  CT2X   HRM1     1  0.247224394284  0.039692909190
  CT2X   HRM2     1  0.247224394284  0.041840000000
  CT2X   HRP2     1  0.189271432669  0.089736802707
  CT2X     HS     1  0.209361198763  0.132309697301
  CT2X   HSIA     1  0.286869387241  0.062058748940
  CT2X   HSIO     1  0.189271432669  0.089736802707
  CT2X     HT     1  0.189271432669  0.089736802707
  CT2X     HX     1  0.189271432669  0.089736802707
  CT2X   IGR1     1  0.368832069310  0.301712530731
  CT2X   IN3P     1  0.246449312399  0.160580590010
  CT2X   LA3P     1  0.327200372211  0.182184255566
  CT2X    LIT     1  0.284864865125  0.020196198771
  CT2X    LPH     1  0.169270756447  0.000000000000
  CT2X   LU3P     1  0.289648991242  0.166731218816
  CT2X     MG     1  0.274842254546  0.051243325419
  CT2X   MN2P     1  0.276508235149  0.171747976291
  CT2X   MN3P     1  0.203516903172  0.148045032716
  CT2X      N     1  0.334087019303  0.004184000000
  CT2X     NC     1  0.334087019303  0.324091246411
  CT2X    NC2     1  0.334087019303  0.187114168357
  CT2X  NC2D1     1  0.307360057758  0.187114168357
  CT2X  NC311     1  0.347450500075  0.088756043175
  CT2X   ND3P     1  0.313587439798  0.177117175768
  CT2X     NE     1  0.305578260322  0.122698965603
  CT2X  NG1T1     1  0.328741626994  0.177512086349
  CT2X  NG2D1     1  0.334087019303  0.187114168357
  CT2X  NG2O1     1  0.334087019303  0.187114168357
  CT2X  NG2P1     1  0.334087019303  0.187114168357
  CT2X NG2R43     1  0.334087019303  0.187114168357
  CT2X NG2R50     1  0.334087019303  0.187114168357
  CT2X NG2R51     1  0.334087019303  0.187114168357
  CT2X NG2R52     1  0.334087019303  0.187114168357
  CT2X NG2R53     1  0.334087019303  0.187114168357
  CT2X NG2R57     1  0.334087019303  0.187114168357
  CT2X NG2R60     1  0.337650614175  0.102486650838
  CT2X NG2R61     1  0.334087019303  0.187114168357
  CT2X NG2R62     1  0.352795892384  0.093557084179
  CT2X NG2R67     1  0.334087019303  0.187114168357
  CT2X NG2RC0     1  0.334087019303  0.187114168357
  CT2X  NG2S0     1  0.334087019303  0.004184000000
  CT2X  NG2S1     1  0.307360057758  0.187114168357
  CT2X  NG2S2     1  0.334087019303  0.187114168357
  CT2X  NG2S3     1  0.334087019303  0.187114168357
  CT2X  NG301     1  0.347450500075  0.078275472531
  CT2X  NG311     1  0.347450500075  0.088756043175
  CT2X  NG321     1  0.346559601357  0.102486650838
  CT2X  NG331     1  0.345668702638  0.110698234855
  CT2X NG3C51     1  0.334087019303  0.187114168357
  CT2X  NG3N1     1  0.351904993665  0.102486650838
  CT2X  NG3P0     1  0.334087019303  0.187114168357
  CT2X  NG3P1     1  0.334087019303  0.187114168357
  CT2X  NG3P2     1  0.334087019303  0.187114168357
  CT2X  NG3P3     1  0.334087019303  0.187114168357
  CT2X    NH1     1  0.307360057758  0.187114168357
  CT2X    NH2     1  0.334087019303  0.187114168357
  CT2X    NH3     1  0.334087019303  0.187114168357
  CT2X   NH3L     1  0.334087019303  0.187114168357
  CT2X    NHL     1  0.307360057758  0.187114168357
  CT2X     NI     1  0.282949432881  0.994525446633
  CT2X   NI2P     1  0.238787583423  0.158440517242
  CT2X    NN1     1  0.334087019303  0.187114168357
  CT2X   NN1C     1  0.334087019303  0.187114168357
  CT2X    NN2     1  0.334087019303  0.187114168357
  CT2X   NN2B     1  0.334087019303  0.187114168357
  CT2X   NN2C     1  0.334087019303  0.187114168357
  CT2X   NN2G     1  0.334087019303  0.187114168357
  CT2X   NN2U     1  0.334087019303  0.187114168357
  CT2X    NN3     1  0.334087019303  0.187114168357
  CT2X   NN3A     1  0.334087019303  0.187114168357
  CT2X   NN3G     1  0.334087019303  0.187114168357
  CT2X   NN3I     1  0.334087019303  0.187114168357
  CT2X    NN4     1  0.334087019303  0.187114168357
  CT2X    NN6     1  0.334087019303  0.187114168357
  CT2X    NNG     1  0.334087019303  0.187114168357
  CT2X     NP     1  0.334087019303  0.187114168357
  CT2X    NPH     1  0.334087019303  0.187114168357
  CT2X    NR1     1  0.334087019303  0.187114168357
  CT2X    NR2     1  0.334087019303  0.187114168357
  CT2X    NR3     1  0.334087019303  0.187114168357
  CT2X   NRC4     1  0.334087019303  0.187114168357
  CT2X   NRN1     1  0.347450500075  0.280671252536
  CT2X   NRN2     1  0.346559601357  0.102486650838
  CT2X    NS1     1  0.334087019303  0.187114168357
  CT2X    NS2     1  0.334087019303  0.187114168357
  CT2X    NTL     1  0.334087019303  0.187114168357
  CT2X     NY     1  0.334087019303  0.187114168357
  CT2X      O     1  0.293996576986  0.144938011577
  CT2X    O2L     1  0.320723538531  0.144938011577
  CT2X    OAL     1  0.326959829558  0.163176000000
  CT2X     OB     1  0.293996576986  0.144938011577
  CT2X    OBL     1  0.293996576986  0.144938011577
  CT2X     OC     1  0.320723538531  0.144938011577
  CT2X  OC2D1     1  0.293996576986  0.144938011577
  CT2X  OC2D2     1  0.320723538531  0.144938011577
  CT2X  OC2D3     1  0.293996576986  0.144938011577
  CT2X  OC2D4     1  0.293996576986  0.144938011577
  CT2X  OC2DP     1  0.320723538531  0.144938011577
  CT2X  OC301     1  0.316269044940  0.132309697301
  CT2X  OC302     1  0.316269044940  0.132309697301
  CT2X  OC303     1  0.316269044940  0.132309697301
  CT2X OC305A     1  0.316269044940  0.132309697301
  CT2X  OC30A     1  0.316269044940  0.132309697301
  CT2X  OC30P     1  0.326959829558  0.163176000000
  CT2X  OC311     1  0.326514380198  0.183381431383
  CT2X OC311M     1  0.326514380198  0.183381431383
  CT2X  OC312     1  0.326959829558  0.163176000000
  CT2X OC3C51     1  0.316269044940  0.132309697301
  CT2X OC3C5M     1  0.316269044940  0.132309697301
  CT2X OC3C61     1  0.316269044940  0.132309697301
  CT2X    OCA     1  0.293996576986  0.144938011577
  CT2X    OCL     1  0.320723538531  0.144938011577
  CT2X  OG2D1     1  0.293996576986  0.144938011577
  CT2X  OG2D2     1  0.320723538531  0.144938011577
  CT2X  OG2D3     1  0.293996576986  0.144938011577
  CT2X  OG2D4     1  0.320723538531  0.144938011577
  CT2X  OG2D5     1  0.320010819556  0.169954883425
  CT2X  OG2N1     1  0.320723538531  0.144938011577
  CT2X  OG2P1     1  0.320723538531  0.144938011577
  CT2X OG2R50     1  0.320723538531  0.144938011577
  CT2X  OG2S1     1  0.318906105146  0.157831660601
  CT2X  OG301     1  0.316269044940  0.132309697301
  CT2X  OG302     1  0.316269044940  0.132309697301
  CT2X  OG303     1  0.316269044940  0.132309697301
  CT2X  OG304     1  0.316269044940  0.132309697301
  CT2X  OG311     1  0.326514380198  0.183381431383
  CT2X  OG312     1  0.325178032121  0.144938011577
  CT2X OG3C31     1  0.316269044940  0.132309697301
  CT2X OG3C51     1  0.316269044940  0.132309697301
  CT2X OG3C61     1  0.316269044940  0.132309697301
  CT2X OG3R60     1  0.316269044940  0.132309697301
  CT2X    OH1     1  0.326959829558  0.163176000000
  CT2X    OHL     1  0.326959829558  0.163176000000
  CT2X   OLG1     1  0.293996576986  0.144938011577
  CT2X   OLG2     1  0.320723538531  0.144938011577
  CT2X   OLG3     1  0.320723538531  0.144938011577
  CT2X   OLG4     1  0.316269044940  0.132309697301
  CT2X   OLG5     1  0.316269044940  0.132309697301
  CT2X   OLG6     1  0.326514380198  0.183381431383
  CT2X   OLG7     1  0.316269044940  0.132309697301
  CT2X   OLG8     1  0.316269044940  0.132309697301
  CT2X     OM     1  0.320723538531  0.144938011577
  CT2X    ON1     1  0.320723538531  0.144938011577
  CT2X   ON1C     1  0.320723538531  0.144938011577
  CT2X    ON2     1  0.326959829558  0.163176000000
  CT2X   ON2B     1  0.326959829558  0.163176000000
  CT2X   ON2M     1  0.316269044940  0.132309697301
  CT2X    ON3     1  0.320723538531  0.144938011577
  CT2X    ON4     1  0.326959829558  0.163176000000
  CT2X    ON5     1  0.326959829558  0.163176000000
  CT2X    ON6     1  0.326959829558  0.163176000000
  CT2X   ON6B     1  0.326959829558  0.163176000000
  CT2X   OPER     1  0.318427692534  0.188901923946
  CT2X     OS     1  0.326959829558  0.163176000000
  CT2X   OSIA     1  0.326959829558  0.163176000000
  CT2X   OSIE     1  0.326959829558  0.163176000000
  CT2X   OSIH     1  0.326959829558  0.163176000000
  CT2X    OSL     1  0.316269044940  0.132309697301
  CT2X   OSLP     1  0.316269044940  0.132309697301
  CT2X    OST     1  0.320010819556  0.169954883425
  CT2X     OT     1  0.326799467788  0.163176000000
  CT2X     OX     1  0.320723538531  0.144938011577
  CT2X      P     1  0.360813980847  0.320014464673
  CT2X     P2     1  0.360813980847  0.320014464673
  CT2X     P3     1  0.360813980847  0.320014464673
  CT2X     P4     1  0.360813980847  0.320014464673
  CT2X     PB     1  0.328073452955  0.716185437439
  CT2X   PB2P     1  0.325890751096  0.204716924713
  CT2X     PC     1  0.360813980847  0.320014464673
  CT2X     PD     1  0.294842930769  1.037598257516
  CT2X   PD2P     1  0.251865976605  0.174628752363
  CT2X    PG0     1  0.360813980847  0.320014464673
  CT2X    PG1     1  0.360813980847  0.320014464673
  CT2X    PG2     1  0.360813980847  0.320014464673
  CT2X     PL     1  0.360813980847  0.320014464673
  CT2X   PM3P     1  0.316910492017  0.176275053255
  CT2X    POT     1  0.326403017859  0.123410269913
  CT2X   PR3P     1  0.317079762773  0.178642591472
  CT2X     PT     1  0.296001099102  1.168527606863
  CT2X   PT2P     1  0.240284293270  0.168973521997
  CT2X   PU3P     1  0.318024115415  0.179522368790
  CT2X   RA2P     1  0.355459679551  0.229891668540
  CT2X   RH3P     1  0.210367914314  0.149983415617
  CT2X    RUB     1  0.338541512893  0.162045623205
  CT2X      S     1  0.347450500075  0.280671252536
  CT2X     SC     1  0.356359487256  0.286840588481
  CT2X   SC3P     1  0.266993436839  0.157109060719
  CT2X  SEGD1     1  0.363041227642  0.330244580395
  CT2X  SG2D1     1  0.351904993665  0.314496560236
  CT2X  SG2P1     1  0.355798221064  0.332305491450
  CT2X  SG2P2     1  0.352314807076  0.329421919951
  CT2X SG2R50     1  0.347450500075  0.280671252536
  CT2X  SG301     1  0.345223253279  0.257919081884
  CT2X  SG302     1  0.365268474438  0.286840588481
  CT2X  SG311     1  0.347450500075  0.280671252536
  CT2X  SG3O1     1  0.356359487256  0.286840588481
  CT2X  SG3O2     1  0.347450500075  0.247528778125
  CT2X  SG3O3     1  0.347450500075  0.247528778125
  CT2X     SI     1  0.365268474438  0.324091246411
  CT2X   SIH3     1  0.365268474438  0.324091246411
  CT2X     SL     1  0.356359487256  0.286840588481
  CT2X     SM     1  0.345223253279  0.257919081884
  CT2X   SM2P     1  0.334666103469  0.207012887251
  CT2X   SM3P     1  0.308847858618  0.175378986746
  CT2X   SN2P     1  0.316981763914  0.181365662197
  CT2X    SOD     1  0.294954293108  0.090610410351
  CT2X     SP     1  0.365268474438  0.280671252536
  CT2X   SR2P     1  0.334612649546  0.200133451797
  CT2X     SS     1  0.365268474438  0.286840588481
  CT2X   TB3P     1  0.300678317372  0.172155203837
  CT2X   TI1P     1  0.341276571958  0.266826378666
  CT2X   TI3P     1  0.243117351193  0.149983415617
  CT2X   TL3P     1  0.246716582015  0.168869889039
  CT2X   TM3P     1  0.289417357575  0.168402751521
  CT2X    U3P     1  0.320830446377  0.182184255566
  CT2X    V2P     1  0.267599247968  0.167830039933
  CT2X    V3P     1  0.223989755715  0.147096016316
  CT2X    Y3P     1  0.295190381269  0.170263611896
  CT2X   YB2P     1  0.312616360195  0.189623385225
  CT2X   YB3P     1  0.284659958420  0.167569069413
  CT2X     ZN     1  0.266378716724  0.209200000000
   CT3    CT3     1  0.338541512893  0.041840000000
   CT3   CT3X     1  0.338541512893  0.041840000000
   CT3   CTD1     1  0.338541512893  0.041840000000
   CT3   CTL1     1  0.338541512893  0.041840000000
   CT3   CTL2     1  0.338541512893  0.041840000000
   CT3   CTL3     1  0.338541512893  0.041840000000
   CT3   CTL5     1  0.338541512893  0.041840000000
   CT3   CTO1     1  0.338541512893  0.041840000000
   CT3   CTO2     1  0.338541512893  0.041840000000
   CT3     CU     1  0.285800308779  0.908997471504
   CT3   CU1P     1  0.246066225950  0.180057894334
   CT3   CU2P     1  0.233869822499  0.162315474555
   CT3     CY     1  0.346559601357  0.113045454929
   CT3    DUM     1  0.169270756447  0.000000000000
   CT3   DY3P     1  0.297952167295  0.171135318061
   CT3   ER3P     1  0.291083338178  0.169232326746
   CT3   EU2P     1  0.333231756533  0.203602227414
   CT3   EU3P     1  0.304954631219  0.174528477447
   CT3     F1     1  0.314487247504  0.153729976257
   CT3     F2     1  0.314487247504  0.135577095411
   CT3     F3     1  0.311814551349  0.130309939452
   CT3     FA     1  0.320723538531  0.144938011577
   CT3     FE     1  0.227179173126  0.000000000000
   CT3   FE2P     1  0.265496726993  0.167098295383
   CT3   FE3P     1  0.219722350855  0.148045032716
   CT3   FGA1     1  0.314487247504  0.153729976257
   CT3   FGA2     1  0.314487247504  0.135577095411
   CT3   FGA3     1  0.311814551349  0.130309939452
   CT3   FGP1     1  0.311814551349  0.130309939452
   CT3   FGR1     1  0.320723538531  0.144938011577
   CT3    FNA     1  0.320723538531  0.144938011577
   CT3   GA3P     1  0.189485248361  0.145299904804
   CT3   GD3P     1  0.303351013527  0.173673803114
   CT3      H     1  0.189271432669  0.089736802707
   CT3     HA     1  0.286869387241  0.062058748940
   CT3    HA1     1  0.288651184677  0.088756043175
   CT3    HA2     1  0.288651184677  0.077149148019
   CT3    HA3     1  0.288651184677  0.064818249282
   CT3    HAL     1  0.286869387241  0.062058748940
   CT3   HAL1     1  0.286869387241  0.062058748940
   CT3   HAL2     1  0.288651184677  0.070011711020
   CT3   HAL3     1  0.288651184677  0.064818249282
   CT3     HB     1  0.286869387241  0.062058748940
   CT3    HB1     1  0.286869387241  0.062058748940
   CT3    HB2     1  0.288651184677  0.070011711020
   CT3    HBL     1  0.286869387241  0.062058748940
   CT3     HC     1  0.189271432669  0.089736802707
   CT3   HCA1     1  0.288651184677  0.088756043175
   CT3  HCA1A     1  0.288651184677  0.088756043175
   CT3 HCA1C2     1  0.288651184677  0.088756043175
   CT3   HCA2     1  0.288651184677  0.078275472531
   CT3 HCA25A     1  0.285087589805  0.078275472531
   CT3  HCA2A     1  0.288651184677  0.078275472531
   CT3 HCA2C2     1  0.285087589805  0.078275472531
   CT3   HCA3     1  0.288651184677  0.064818249282
   CT3  HCA3A     1  0.288651184677  0.064818249282
   CT3  HCA3M     1  0.288651184677  0.064818249282
   CT3    HCL     1  0.189271432669  0.089736802707
   CT3   HCP1     1  0.189271432669  0.089736802707
   CT3  HCP1M     1  0.189271432669  0.089736802707
   CT3   HCR1     1  0.240542653898  0.089736802707
   CT3     HE     1  0.301123766731  0.061020452073
   CT3    HE1     1  0.280633096214  0.073666921749
   CT3    HE2     1  0.281523994932  0.067464972838
   CT3   HEL1     1  0.280633096214  0.073666921749
   CT3   HEL2     1  0.281523994932  0.067464972838
   CT3    HF1     1  0.286869387241  0.070011711020
   CT3    HF2     1  0.285087589805  0.072469005789
   CT3   HG2P     1  0.274557166956  0.189623385225
   CT3   HGA1     1  0.288651184677  0.088756043175
   CT3   HGA2     1  0.288651184677  0.078275472531
   CT3   HGA3     1  0.288651184677  0.064818249282
   CT3   HGA4     1  0.280633096214  0.073666921749
   CT3   HGA5     1  0.281523994932  0.067464972838
   CT3   HGA6     1  0.286869387241  0.070011711020
   CT3   HGA7     1  0.285087589805  0.072469005789
   CT3 HGAAM0     1  0.283305792369  0.070011711020
   CT3 HGAAM1     1  0.283305792369  0.070011711020
   CT3 HGAAM2     1  0.281523994932  0.083680000000
   CT3   HGP1     1  0.189271432669  0.089736802707
   CT3   HGP2     1  0.189271432669  0.089736802707
   CT3   HGP3     1  0.209361198763  0.132309697301
   CT3   HGP4     1  0.189271432669  0.089736802707
   CT3   HGP5     1  0.231633666716  0.089736802707
   CT3 HGPAM1     1  0.247224394284  0.039692909190
   CT3 HGPAM2     1  0.247224394284  0.041840000000
   CT3 HGPAM3     1  0.246778944925  0.045833423612
   CT3  HGR51     1  0.290272620344  0.072469005789
   CT3  HGR52     1  0.249451641079  0.089736802707
   CT3  HGR53     1  0.231633666716  0.089736802707
   CT3  HGR61     1  0.290272620344  0.072469005789
   CT3  HGR62     1  0.267269615442  0.089736802707
   CT3  HGR63     1  0.249451641079  0.089736802707
   CT3  HGR71     1  0.290272620344  0.072469005789
   CT3     HL     1  0.231633666716  0.089736802707
   CT3  HLGA1     1  0.288651184677  0.088756043175
   CT3  HLGA2     1  0.288651184677  0.078275472531
   CT3  HLGA3     1  0.288651184677  0.064818249282
   CT3  HLGA4     1  0.280633096214  0.073666921749
   CT3  HLGP1     1  0.189271432669  0.089736802707
   CT3 HLGR52     1  0.249451641079  0.089736802707
   CT3 HLGR61     1  0.290272620344  0.072469005789
   CT3 HLGR62     1  0.267269615442  0.089736802707
   CT3    HN1     1  0.189271432669  0.089736802707
   CT3    HN2     1  0.189271432669  0.089736802707
   CT3    HN3     1  0.267269615442  0.089736802707
   CT3   HN3B     1  0.249451641079  0.089736802707
   CT3    HN4     1  0.189271432669  0.089736802707
   CT3    HN5     1  0.189271432669  0.089736802707
   CT3    HN6     1  0.286869387241  0.062058748940
   CT3    HN7     1  0.286869387241  0.062058748940
   CT3    HN8     1  0.288651184677  0.070011711020
   CT3    HN9     1  0.288651184677  0.064818249282
   CT3   HNE1     1  0.280633096214  0.073666921749
   CT3   HNE2     1  0.281523994932  0.067464972838
   CT3    HNP     1  0.290272620344  0.072469005789
   CT3   HO3P     1  0.293168041178  0.170263611896
   CT3    HOL     1  0.189271432669  0.089736802707
   CT3     HP     1  0.290272620344  0.072469005789
   CT3   HPER     1  0.189271432669  0.089736802707
   CT3    HR1     1  0.249451641079  0.089736802707
   CT3    HR2     1  0.231633666716  0.089736802707
   CT3    HR3     1  0.300054688270  0.036952087465
   CT3   HRA3     1  0.288651184677  0.064818249282
   CT3   HRM1     1  0.247224394284  0.039692909190
   CT3   HRM2     1  0.247224394284  0.041840000000
   CT3   HRP2     1  0.189271432669  0.089736802707
   CT3     HS     1  0.209361198763  0.132309697301
   CT3   HSIA     1  0.286869387241  0.062058748940
   CT3   HSIO     1  0.189271432669  0.089736802707
   CT3     HT     1  0.189271432669  0.089736802707
   CT3     HX     1  0.189271432669  0.089736802707
   CT3   IGR1     1  0.368832069310  0.301712530731
   CT3   IN3P     1  0.246449312399  0.160580590010
   CT3   LA3P     1  0.327200372211  0.182184255566
   CT3    LIT     1  0.284864865125  0.020196198771
   CT3    LPH     1  0.169270756447  0.000000000000
   CT3   LU3P     1  0.289648991242  0.166731218816
   CT3     MG     1  0.274842254546  0.051243325419
   CT3   MN2P     1  0.276508235149  0.171747976291
   CT3   MN3P     1  0.203516903172  0.148045032716
   CT3      N     1  0.334087019303  0.004184000000
   CT3     NC     1  0.334087019303  0.324091246411
   CT3    NC2     1  0.334087019303  0.187114168357
   CT3  NC2D1     1  0.307360057758  0.187114168357
   CT3  NC311     1  0.347450500075  0.088756043175
   CT3   ND3P     1  0.313587439798  0.177117175768
   CT3     NE     1  0.305578260322  0.122698965603
   CT3  NG1T1     1  0.328741626994  0.177512086349
   CT3  NG2D1     1  0.334087019303  0.187114168357
   CT3  NG2O1     1  0.334087019303  0.187114168357
   CT3  NG2P1     1  0.334087019303  0.187114168357
   CT3 NG2R43     1  0.334087019303  0.187114168357
   CT3 NG2R50     1  0.334087019303  0.187114168357
   CT3 NG2R51     1  0.334087019303  0.187114168357
   CT3 NG2R52     1  0.334087019303  0.187114168357
   CT3 NG2R53     1  0.334087019303  0.187114168357
   CT3 NG2R57     1  0.334087019303  0.187114168357
   CT3 NG2R60     1  0.337650614175  0.102486650838
   CT3 NG2R61     1  0.334087019303  0.187114168357
   CT3 NG2R62     1  0.352795892384  0.093557084179
   CT3 NG2R67     1  0.334087019303  0.187114168357
   CT3 NG2RC0     1  0.334087019303  0.187114168357
   CT3  NG2S0     1  0.334087019303  0.004184000000
   CT3  NG2S1     1  0.307360057758  0.187114168357
   CT3  NG2S2     1  0.334087019303  0.187114168357
   CT3  NG2S3     1  0.334087019303  0.187114168357
   CT3  NG301     1  0.347450500075  0.078275472531
   CT3  NG311     1  0.347450500075  0.088756043175
   CT3  NG321     1  0.346559601357  0.102486650838
   CT3  NG331     1  0.345668702638  0.110698234855
   CT3 NG3C51     1  0.334087019303  0.187114168357
   CT3  NG3N1     1  0.351904993665  0.102486650838
   CT3  NG3P0     1  0.334087019303  0.187114168357
   CT3  NG3P1     1  0.334087019303  0.187114168357
   CT3  NG3P2     1  0.334087019303  0.187114168357
   CT3  NG3P3     1  0.334087019303  0.187114168357
   CT3    NH1     1  0.307360057758  0.187114168357
   CT3    NH2     1  0.334087019303  0.187114168357
   CT3    NH3     1  0.334087019303  0.187114168357
   CT3   NH3L     1  0.334087019303  0.187114168357
   CT3    NHL     1  0.307360057758  0.187114168357
   CT3     NI     1  0.282949432881  0.994525446633
   CT3   NI2P     1  0.238787583423  0.158440517242
   CT3    NN1     1  0.334087019303  0.187114168357
   CT3   NN1C     1  0.334087019303  0.187114168357
   CT3    NN2     1  0.334087019303  0.187114168357
   CT3   NN2B     1  0.334087019303  0.187114168357
   CT3   NN2C     1  0.334087019303  0.187114168357
   CT3   NN2G     1  0.334087019303  0.187114168357
   CT3   NN2U     1  0.334087019303  0.187114168357
   CT3    NN3     1  0.334087019303  0.187114168357
   CT3   NN3A     1  0.334087019303  0.187114168357
   CT3   NN3G     1  0.334087019303  0.187114168357
   CT3   NN3I     1  0.334087019303  0.187114168357
   CT3    NN4     1  0.334087019303  0.187114168357
   CT3    NN6     1  0.334087019303  0.187114168357
   CT3    NNG     1  0.334087019303  0.187114168357
   CT3     NP     1  0.334087019303  0.187114168357
   CT3    NPH     1  0.334087019303  0.187114168357
   CT3    NR1     1  0.334087019303  0.187114168357
   CT3    NR2     1  0.334087019303  0.187114168357
   CT3    NR3     1  0.334087019303  0.187114168357
   CT3   NRC4     1  0.334087019303  0.187114168357
   CT3   NRN1     1  0.347450500075  0.280671252536
   CT3   NRN2     1  0.346559601357  0.102486650838
   CT3    NS1     1  0.334087019303  0.187114168357
   CT3    NS2     1  0.334087019303  0.187114168357
   CT3    NTL     1  0.334087019303  0.187114168357
   CT3     NY     1  0.334087019303  0.187114168357
   CT3      O     1  0.293996576986  0.144938011577
   CT3    O2L     1  0.320723538531  0.144938011577
   CT3    OAL     1  0.326959829558  0.163176000000
   CT3     OB     1  0.293996576986  0.144938011577
   CT3    OBL     1  0.293996576986  0.144938011577
   CT3     OC     1  0.320723538531  0.144938011577
   CT3  OC2D1     1  0.293996576986  0.144938011577
   CT3  OC2D2     1  0.320723538531  0.144938011577
   CT3  OC2D3     1  0.293996576986  0.144938011577
   CT3  OC2D4     1  0.293996576986  0.144938011577
   CT3  OC2DP     1  0.320723538531  0.144938011577
   CT3  OC301     1  0.316269044940  0.132309697301
   CT3  OC302     1  0.316269044940  0.132309697301
   CT3  OC303     1  0.316269044940  0.132309697301
   CT3 OC305A     1  0.316269044940  0.132309697301
   CT3  OC30A     1  0.316269044940  0.132309697301
   CT3  OC30P     1  0.326959829558  0.163176000000
   CT3  OC311     1  0.326514380198  0.183381431383
   CT3 OC311M     1  0.326514380198  0.183381431383
   CT3  OC312     1  0.326959829558  0.163176000000
   CT3 OC3C51     1  0.316269044940  0.132309697301
   CT3 OC3C5M     1  0.316269044940  0.132309697301
   CT3 OC3C61     1  0.316269044940  0.132309697301
   CT3    OCA     1  0.293996576986  0.144938011577
   CT3    OCL     1  0.320723538531  0.144938011577
   CT3  OG2D1     1  0.293996576986  0.144938011577
   CT3  OG2D2     1  0.320723538531  0.144938011577
   CT3  OG2D3     1  0.293996576986  0.144938011577
   CT3  OG2D4     1  0.320723538531  0.144938011577
   CT3  OG2D5     1  0.320010819556  0.169954883425
   CT3  OG2N1     1  0.320723538531  0.144938011577
   CT3  OG2P1     1  0.320723538531  0.144938011577
   CT3 OG2R50     1  0.320723538531  0.144938011577
   CT3  OG2S1     1  0.318906105146  0.157831660601
   CT3  OG301     1  0.316269044940  0.132309697301
   CT3  OG302     1  0.316269044940  0.132309697301
   CT3  OG303     1  0.316269044940  0.132309697301
   CT3  OG304     1  0.316269044940  0.132309697301
   CT3  OG311     1  0.326514380198  0.183381431383
   CT3  OG312     1  0.325178032121  0.144938011577
   CT3 OG3C31     1  0.316269044940  0.132309697301
   CT3 OG3C51     1  0.316269044940  0.132309697301
   CT3 OG3C61     1  0.316269044940  0.132309697301
   CT3 OG3R60     1  0.316269044940  0.132309697301
   CT3    OH1     1  0.326959829558  0.163176000000
   CT3    OHL     1  0.326959829558  0.163176000000
   CT3   OLG1     1  0.293996576986  0.144938011577
   CT3   OLG2     1  0.320723538531  0.144938011577
   CT3   OLG3     1  0.320723538531  0.144938011577
   CT3   OLG4     1  0.316269044940  0.132309697301
   CT3   OLG5     1  0.316269044940  0.132309697301
   CT3   OLG6     1  0.326514380198  0.183381431383
   CT3   OLG7     1  0.316269044940  0.132309697301
   CT3   OLG8     1  0.316269044940  0.132309697301
   CT3     OM     1  0.320723538531  0.144938011577
   CT3    ON1     1  0.320723538531  0.144938011577
   CT3   ON1C     1  0.320723538531  0.144938011577
   CT3    ON2     1  0.326959829558  0.163176000000
   CT3   ON2B     1  0.326959829558  0.163176000000
   CT3   ON2M     1  0.316269044940  0.132309697301
   CT3    ON3     1  0.320723538531  0.144938011577
   CT3    ON4     1  0.326959829558  0.163176000000
   CT3    ON5     1  0.326959829558  0.163176000000
   CT3    ON6     1  0.326959829558  0.163176000000
   CT3   ON6B     1  0.326959829558  0.163176000000
   CT3   OPER     1  0.318427692534  0.188901923946
   CT3     OS     1  0.326959829558  0.163176000000
   CT3   OSIA     1  0.326959829558  0.163176000000
   CT3   OSIE     1  0.326959829558  0.163176000000
   CT3   OSIH     1  0.326959829558  0.163176000000
   CT3    OSL     1  0.316269044940  0.132309697301
   CT3   OSLP     1  0.316269044940  0.132309697301
   CT3    OST     1  0.320010819556  0.169954883425
   CT3     OT     1  0.326799467788  0.163176000000
   CT3     OX     1  0.320723538531  0.144938011577
   CT3      P     1  0.360813980847  0.320014464673
   CT3     P2     1  0.360813980847  0.320014464673
   CT3     P3     1  0.360813980847  0.320014464673
   CT3     P4     1  0.360813980847  0.320014464673
   CT3     PB     1  0.328073452955  0.716185437439
   CT3   PB2P     1  0.325890751096  0.204716924713
   CT3     PC     1  0.360813980847  0.320014464673
   CT3     PD     1  0.294842930769  1.037598257516
   CT3   PD2P     1  0.251865976605  0.174628752363
   CT3    PG0     1  0.360813980847  0.320014464673
   CT3    PG1     1  0.360813980847  0.320014464673
   CT3    PG2     1  0.360813980847  0.320014464673
   CT3     PL     1  0.360813980847  0.320014464673
   CT3   PM3P     1  0.316910492017  0.176275053255
   CT3    POT     1  0.326403017859  0.123410269913
   CT3   PR3P     1  0.317079762773  0.178642591472
   CT3     PT     1  0.296001099102  1.168527606863
   CT3   PT2P     1  0.240284293270  0.168973521997
   CT3   PU3P     1  0.318024115415  0.179522368790
   CT3   RA2P     1  0.355459679551  0.229891668540
   CT3   RH3P     1  0.210367914314  0.149983415617
   CT3    RUB     1  0.338541512893  0.162045623205
   CT3      S     1  0.347450500075  0.280671252536
   CT3     SC     1  0.356359487256  0.286840588481
   CT3   SC3P     1  0.266993436839  0.157109060719
   CT3  SEGD1     1  0.363041227642  0.330244580395
   CT3  SG2D1     1  0.351904993665  0.314496560236
   CT3  SG2P1     1  0.355798221064  0.332305491450
   CT3  SG2P2     1  0.352314807076  0.329421919951
   CT3 SG2R50     1  0.347450500075  0.280671252536
   CT3  SG301     1  0.345223253279  0.257919081884
   CT3  SG302     1  0.365268474438  0.286840588481
   CT3  SG311     1  0.347450500075  0.280671252536
   CT3  SG3O1     1  0.356359487256  0.286840588481
   CT3  SG3O2     1  0.347450500075  0.247528778125
   CT3  SG3O3     1  0.347450500075  0.247528778125
   CT3     SI     1  0.365268474438  0.324091246411
   CT3   SIH3     1  0.365268474438  0.324091246411
   CT3     SL     1  0.356359487256  0.286840588481
   CT3     SM     1  0.345223253279  0.257919081884
   CT3   SM2P     1  0.334666103469  0.207012887251
   CT3   SM3P     1  0.308847858618  0.175378986746
   CT3   SN2P     1  0.316981763914  0.181365662197
   CT3    SOD     1  0.294954293108  0.090610410351
   CT3     SP     1  0.365268474438  0.280671252536
   CT3   SR2P     1  0.334612649546  0.200133451797
   CT3     SS     1  0.365268474438  0.286840588481
   CT3   TB3P     1  0.300678317372  0.172155203837
   CT3   TI1P     1  0.341276571958  0.266826378666
   CT3   TI3P     1  0.243117351193  0.149983415617
   CT3   TL3P     1  0.246716582015  0.168869889039
   CT3   TM3P     1  0.289417357575  0.168402751521
   CT3    U3P     1  0.320830446377  0.182184255566
   CT3    V2P     1  0.267599247968  0.167830039933
   CT3    V3P     1  0.223989755715  0.147096016316
   CT3    Y3P     1  0.295190381269  0.170263611896
   CT3   YB2P     1  0.312616360195  0.189623385225
   CT3   YB3P     1  0.284659958420  0.167569069413
   CT3     ZN     1  0.266378716724  0.209200000000
  CT3X   CT3X     1  0.338541512893  0.041840000000
  CT3X   CTD1     1  0.338541512893  0.041840000000
  CT3X   CTL1     1  0.338541512893  0.041840000000
  CT3X   CTL2     1  0.338541512893  0.041840000000
  CT3X   CTL3     1  0.338541512893  0.041840000000
  CT3X   CTL5     1  0.338541512893  0.041840000000
  CT3X   CTO1     1  0.338541512893  0.041840000000
  CT3X   CTO2     1  0.338541512893  0.041840000000
  CT3X     CU     1  0.285800308779  0.908997471504
  CT3X   CU1P     1  0.246066225950  0.180057894334
  CT3X   CU2P     1  0.233869822499  0.162315474555
  CT3X     CY     1  0.346559601357  0.113045454929
  CT3X    DUM     1  0.169270756447  0.000000000000
  CT3X   DY3P     1  0.297952167295  0.171135318061
  CT3X   ER3P     1  0.291083338178  0.169232326746
  CT3X   EU2P     1  0.333231756533  0.203602227414
  CT3X   EU3P     1  0.304954631219  0.174528477447
  CT3X     F1     1  0.314487247504  0.153729976257
  CT3X     F2     1  0.314487247504  0.135577095411
  CT3X     F3     1  0.311814551349  0.130309939452
  CT3X     FA     1  0.320723538531  0.144938011577
  CT3X     FE     1  0.227179173126  0.000000000000
  CT3X   FE2P     1  0.265496726993  0.167098295383
  CT3X   FE3P     1  0.219722350855  0.148045032716
  CT3X   FGA1     1  0.314487247504  0.153729976257
  CT3X   FGA2     1  0.314487247504  0.135577095411
  CT3X   FGA3     1  0.311814551349  0.130309939452
  CT3X   FGP1     1  0.311814551349  0.130309939452
  CT3X   FGR1     1  0.320723538531  0.144938011577
  CT3X    FNA     1  0.320723538531  0.144938011577
  CT3X   GA3P     1  0.189485248361  0.145299904804
  CT3X   GD3P     1  0.303351013527  0.173673803114
  CT3X      H     1  0.189271432669  0.089736802707
  CT3X     HA     1  0.286869387241  0.062058748940
  CT3X    HA1     1  0.288651184677  0.088756043175
  CT3X    HA2     1  0.288651184677  0.077149148019
  CT3X    HA3     1  0.288651184677  0.064818249282
  CT3X    HAL     1  0.286869387241  0.062058748940
  CT3X   HAL1     1  0.286869387241  0.062058748940
  CT3X   HAL2     1  0.288651184677  0.070011711020
  CT3X   HAL3     1  0.288651184677  0.064818249282
  CT3X     HB     1  0.286869387241  0.062058748940
  CT3X    HB1     1  0.286869387241  0.062058748940
  CT3X    HB2     1  0.288651184677  0.070011711020
  CT3X    HBL     1  0.286869387241  0.062058748940
  CT3X     HC     1  0.189271432669  0.089736802707
  CT3X   HCA1     1  0.288651184677  0.088756043175
  CT3X  HCA1A     1  0.288651184677  0.088756043175
  CT3X HCA1C2     1  0.288651184677  0.088756043175
  CT3X   HCA2     1  0.288651184677  0.078275472531
  CT3X HCA25A     1  0.285087589805  0.078275472531
  CT3X  HCA2A     1  0.288651184677  0.078275472531
  CT3X HCA2C2     1  0.285087589805  0.078275472531
  CT3X   HCA3     1  0.288651184677  0.064818249282
  CT3X  HCA3A     1  0.288651184677  0.064818249282
  CT3X  HCA3M     1  0.288651184677  0.064818249282
  CT3X    HCL     1  0.189271432669  0.089736802707
  CT3X   HCP1     1  0.189271432669  0.089736802707
  CT3X  HCP1M     1  0.189271432669  0.089736802707
  CT3X   HCR1     1  0.240542653898  0.089736802707
  CT3X     HE     1  0.301123766731  0.061020452073
  CT3X    HE1     1  0.280633096214  0.073666921749
  CT3X    HE2     1  0.281523994932  0.067464972838
  CT3X   HEL1     1  0.280633096214  0.073666921749
  CT3X   HEL2     1  0.281523994932  0.067464972838
  CT3X    HF1     1  0.286869387241  0.070011711020
  CT3X    HF2     1  0.285087589805  0.072469005789
  CT3X   HG2P     1  0.274557166956  0.189623385225
  CT3X   HGA1     1  0.288651184677  0.088756043175
  CT3X   HGA2     1  0.288651184677  0.078275472531
  CT3X   HGA3     1  0.288651184677  0.064818249282
  CT3X   HGA4     1  0.280633096214  0.073666921749
  CT3X   HGA5     1  0.281523994932  0.067464972838
  CT3X   HGA6     1  0.286869387241  0.070011711020
  CT3X   HGA7     1  0.285087589805  0.072469005789
  CT3X HGAAM0     1  0.283305792369  0.070011711020
  CT3X HGAAM1     1  0.283305792369  0.070011711020
  CT3X HGAAM2     1  0.281523994932  0.083680000000
  CT3X   HGP1     1  0.189271432669  0.089736802707
  CT3X   HGP2     1  0.189271432669  0.089736802707
  CT3X   HGP3     1  0.209361198763  0.132309697301
  CT3X   HGP4     1  0.189271432669  0.089736802707
  CT3X   HGP5     1  0.231633666716  0.089736802707
  CT3X HGPAM1     1  0.247224394284  0.039692909190
  CT3X HGPAM2     1  0.247224394284  0.041840000000
  CT3X HGPAM3     1  0.246778944925  0.045833423612
  CT3X  HGR51     1  0.290272620344  0.072469005789
  CT3X  HGR52     1  0.249451641079  0.089736802707
  CT3X  HGR53     1  0.231633666716  0.089736802707
  CT3X  HGR61     1  0.290272620344  0.072469005789
  CT3X  HGR62     1  0.267269615442  0.089736802707
  CT3X  HGR63     1  0.249451641079  0.089736802707
  CT3X  HGR71     1  0.290272620344  0.072469005789
  CT3X     HL     1  0.231633666716  0.089736802707
  CT3X  HLGA1     1  0.288651184677  0.088756043175
  CT3X  HLGA2     1  0.288651184677  0.078275472531
  CT3X  HLGA3     1  0.288651184677  0.064818249282
  CT3X  HLGA4     1  0.280633096214  0.073666921749
  CT3X  HLGP1     1  0.189271432669  0.089736802707
  CT3X HLGR52     1  0.249451641079  0.089736802707
  CT3X HLGR61     1  0.290272620344  0.072469005789
  CT3X HLGR62     1  0.267269615442  0.089736802707
  CT3X    HN1     1  0.189271432669  0.089736802707
  CT3X    HN2     1  0.189271432669  0.089736802707
  CT3X    HN3     1  0.267269615442  0.089736802707
  CT3X   HN3B     1  0.249451641079  0.089736802707
  CT3X    HN4     1  0.189271432669  0.089736802707
  CT3X    HN5     1  0.189271432669  0.089736802707
  CT3X    HN6     1  0.286869387241  0.062058748940
  CT3X    HN7     1  0.286869387241  0.062058748940
  CT3X    HN8     1  0.288651184677  0.070011711020
  CT3X    HN9     1  0.288651184677  0.064818249282
  CT3X   HNE1     1  0.280633096214  0.073666921749
  CT3X   HNE2     1  0.281523994932  0.067464972838
  CT3X    HNP     1  0.290272620344  0.072469005789
  CT3X   HO3P     1  0.293168041178  0.170263611896
  CT3X    HOL     1  0.189271432669  0.089736802707
  CT3X     HP     1  0.290272620344  0.072469005789
  CT3X   HPER     1  0.189271432669  0.089736802707
  CT3X    HR1     1  0.249451641079  0.089736802707
  CT3X    HR2     1  0.231633666716  0.089736802707
  CT3X    HR3     1  0.300054688270  0.036952087465
  CT3X   HRA3     1  0.288651184677  0.064818249282
  CT3X   HRM1     1  0.247224394284  0.039692909190
  CT3X   HRM2     1  0.247224394284  0.041840000000
  CT3X   HRP2     1  0.189271432669  0.089736802707
  CT3X     HS     1  0.209361198763  0.132309697301
  CT3X   HSIA     1  0.286869387241  0.062058748940
  CT3X   HSIO     1  0.189271432669  0.089736802707
  CT3X     HT     1  0.189271432669  0.089736802707
  CT3X     HX     1  0.189271432669  0.089736802707
  CT3X   IGR1     1  0.368832069310  0.301712530731
  CT3X   IN3P     1  0.246449312399  0.160580590010
  CT3X   LA3P     1  0.327200372211  0.182184255566
  CT3X    LIT     1  0.284864865125  0.020196198771
  CT3X    LPH     1  0.169270756447  0.000000000000
  CT3X   LU3P     1  0.289648991242  0.166731218816
  CT3X     MG     1  0.274842254546  0.051243325419
  CT3X   MN2P     1  0.276508235149  0.171747976291
  CT3X   MN3P     1  0.203516903172  0.148045032716
  CT3X      N     1  0.334087019303  0.004184000000
  CT3X     NC     1  0.334087019303  0.324091246411
  CT3X    NC2     1  0.334087019303  0.187114168357
  CT3X  NC2D1     1  0.307360057758  0.187114168357
  CT3X  NC311     1  0.347450500075  0.088756043175
  CT3X   ND3P     1  0.313587439798  0.177117175768
  CT3X     NE     1  0.305578260322  0.122698965603
  CT3X  NG1T1     1  0.328741626994  0.177512086349
  CT3X  NG2D1     1  0.334087019303  0.187114168357
  CT3X  NG2O1     1  0.334087019303  0.187114168357
  CT3X  NG2P1     1  0.334087019303  0.187114168357
  CT3X NG2R43     1  0.334087019303  0.187114168357
  CT3X NG2R50     1  0.334087019303  0.187114168357
  CT3X NG2R51     1  0.334087019303  0.187114168357
  CT3X NG2R52     1  0.334087019303  0.187114168357
  CT3X NG2R53     1  0.334087019303  0.187114168357
  CT3X NG2R57     1  0.334087019303  0.187114168357
  CT3X NG2R60     1  0.337650614175  0.102486650838
  CT3X NG2R61     1  0.334087019303  0.187114168357
  CT3X NG2R62     1  0.352795892384  0.093557084179
  CT3X NG2R67     1  0.334087019303  0.187114168357
  CT3X NG2RC0     1  0.334087019303  0.187114168357
  CT3X  NG2S0     1  0.334087019303  0.004184000000
  CT3X  NG2S1     1  0.307360057758  0.187114168357
  CT3X  NG2S2     1  0.334087019303  0.187114168357
  CT3X  NG2S3     1  0.334087019303  0.187114168357
  CT3X  NG301     1  0.347450500075  0.078275472531
  CT3X  NG311     1  0.347450500075  0.088756043175
  CT3X  NG321     1  0.346559601357  0.102486650838
  CT3X  NG331     1  0.345668702638  0.110698234855
  CT3X NG3C51     1  0.334087019303  0.187114168357
  CT3X  NG3N1     1  0.351904993665  0.102486650838
  CT3X  NG3P0     1  0.334087019303  0.187114168357
  CT3X  NG3P1     1  0.334087019303  0.187114168357
  CT3X  NG3P2     1  0.334087019303  0.187114168357
  CT3X  NG3P3     1  0.334087019303  0.187114168357
  CT3X    NH1     1  0.307360057758  0.187114168357
  CT3X    NH2     1  0.334087019303  0.187114168357
  CT3X    NH3     1  0.334087019303  0.187114168357
  CT3X   NH3L     1  0.334087019303  0.187114168357
  CT3X    NHL     1  0.307360057758  0.187114168357
  CT3X     NI     1  0.282949432881  0.994525446633
  CT3X   NI2P     1  0.238787583423  0.158440517242
  CT3X    NN1     1  0.334087019303  0.187114168357
  CT3X   NN1C     1  0.334087019303  0.187114168357
  CT3X    NN2     1  0.334087019303  0.187114168357
  CT3X   NN2B     1  0.334087019303  0.187114168357
  CT3X   NN2C     1  0.334087019303  0.187114168357
  CT3X   NN2G     1  0.334087019303  0.187114168357
  CT3X   NN2U     1  0.334087019303  0.187114168357
  CT3X    NN3     1  0.334087019303  0.187114168357
  CT3X   NN3A     1  0.334087019303  0.187114168357
  CT3X   NN3G     1  0.334087019303  0.187114168357
  CT3X   NN3I     1  0.334087019303  0.187114168357
  CT3X    NN4     1  0.334087019303  0.187114168357
  CT3X    NN6     1  0.334087019303  0.187114168357
  CT3X    NNG     1  0.334087019303  0.187114168357
  CT3X     NP     1  0.334087019303  0.187114168357
  CT3X    NPH     1  0.334087019303  0.187114168357
  CT3X    NR1     1  0.334087019303  0.187114168357
  CT3X    NR2     1  0.334087019303  0.187114168357
  CT3X    NR3     1  0.334087019303  0.187114168357
  CT3X   NRC4     1  0.334087019303  0.187114168357
  CT3X   NRN1     1  0.347450500075  0.280671252536
  CT3X   NRN2     1  0.346559601357  0.102486650838
  CT3X    NS1     1  0.334087019303  0.187114168357
  CT3X    NS2     1  0.334087019303  0.187114168357
  CT3X    NTL     1  0.334087019303  0.187114168357
  CT3X     NY     1  0.334087019303  0.187114168357
  CT3X      O     1  0.293996576986  0.144938011577
  CT3X    O2L     1  0.320723538531  0.144938011577
  CT3X    OAL     1  0.326959829558  0.163176000000
  CT3X     OB     1  0.293996576986  0.144938011577
  CT3X    OBL     1  0.293996576986  0.144938011577
  CT3X     OC     1  0.320723538531  0.144938011577
  CT3X  OC2D1     1  0.293996576986  0.144938011577
  CT3X  OC2D2     1  0.320723538531  0.144938011577
  CT3X  OC2D3     1  0.293996576986  0.144938011577
  CT3X  OC2D4     1  0.293996576986  0.144938011577
  CT3X  OC2DP     1  0.320723538531  0.144938011577
  CT3X  OC301     1  0.316269044940  0.132309697301
  CT3X  OC302     1  0.316269044940  0.132309697301
  CT3X  OC303     1  0.316269044940  0.132309697301
  CT3X OC305A     1  0.316269044940  0.132309697301
  CT3X  OC30A     1  0.316269044940  0.132309697301
  CT3X  OC30P     1  0.326959829558  0.163176000000
  CT3X  OC311     1  0.326514380198  0.183381431383
  CT3X OC311M     1  0.326514380198  0.183381431383
  CT3X  OC312     1  0.326959829558  0.163176000000
  CT3X OC3C51     1  0.316269044940  0.132309697301
  CT3X OC3C5M     1  0.316269044940  0.132309697301
  CT3X OC3C61     1  0.316269044940  0.132309697301
  CT3X    OCA     1  0.293996576986  0.144938011577
  CT3X    OCL     1  0.320723538531  0.144938011577
  CT3X  OG2D1     1  0.293996576986  0.144938011577
  CT3X  OG2D2     1  0.320723538531  0.144938011577
  CT3X  OG2D3     1  0.293996576986  0.144938011577
  CT3X  OG2D4     1  0.320723538531  0.144938011577
  CT3X  OG2D5     1  0.320010819556  0.169954883425
  CT3X  OG2N1     1  0.320723538531  0.144938011577
  CT3X  OG2P1     1  0.320723538531  0.144938011577
  CT3X OG2R50     1  0.320723538531  0.144938011577
  CT3X  OG2S1     1  0.318906105146  0.157831660601
  CT3X  OG301     1  0.316269044940  0.132309697301
  CT3X  OG302     1  0.316269044940  0.132309697301
  CT3X  OG303     1  0.316269044940  0.132309697301
  CT3X  OG304     1  0.316269044940  0.132309697301
  CT3X  OG311     1  0.326514380198  0.183381431383
  CT3X  OG312     1  0.325178032121  0.144938011577
  CT3X OG3C31     1  0.316269044940  0.132309697301
  CT3X OG3C51     1  0.316269044940  0.132309697301
  CT3X OG3C61     1  0.316269044940  0.132309697301
  CT3X OG3R60     1  0.316269044940  0.132309697301
  CT3X    OH1     1  0.326959829558  0.163176000000
  CT3X    OHL     1  0.326959829558  0.163176000000
  CT3X   OLG1     1  0.293996576986  0.144938011577
  CT3X   OLG2     1  0.320723538531  0.144938011577
  CT3X   OLG3     1  0.320723538531  0.144938011577
  CT3X   OLG4     1  0.316269044940  0.132309697301
  CT3X   OLG5     1  0.316269044940  0.132309697301
  CT3X   OLG6     1  0.326514380198  0.183381431383
  CT3X   OLG7     1  0.316269044940  0.132309697301
  CT3X   OLG8     1  0.316269044940  0.132309697301
  CT3X     OM     1  0.320723538531  0.144938011577
  CT3X    ON1     1  0.320723538531  0.144938011577
  CT3X   ON1C     1  0.320723538531  0.144938011577
  CT3X    ON2     1  0.326959829558  0.163176000000
  CT3X   ON2B     1  0.326959829558  0.163176000000
  CT3X   ON2M     1  0.316269044940  0.132309697301
  CT3X    ON3     1  0.320723538531  0.144938011577
  CT3X    ON4     1  0.326959829558  0.163176000000
  CT3X    ON5     1  0.326959829558  0.163176000000
  CT3X    ON6     1  0.326959829558  0.163176000000
  CT3X   ON6B     1  0.326959829558  0.163176000000
  CT3X   OPER     1  0.318427692534  0.188901923946
  CT3X     OS     1  0.326959829558  0.163176000000
  CT3X   OSIA     1  0.326959829558  0.163176000000
  CT3X   OSIE     1  0.326959829558  0.163176000000
  CT3X   OSIH     1  0.326959829558  0.163176000000
  CT3X    OSL     1  0.316269044940  0.132309697301
  CT3X   OSLP     1  0.316269044940  0.132309697301
  CT3X    OST     1  0.320010819556  0.169954883425
  CT3X     OT     1  0.326799467788  0.163176000000
  CT3X     OX     1  0.320723538531  0.144938011577
  CT3X      P     1  0.360813980847  0.320014464673
  CT3X     P2     1  0.360813980847  0.320014464673
  CT3X     P3     1  0.360813980847  0.320014464673
  CT3X     P4     1  0.360813980847  0.320014464673
  CT3X     PB     1  0.328073452955  0.716185437439
  CT3X   PB2P     1  0.325890751096  0.204716924713
  CT3X     PC     1  0.360813980847  0.320014464673
  CT3X     PD     1  0.294842930769  1.037598257516
  CT3X   PD2P     1  0.251865976605  0.174628752363
  CT3X    PG0     1  0.360813980847  0.320014464673
  CT3X    PG1     1  0.360813980847  0.320014464673
  CT3X    PG2     1  0.360813980847  0.320014464673
  CT3X     PL     1  0.360813980847  0.320014464673
  CT3X   PM3P     1  0.316910492017  0.176275053255
  CT3X    POT     1  0.326403017859  0.123410269913
  CT3X   PR3P     1  0.317079762773  0.178642591472
  CT3X     PT     1  0.296001099102  1.168527606863
  CT3X   PT2P     1  0.240284293270  0.168973521997
  CT3X   PU3P     1  0.318024115415  0.179522368790
  CT3X   RA2P     1  0.355459679551  0.229891668540
  CT3X   RH3P     1  0.210367914314  0.149983415617
  CT3X    RUB     1  0.338541512893  0.162045623205
  CT3X      S     1  0.347450500075  0.280671252536
  CT3X     SC     1  0.356359487256  0.286840588481
  CT3X   SC3P     1  0.266993436839  0.157109060719
  CT3X  SEGD1     1  0.363041227642  0.330244580395
  CT3X  SG2D1     1  0.351904993665  0.314496560236
  CT3X  SG2P1     1  0.355798221064  0.332305491450
  CT3X  SG2P2     1  0.352314807076  0.329421919951
  CT3X SG2R50     1  0.347450500075  0.280671252536
  CT3X  SG301     1  0.345223253279  0.257919081884
  CT3X  SG302     1  0.365268474438  0.286840588481
  CT3X  SG311     1  0.347450500075  0.280671252536
  CT3X  SG3O1     1  0.356359487256  0.286840588481
  CT3X  SG3O2     1  0.347450500075  0.247528778125
  CT3X  SG3O3     1  0.347450500075  0.247528778125
  CT3X     SI     1  0.365268474438  0.324091246411
  CT3X   SIH3     1  0.365268474438  0.324091246411
  CT3X     SL     1  0.356359487256  0.286840588481
  CT3X     SM     1  0.345223253279  0.257919081884
  CT3X   SM2P     1  0.334666103469  0.207012887251
  CT3X   SM3P     1  0.308847858618  0.175378986746
  CT3X   SN2P     1  0.316981763914  0.181365662197
  CT3X    SOD     1  0.294954293108  0.090610410351
  CT3X     SP     1  0.365268474438  0.280671252536
  CT3X   SR2P     1  0.334612649546  0.200133451797
  CT3X     SS     1  0.365268474438  0.286840588481
  CT3X   TB3P     1  0.300678317372  0.172155203837
  CT3X   TI1P     1  0.341276571958  0.266826378666
  CT3X   TI3P     1  0.243117351193  0.149983415617
  CT3X   TL3P     1  0.246716582015  0.168869889039
  CT3X   TM3P     1  0.289417357575  0.168402751521
  CT3X    U3P     1  0.320830446377  0.182184255566
  CT3X    V2P     1  0.267599247968  0.167830039933
  CT3X    V3P     1  0.223989755715  0.147096016316
  CT3X    Y3P     1  0.295190381269  0.170263611896
  CT3X   YB2P     1  0.312616360195  0.189623385225
  CT3X   YB3P     1  0.284659958420  0.167569069413
  CT3X     ZN     1  0.266378716724  0.209200000000
  CTD1   CTD1     1  0.338541512893  0.041840000000
  CTD1   CTL1     1  0.338541512893  0.041840000000
  CTD1   CTL2     1  0.338541512893  0.041840000000
  CTD1   CTL3     1  0.338541512893  0.041840000000
  CTD1   CTL5     1  0.338541512893  0.041840000000
  CTD1   CTO1     1  0.338541512893  0.041840000000
  CTD1   CTO2     1  0.338541512893  0.041840000000
  CTD1     CU     1  0.285800308779  0.908997471504
  CTD1   CU1P     1  0.246066225950  0.180057894334
  CTD1   CU2P     1  0.233869822499  0.162315474555
  CTD1     CY     1  0.346559601357  0.113045454929
  CTD1    DUM     1  0.169270756447  0.000000000000
  CTD1   DY3P     1  0.297952167295  0.171135318061
  CTD1   ER3P     1  0.291083338178  0.169232326746
  CTD1   EU2P     1  0.333231756533  0.203602227414
  CTD1   EU3P     1  0.304954631219  0.174528477447
  CTD1     F1     1  0.314487247504  0.153729976257
  CTD1     F2     1  0.314487247504  0.135577095411
  CTD1     F3     1  0.311814551349  0.130309939452
  CTD1     FA     1  0.320723538531  0.144938011577
  CTD1     FE     1  0.227179173126  0.000000000000
  CTD1   FE2P     1  0.265496726993  0.167098295383
  CTD1   FE3P     1  0.219722350855  0.148045032716
  CTD1   FGA1     1  0.314487247504  0.153729976257
  CTD1   FGA2     1  0.314487247504  0.135577095411
  CTD1   FGA3     1  0.311814551349  0.130309939452
  CTD1   FGP1     1  0.311814551349  0.130309939452
  CTD1   FGR1     1  0.320723538531  0.144938011577
  CTD1    FNA     1  0.320723538531  0.144938011577
  CTD1   GA3P     1  0.189485248361  0.145299904804
  CTD1   GD3P     1  0.303351013527  0.173673803114
  CTD1      H     1  0.189271432669  0.089736802707
  CTD1     HA     1  0.286869387241  0.062058748940
  CTD1    HA1     1  0.288651184677  0.088756043175
  CTD1    HA2     1  0.288651184677  0.077149148019
  CTD1    HA3     1  0.288651184677  0.064818249282
  CTD1    HAL     1  0.286869387241  0.062058748940
  CTD1   HAL1     1  0.286869387241  0.062058748940
  CTD1   HAL2     1  0.288651184677  0.070011711020
  CTD1   HAL3     1  0.288651184677  0.064818249282
  CTD1     HB     1  0.286869387241  0.062058748940
  CTD1    HB1     1  0.286869387241  0.062058748940
  CTD1    HB2     1  0.288651184677  0.070011711020
  CTD1    HBL     1  0.286869387241  0.062058748940
  CTD1     HC     1  0.189271432669  0.089736802707
  CTD1   HCA1     1  0.288651184677  0.088756043175
  CTD1  HCA1A     1  0.288651184677  0.088756043175
  CTD1 HCA1C2     1  0.288651184677  0.088756043175
  CTD1   HCA2     1  0.288651184677  0.078275472531
  CTD1 HCA25A     1  0.285087589805  0.078275472531
  CTD1  HCA2A     1  0.288651184677  0.078275472531
  CTD1 HCA2C2     1  0.285087589805  0.078275472531
  CTD1   HCA3     1  0.288651184677  0.064818249282
  CTD1  HCA3A     1  0.288651184677  0.064818249282
  CTD1  HCA3M     1  0.288651184677  0.064818249282
  CTD1    HCL     1  0.189271432669  0.089736802707
  CTD1   HCP1     1  0.189271432669  0.089736802707
  CTD1  HCP1M     1  0.189271432669  0.089736802707
  CTD1   HCR1     1  0.240542653898  0.089736802707
  CTD1     HE     1  0.301123766731  0.061020452073
  CTD1    HE1     1  0.280633096214  0.073666921749
  CTD1    HE2     1  0.281523994932  0.067464972838
  CTD1   HEL1     1  0.280633096214  0.073666921749
  CTD1   HEL2     1  0.281523994932  0.067464972838
  CTD1    HF1     1  0.286869387241  0.070011711020
  CTD1    HF2     1  0.285087589805  0.072469005789
  CTD1   HG2P     1  0.274557166956  0.189623385225
  CTD1   HGA1     1  0.288651184677  0.088756043175
  CTD1   HGA2     1  0.288651184677  0.078275472531
  CTD1   HGA3     1  0.288651184677  0.064818249282
  CTD1   HGA4     1  0.280633096214  0.073666921749
  CTD1   HGA5     1  0.281523994932  0.067464972838
  CTD1   HGA6     1  0.286869387241  0.070011711020
  CTD1   HGA7     1  0.285087589805  0.072469005789
  CTD1 HGAAM0     1  0.283305792369  0.070011711020
  CTD1 HGAAM1     1  0.283305792369  0.070011711020
  CTD1 HGAAM2     1  0.281523994932  0.083680000000
  CTD1   HGP1     1  0.189271432669  0.089736802707
  CTD1   HGP2     1  0.189271432669  0.089736802707
  CTD1   HGP3     1  0.209361198763  0.132309697301
  CTD1   HGP4     1  0.189271432669  0.089736802707
  CTD1   HGP5     1  0.231633666716  0.089736802707
  CTD1 HGPAM1     1  0.247224394284  0.039692909190
  CTD1 HGPAM2     1  0.247224394284  0.041840000000
  CTD1 HGPAM3     1  0.246778944925  0.045833423612
  CTD1  HGR51     1  0.290272620344  0.072469005789
  CTD1  HGR52     1  0.249451641079  0.089736802707
  CTD1  HGR53     1  0.231633666716  0.089736802707
  CTD1  HGR61     1  0.290272620344  0.072469005789
  CTD1  HGR62     1  0.267269615442  0.089736802707
  CTD1  HGR63     1  0.249451641079  0.089736802707
  CTD1  HGR71     1  0.290272620344  0.072469005789
  CTD1     HL     1  0.231633666716  0.089736802707
  CTD1  HLGA1     1  0.288651184677  0.088756043175
  CTD1  HLGA2     1  0.288651184677  0.078275472531
  CTD1  HLGA3     1  0.288651184677  0.064818249282
  CTD1  HLGA4     1  0.280633096214  0.073666921749
  CTD1  HLGP1     1  0.189271432669  0.089736802707
  CTD1 HLGR52     1  0.249451641079  0.089736802707
  CTD1 HLGR61     1  0.290272620344  0.072469005789
  CTD1 HLGR62     1  0.267269615442  0.089736802707
  CTD1    HN1     1  0.189271432669  0.089736802707
  CTD1    HN2     1  0.189271432669  0.089736802707
  CTD1    HN3     1  0.267269615442  0.089736802707
  CTD1   HN3B     1  0.249451641079  0.089736802707
  CTD1    HN4     1  0.189271432669  0.089736802707
  CTD1    HN5     1  0.189271432669  0.089736802707
  CTD1    HN6     1  0.286869387241  0.062058748940
  CTD1    HN7     1  0.286869387241  0.062058748940
  CTD1    HN8     1  0.288651184677  0.070011711020
  CTD1    HN9     1  0.288651184677  0.064818249282
  CTD1   HNE1     1  0.280633096214  0.073666921749
  CTD1   HNE2     1  0.281523994932  0.067464972838
  CTD1    HNP     1  0.290272620344  0.072469005789
  CTD1   HO3P     1  0.293168041178  0.170263611896
  CTD1    HOL     1  0.189271432669  0.089736802707
  CTD1     HP     1  0.290272620344  0.072469005789
  CTD1   HPER     1  0.189271432669  0.089736802707
  CTD1    HR1     1  0.249451641079  0.089736802707
  CTD1    HR2     1  0.231633666716  0.089736802707
  CTD1    HR3     1  0.300054688270  0.036952087465
  CTD1   HRA3     1  0.288651184677  0.064818249282
  CTD1   HRM1     1  0.247224394284  0.039692909190
  CTD1   HRM2     1  0.247224394284  0.041840000000
  CTD1   HRP2     1  0.189271432669  0.089736802707
  CTD1     HS     1  0.209361198763  0.132309697301
  CTD1   HSIA     1  0.286869387241  0.062058748940
  CTD1   HSIO     1  0.189271432669  0.089736802707
  CTD1     HT     1  0.189271432669  0.089736802707
  CTD1     HX     1  0.189271432669  0.089736802707
  CTD1   IGR1     1  0.368832069310  0.301712530731
  CTD1   IN3P     1  0.246449312399  0.160580590010
  CTD1   LA3P     1  0.327200372211  0.182184255566
  CTD1    LIT     1  0.284864865125  0.020196198771
  CTD1    LPH     1  0.169270756447  0.000000000000
  CTD1   LU3P     1  0.289648991242  0.166731218816
  CTD1     MG     1  0.274842254546  0.051243325419
  CTD1   MN2P     1  0.276508235149  0.171747976291
  CTD1   MN3P     1  0.203516903172  0.148045032716
  CTD1      N     1  0.334087019303  0.004184000000
  CTD1     NC     1  0.334087019303  0.324091246411
  CTD1    NC2     1  0.334087019303  0.187114168357
  CTD1  NC2D1     1  0.307360057758  0.187114168357
  CTD1  NC311     1  0.347450500075  0.088756043175
  CTD1   ND3P     1  0.313587439798  0.177117175768
  CTD1     NE     1  0.305578260322  0.122698965603
  CTD1  NG1T1     1  0.328741626994  0.177512086349
  CTD1  NG2D1     1  0.334087019303  0.187114168357
  CTD1  NG2O1     1  0.334087019303  0.187114168357
  CTD1  NG2P1     1  0.334087019303  0.187114168357
  CTD1 NG2R43     1  0.334087019303  0.187114168357
  CTD1 NG2R50     1  0.334087019303  0.187114168357
  CTD1 NG2R51     1  0.334087019303  0.187114168357
  CTD1 NG2R52     1  0.334087019303  0.187114168357
  CTD1 NG2R53     1  0.334087019303  0.187114168357
  CTD1 NG2R57     1  0.334087019303  0.187114168357
  CTD1 NG2R60     1  0.337650614175  0.102486650838
  CTD1 NG2R61     1  0.334087019303  0.187114168357
  CTD1 NG2R62     1  0.352795892384  0.093557084179
  CTD1 NG2R67     1  0.334087019303  0.187114168357
  CTD1 NG2RC0     1  0.334087019303  0.187114168357
  CTD1  NG2S0     1  0.334087019303  0.004184000000
  CTD1  NG2S1     1  0.307360057758  0.187114168357
  CTD1  NG2S2     1  0.334087019303  0.187114168357
  CTD1  NG2S3     1  0.334087019303  0.187114168357
  CTD1  NG301     1  0.347450500075  0.078275472531
  CTD1  NG311     1  0.347450500075  0.088756043175
  CTD1  NG321     1  0.346559601357  0.102486650838
  CTD1  NG331     1  0.345668702638  0.110698234855
  CTD1 NG3C51     1  0.334087019303  0.187114168357
  CTD1  NG3N1     1  0.351904993665  0.102486650838
  CTD1  NG3P0     1  0.334087019303  0.187114168357
  CTD1  NG3P1     1  0.334087019303  0.187114168357
  CTD1  NG3P2     1  0.334087019303  0.187114168357
  CTD1  NG3P3     1  0.334087019303  0.187114168357
  CTD1    NH1     1  0.307360057758  0.187114168357
  CTD1    NH2     1  0.334087019303  0.187114168357
  CTD1    NH3     1  0.334087019303  0.187114168357
  CTD1   NH3L     1  0.334087019303  0.187114168357
  CTD1    NHL     1  0.307360057758  0.187114168357
  CTD1     NI     1  0.282949432881  0.994525446633
  CTD1   NI2P     1  0.238787583423  0.158440517242
  CTD1    NN1     1  0.334087019303  0.187114168357
  CTD1   NN1C     1  0.334087019303  0.187114168357
  CTD1    NN2     1  0.334087019303  0.187114168357
  CTD1   NN2B     1  0.334087019303  0.187114168357
  CTD1   NN2C     1  0.334087019303  0.187114168357
  CTD1   NN2G     1  0.334087019303  0.187114168357
  CTD1   NN2U     1  0.334087019303  0.187114168357
  CTD1    NN3     1  0.334087019303  0.187114168357
  CTD1   NN3A     1  0.334087019303  0.187114168357
  CTD1   NN3G     1  0.334087019303  0.187114168357
  CTD1   NN3I     1  0.334087019303  0.187114168357
  CTD1    NN4     1  0.334087019303  0.187114168357
  CTD1    NN6     1  0.334087019303  0.187114168357
  CTD1    NNG     1  0.334087019303  0.187114168357
  CTD1     NP     1  0.334087019303  0.187114168357
  CTD1    NPH     1  0.334087019303  0.187114168357
  CTD1    NR1     1  0.334087019303  0.187114168357
  CTD1    NR2     1  0.334087019303  0.187114168357
  CTD1    NR3     1  0.334087019303  0.187114168357
  CTD1   NRC4     1  0.334087019303  0.187114168357
  CTD1   NRN1     1  0.347450500075  0.280671252536
  CTD1   NRN2     1  0.346559601357  0.102486650838
  CTD1    NS1     1  0.334087019303  0.187114168357
  CTD1    NS2     1  0.334087019303  0.187114168357
  CTD1    NTL     1  0.334087019303  0.187114168357
  CTD1     NY     1  0.334087019303  0.187114168357
  CTD1      O     1  0.293996576986  0.144938011577
  CTD1    O2L     1  0.320723538531  0.144938011577
  CTD1    OAL     1  0.326959829558  0.163176000000
  CTD1     OB     1  0.293996576986  0.144938011577
  CTD1    OBL     1  0.293996576986  0.144938011577
  CTD1     OC     1  0.320723538531  0.144938011577
  CTD1  OC2D1     1  0.293996576986  0.144938011577
  CTD1  OC2D2     1  0.320723538531  0.144938011577
  CTD1  OC2D3     1  0.293996576986  0.144938011577
  CTD1  OC2D4     1  0.293996576986  0.144938011577
  CTD1  OC2DP     1  0.320723538531  0.144938011577
  CTD1  OC301     1  0.316269044940  0.132309697301
  CTD1  OC302     1  0.316269044940  0.132309697301
  CTD1  OC303     1  0.316269044940  0.132309697301
  CTD1 OC305A     1  0.316269044940  0.132309697301
  CTD1  OC30A     1  0.316269044940  0.132309697301
  CTD1  OC30P     1  0.326959829558  0.163176000000
  CTD1  OC311     1  0.326514380198  0.183381431383
  CTD1 OC311M     1  0.326514380198  0.183381431383
  CTD1  OC312     1  0.326959829558  0.163176000000
  CTD1 OC3C51     1  0.316269044940  0.132309697301
  CTD1 OC3C5M     1  0.316269044940  0.132309697301
  CTD1 OC3C61     1  0.316269044940  0.132309697301
  CTD1    OCA     1  0.293996576986  0.144938011577
  CTD1    OCL     1  0.320723538531  0.144938011577
  CTD1  OG2D1     1  0.293996576986  0.144938011577
  CTD1  OG2D2     1  0.320723538531  0.144938011577
  CTD1  OG2D3     1  0.293996576986  0.144938011577
  CTD1  OG2D4     1  0.320723538531  0.144938011577
  CTD1  OG2D5     1  0.320010819556  0.169954883425
  CTD1  OG2N1     1  0.320723538531  0.144938011577
  CTD1  OG2P1     1  0.320723538531  0.144938011577
  CTD1 OG2R50     1  0.320723538531  0.144938011577
  CTD1  OG2S1     1  0.318906105146  0.157831660601
  CTD1  OG301     1  0.316269044940  0.132309697301
  CTD1  OG302     1  0.316269044940  0.132309697301
  CTD1  OG303     1  0.316269044940  0.132309697301
  CTD1  OG304     1  0.316269044940  0.132309697301
  CTD1  OG311     1  0.326514380198  0.183381431383
  CTD1  OG312     1  0.325178032121  0.144938011577
  CTD1 OG3C31     1  0.316269044940  0.132309697301
  CTD1 OG3C51     1  0.316269044940  0.132309697301
  CTD1 OG3C61     1  0.316269044940  0.132309697301
  CTD1 OG3R60     1  0.316269044940  0.132309697301
  CTD1    OH1     1  0.326959829558  0.163176000000
  CTD1    OHL     1  0.326959829558  0.163176000000
  CTD1   OLG1     1  0.293996576986  0.144938011577
  CTD1   OLG2     1  0.320723538531  0.144938011577
  CTD1   OLG3     1  0.320723538531  0.144938011577
  CTD1   OLG4     1  0.316269044940  0.132309697301
  CTD1   OLG5     1  0.316269044940  0.132309697301
  CTD1   OLG6     1  0.326514380198  0.183381431383
  CTD1   OLG7     1  0.316269044940  0.132309697301
  CTD1   OLG8     1  0.316269044940  0.132309697301
  CTD1     OM     1  0.320723538531  0.144938011577
  CTD1    ON1     1  0.320723538531  0.144938011577
  CTD1   ON1C     1  0.320723538531  0.144938011577
  CTD1    ON2     1  0.326959829558  0.163176000000
  CTD1   ON2B     1  0.326959829558  0.163176000000
  CTD1   ON2M     1  0.316269044940  0.132309697301
  CTD1    ON3     1  0.320723538531  0.144938011577
  CTD1    ON4     1  0.326959829558  0.163176000000
  CTD1    ON5     1  0.326959829558  0.163176000000
  CTD1    ON6     1  0.326959829558  0.163176000000
  CTD1   ON6B     1  0.326959829558  0.163176000000
  CTD1   OPER     1  0.318427692534  0.188901923946
  CTD1     OS     1  0.326959829558  0.163176000000
  CTD1   OSIA     1  0.326959829558  0.163176000000
  CTD1   OSIE     1  0.326959829558  0.163176000000
  CTD1   OSIH     1  0.326959829558  0.163176000000
  CTD1    OSL     1  0.316269044940  0.132309697301
  CTD1   OSLP     1  0.316269044940  0.132309697301
  CTD1    OST     1  0.320010819556  0.169954883425
  CTD1     OT     1  0.326799467788  0.163176000000
  CTD1     OX     1  0.320723538531  0.144938011577
  CTD1      P     1  0.360813980847  0.320014464673
  CTD1     P2     1  0.360813980847  0.320014464673
  CTD1     P3     1  0.360813980847  0.320014464673
  CTD1     P4     1  0.360813980847  0.320014464673
  CTD1     PB     1  0.328073452955  0.716185437439
  CTD1   PB2P     1  0.325890751096  0.204716924713
  CTD1     PC     1  0.360813980847  0.320014464673
  CTD1     PD     1  0.294842930769  1.037598257516
  CTD1   PD2P     1  0.251865976605  0.174628752363
  CTD1    PG0     1  0.360813980847  0.320014464673
  CTD1    PG1     1  0.360813980847  0.320014464673
  CTD1    PG2     1  0.360813980847  0.320014464673
  CTD1     PL     1  0.360813980847  0.320014464673
  CTD1   PM3P     1  0.316910492017  0.176275053255
  CTD1    POT     1  0.326403017859  0.123410269913
  CTD1   PR3P     1  0.317079762773  0.178642591472
  CTD1     PT     1  0.296001099102  1.168527606863
  CTD1   PT2P     1  0.240284293270  0.168973521997
  CTD1   PU3P     1  0.318024115415  0.179522368790
  CTD1   RA2P     1  0.355459679551  0.229891668540
  CTD1   RH3P     1  0.210367914314  0.149983415617
  CTD1    RUB     1  0.338541512893  0.162045623205
  CTD1      S     1  0.347450500075  0.280671252536
  CTD1     SC     1  0.356359487256  0.286840588481
  CTD1   SC3P     1  0.266993436839  0.157109060719
  CTD1  SEGD1     1  0.363041227642  0.330244580395
  CTD1  SG2D1     1  0.351904993665  0.314496560236
  CTD1  SG2P1     1  0.355798221064  0.332305491450
  CTD1  SG2P2     1  0.352314807076  0.329421919951
  CTD1 SG2R50     1  0.347450500075  0.280671252536
  CTD1  SG301     1  0.345223253279  0.257919081884
  CTD1  SG302     1  0.365268474438  0.286840588481
  CTD1  SG311     1  0.347450500075  0.280671252536
  CTD1  SG3O1     1  0.356359487256  0.286840588481
  CTD1  SG3O2     1  0.347450500075  0.247528778125
  CTD1  SG3O3     1  0.347450500075  0.247528778125
  CTD1     SI     1  0.365268474438  0.324091246411
  CTD1   SIH3     1  0.365268474438  0.324091246411
  CTD1     SL     1  0.356359487256  0.286840588481
  CTD1     SM     1  0.345223253279  0.257919081884
  CTD1   SM2P     1  0.334666103469  0.207012887251
  CTD1   SM3P     1  0.308847858618  0.175378986746
  CTD1   SN2P     1  0.316981763914  0.181365662197
  CTD1    SOD     1  0.294954293108  0.090610410351
  CTD1     SP     1  0.365268474438  0.280671252536
  CTD1   SR2P     1  0.334612649546  0.200133451797
  CTD1     SS     1  0.365268474438  0.286840588481
  CTD1   TB3P     1  0.300678317372  0.172155203837
  CTD1   TI1P     1  0.341276571958  0.266826378666
  CTD1   TI3P     1  0.243117351193  0.149983415617
  CTD1   TL3P     1  0.246716582015  0.168869889039
  CTD1   TM3P     1  0.289417357575  0.168402751521
  CTD1    U3P     1  0.320830446377  0.182184255566
  CTD1    V2P     1  0.267599247968  0.167830039933
  CTD1    V3P     1  0.223989755715  0.147096016316
  CTD1    Y3P     1  0.295190381269  0.170263611896
  CTD1   YB2P     1  0.312616360195  0.189623385225
  CTD1   YB3P     1  0.284659958420  0.167569069413
  CTD1     ZN     1  0.266378716724  0.209200000000
  CTL1   CTL1     1  0.338541512893  0.041840000000
  CTL1   CTL2     1  0.338541512893  0.041840000000
  CTL1   CTL3     1  0.338541512893  0.041840000000
  CTL1   CTL5     1  0.338541512893  0.041840000000
  CTL1   CTO1     1  0.338541512893  0.041840000000
  CTL1   CTO2     1  0.338541512893  0.041840000000
  CTL1     CU     1  0.285800308779  0.908997471504
  CTL1   CU1P     1  0.246066225950  0.180057894334
  CTL1   CU2P     1  0.233869822499  0.162315474555
  CTL1     CY     1  0.346559601357  0.113045454929
  CTL1    DUM     1  0.169270756447  0.000000000000
  CTL1   DY3P     1  0.297952167295  0.171135318061
  CTL1   ER3P     1  0.291083338178  0.169232326746
  CTL1   EU2P     1  0.333231756533  0.203602227414
  CTL1   EU3P     1  0.304954631219  0.174528477447
  CTL1     F1     1  0.314487247504  0.153729976257
  CTL1     F2     1  0.314487247504  0.135577095411
  CTL1     F3     1  0.311814551349  0.130309939452
  CTL1     FA     1  0.320723538531  0.144938011577
  CTL1     FE     1  0.227179173126  0.000000000000
  CTL1   FE2P     1  0.265496726993  0.167098295383
  CTL1   FE3P     1  0.219722350855  0.148045032716
  CTL1   FGA1     1  0.314487247504  0.153729976257
  CTL1   FGA2     1  0.314487247504  0.135577095411
  CTL1   FGA3     1  0.311814551349  0.130309939452
  CTL1   FGP1     1  0.311814551349  0.130309939452
  CTL1   FGR1     1  0.320723538531  0.144938011577
  CTL1    FNA     1  0.320723538531  0.144938011577
  CTL1   GA3P     1  0.189485248361  0.145299904804
  CTL1   GD3P     1  0.303351013527  0.173673803114
  CTL1      H     1  0.189271432669  0.089736802707
  CTL1     HA     1  0.286869387241  0.062058748940
  CTL1    HA1     1  0.288651184677  0.088756043175
  CTL1    HA2     1  0.288651184677  0.077149148019
  CTL1    HA3     1  0.288651184677  0.064818249282
  CTL1    HAL     1  0.286869387241  0.062058748940
  CTL1   HAL1     1  0.286869387241  0.062058748940
  CTL1   HAL2     1  0.288651184677  0.070011711020
  CTL1   HAL3     1  0.288651184677  0.064818249282
  CTL1     HB     1  0.286869387241  0.062058748940
  CTL1    HB1     1  0.286869387241  0.062058748940
  CTL1    HB2     1  0.288651184677  0.070011711020
  CTL1    HBL     1  0.286869387241  0.062058748940
  CTL1     HC     1  0.189271432669  0.089736802707
  CTL1   HCA1     1  0.288651184677  0.088756043175
  CTL1  HCA1A     1  0.288651184677  0.088756043175
  CTL1 HCA1C2     1  0.288651184677  0.088756043175
  CTL1   HCA2     1  0.288651184677  0.078275472531
  CTL1 HCA25A     1  0.285087589805  0.078275472531
  CTL1  HCA2A     1  0.288651184677  0.078275472531
  CTL1 HCA2C2     1  0.285087589805  0.078275472531
  CTL1   HCA3     1  0.288651184677  0.064818249282
  CTL1  HCA3A     1  0.288651184677  0.064818249282
  CTL1  HCA3M     1  0.288651184677  0.064818249282
  CTL1    HCL     1  0.189271432669  0.089736802707
  CTL1   HCP1     1  0.189271432669  0.089736802707
  CTL1  HCP1M     1  0.189271432669  0.089736802707
  CTL1   HCR1     1  0.240542653898  0.089736802707
  CTL1     HE     1  0.301123766731  0.061020452073
  CTL1    HE1     1  0.280633096214  0.073666921749
  CTL1    HE2     1  0.281523994932  0.067464972838
  CTL1   HEL1     1  0.280633096214  0.073666921749
  CTL1   HEL2     1  0.281523994932  0.067464972838
  CTL1    HF1     1  0.286869387241  0.070011711020
  CTL1    HF2     1  0.285087589805  0.072469005789
  CTL1   HG2P     1  0.274557166956  0.189623385225
  CTL1   HGA1     1  0.297560171859  0.128867200000
  CTL1   HGA2     1  0.297560171859  0.113386400000
  CTL1   HGA3     1  0.288651184677  0.064818249282
  CTL1   HGA4     1  0.280633096214  0.073666921749
  CTL1   HGA5     1  0.281523994932  0.067464972838
  CTL1   HGA6     1  0.286869387241  0.070011711020
  CTL1   HGA7     1  0.285087589805  0.072469005789
  CTL1 HGAAM0     1  0.283305792369  0.070011711020
  CTL1 HGAAM1     1  0.283305792369  0.070011711020
  CTL1 HGAAM2     1  0.281523994932  0.083680000000
  CTL1   HGP1     1  0.189271432669  0.089736802707
  CTL1   HGP2     1  0.189271432669  0.089736802707
  CTL1   HGP3     1  0.209361198763  0.132309697301
  CTL1   HGP4     1  0.189271432669  0.089736802707
  CTL1   HGP5     1  0.231633666716  0.089736802707
  CTL1 HGPAM1     1  0.247224394284  0.039692909190
  CTL1 HGPAM2     1  0.247224394284  0.041840000000
  CTL1 HGPAM3     1  0.246778944925  0.045833423612
  CTL1  HGR51     1  0.290272620344  0.072469005789
  CTL1  HGR52     1  0.249451641079  0.089736802707
  CTL1  HGR53     1  0.231633666716  0.089736802707
  CTL1  HGR61     1  0.290272620344  0.072469005789
  CTL1  HGR62     1  0.267269615442  0.089736802707
  CTL1  HGR63     1  0.249451641079  0.089736802707
  CTL1  HGR71     1  0.290272620344  0.072469005789
  CTL1     HL     1  0.231633666716  0.089736802707
  CTL1  HLGA1     1  0.288651184677  0.088756043175
  CTL1  HLGA2     1  0.288651184677  0.078275472531
  CTL1  HLGA3     1  0.288651184677  0.064818249282
  CTL1  HLGA4     1  0.280633096214  0.073666921749
  CTL1  HLGP1     1  0.189271432669  0.089736802707
  CTL1 HLGR52     1  0.249451641079  0.089736802707
  CTL1 HLGR61     1  0.290272620344  0.072469005789
  CTL1 HLGR62     1  0.267269615442  0.089736802707
  CTL1    HN1     1  0.189271432669  0.089736802707
  CTL1    HN2     1  0.189271432669  0.089736802707
  CTL1    HN3     1  0.267269615442  0.089736802707
  CTL1   HN3B     1  0.249451641079  0.089736802707
  CTL1    HN4     1  0.189271432669  0.089736802707
  CTL1    HN5     1  0.189271432669  0.089736802707
  CTL1    HN6     1  0.286869387241  0.062058748940
  CTL1    HN7     1  0.286869387241  0.062058748940
  CTL1    HN8     1  0.288651184677  0.070011711020
  CTL1    HN9     1  0.288651184677  0.064818249282
  CTL1   HNE1     1  0.280633096214  0.073666921749
  CTL1   HNE2     1  0.281523994932  0.067464972838
  CTL1    HNP     1  0.290272620344  0.072469005789
  CTL1   HO3P     1  0.293168041178  0.170263611896
  CTL1    HOL     1  0.189271432669  0.089736802707
  CTL1     HP     1  0.290272620344  0.072469005789
  CTL1   HPER     1  0.189271432669  0.089736802707
  CTL1    HR1     1  0.249451641079  0.089736802707
  CTL1    HR2     1  0.231633666716  0.089736802707
  CTL1    HR3     1  0.300054688270  0.036952087465
  CTL1   HRA3     1  0.288651184677  0.064818249282
  CTL1   HRM1     1  0.247224394284  0.039692909190
  CTL1   HRM2     1  0.247224394284  0.041840000000
  CTL1   HRP2     1  0.189271432669  0.089736802707
  CTL1     HS     1  0.209361198763  0.132309697301
  CTL1   HSIA     1  0.286869387241  0.062058748940
  CTL1   HSIO     1  0.189271432669  0.089736802707
  CTL1     HT     1  0.189271432669  0.089736802707
  CTL1     HX     1  0.189271432669  0.089736802707
  CTL1   IGR1     1  0.368832069310  0.301712530731
  CTL1   IN3P     1  0.246449312399  0.160580590010
  CTL1   LA3P     1  0.327200372211  0.182184255566
  CTL1    LIT     1  0.284864865125  0.020196198771
  CTL1    LPH     1  0.169270756447  0.000000000000
  CTL1   LU3P     1  0.289648991242  0.166731218816
  CTL1     MG     1  0.274842254546  0.051243325419
  CTL1   MN2P     1  0.276508235149  0.171747976291
  CTL1   MN3P     1  0.203516903172  0.148045032716
  CTL1      N     1  0.334087019303  0.004184000000
  CTL1     NC     1  0.334087019303  0.324091246411
  CTL1    NC2     1  0.334087019303  0.187114168357
  CTL1  NC2D1     1  0.307360057758  0.187114168357
  CTL1  NC311     1  0.347450500075  0.088756043175
  CTL1   ND3P     1  0.313587439798  0.177117175768
  CTL1     NE     1  0.305578260322  0.122698965603
  CTL1  NG1T1     1  0.328741626994  0.177512086349
  CTL1  NG2D1     1  0.334087019303  0.187114168357
  CTL1  NG2O1     1  0.334087019303  0.187114168357
  CTL1  NG2P1     1  0.334087019303  0.187114168357
  CTL1 NG2R43     1  0.334087019303  0.187114168357
  CTL1 NG2R50     1  0.334087019303  0.187114168357
  CTL1 NG2R51     1  0.334087019303  0.187114168357
  CTL1 NG2R52     1  0.334087019303  0.187114168357
  CTL1 NG2R53     1  0.334087019303  0.187114168357
  CTL1 NG2R57     1  0.334087019303  0.187114168357
  CTL1 NG2R60     1  0.337650614175  0.102486650838
  CTL1 NG2R61     1  0.334087019303  0.187114168357
  CTL1 NG2R62     1  0.352795892384  0.093557084179
  CTL1 NG2R67     1  0.334087019303  0.187114168357
  CTL1 NG2RC0     1  0.334087019303  0.187114168357
  CTL1  NG2S0     1  0.334087019303  0.004184000000
  CTL1  NG2S1     1  0.307360057758  0.187114168357
  CTL1  NG2S2     1  0.334087019303  0.187114168357
  CTL1  NG2S3     1  0.334087019303  0.187114168357
  CTL1  NG301     1  0.347450500075  0.078275472531
  CTL1  NG311     1  0.347450500075  0.088756043175
  CTL1  NG321     1  0.346559601357  0.102486650838
  CTL1  NG331     1  0.345668702638  0.110698234855
  CTL1 NG3C51     1  0.334087019303  0.187114168357
  CTL1  NG3N1     1  0.351904993665  0.102486650838
  CTL1  NG3P0     1  0.334087019303  0.187114168357
  CTL1  NG3P1     1  0.334087019303  0.187114168357
  CTL1  NG3P2     1  0.334087019303  0.187114168357
  CTL1  NG3P3     1  0.334087019303  0.187114168357
  CTL1    NH1     1  0.307360057758  0.187114168357
  CTL1    NH2     1  0.334087019303  0.187114168357
  CTL1    NH3     1  0.334087019303  0.187114168357
  CTL1   NH3L     1  0.334087019303  0.187114168357
  CTL1    NHL     1  0.307360057758  0.187114168357
  CTL1     NI     1  0.282949432881  0.994525446633
  CTL1   NI2P     1  0.238787583423  0.158440517242
  CTL1    NN1     1  0.334087019303  0.187114168357
  CTL1   NN1C     1  0.334087019303  0.187114168357
  CTL1    NN2     1  0.334087019303  0.187114168357
  CTL1   NN2B     1  0.334087019303  0.187114168357
  CTL1   NN2C     1  0.334087019303  0.187114168357
  CTL1   NN2G     1  0.334087019303  0.187114168357
  CTL1   NN2U     1  0.334087019303  0.187114168357
  CTL1    NN3     1  0.334087019303  0.187114168357
  CTL1   NN3A     1  0.334087019303  0.187114168357
  CTL1   NN3G     1  0.334087019303  0.187114168357
  CTL1   NN3I     1  0.334087019303  0.187114168357
  CTL1    NN4     1  0.334087019303  0.187114168357
  CTL1    NN6     1  0.334087019303  0.187114168357
  CTL1    NNG     1  0.334087019303  0.187114168357
  CTL1     NP     1  0.334087019303  0.187114168357
  CTL1    NPH     1  0.334087019303  0.187114168357
  CTL1    NR1     1  0.334087019303  0.187114168357
  CTL1    NR2     1  0.334087019303  0.187114168357
  CTL1    NR3     1  0.334087019303  0.187114168357
  CTL1   NRC4     1  0.334087019303  0.187114168357
  CTL1   NRN1     1  0.347450500075  0.280671252536
  CTL1   NRN2     1  0.346559601357  0.102486650838
  CTL1    NS1     1  0.334087019303  0.187114168357
  CTL1    NS2     1  0.334087019303  0.187114168357
  CTL1    NTL     1  0.334087019303  0.187114168357
  CTL1     NY     1  0.334087019303  0.187114168357
  CTL1      O     1  0.293996576986  0.144938011577
  CTL1    O2L     1  0.320723538531  0.144938011577
  CTL1    OAL     1  0.326959829558  0.163176000000
  CTL1     OB     1  0.293996576986  0.144938011577
  CTL1    OBL     1  0.293996576986  0.144938011577
  CTL1     OC     1  0.320723538531  0.144938011577
  CTL1  OC2D1     1  0.293996576986  0.144938011577
  CTL1  OC2D2     1  0.320723538531  0.144938011577
  CTL1  OC2D3     1  0.293996576986  0.144938011577
  CTL1  OC2D4     1  0.293996576986  0.144938011577
  CTL1  OC2DP     1  0.320723538531  0.144938011577
  CTL1  OC301     1  0.316269044940  0.132309697301
  CTL1  OC302     1  0.316269044940  0.132309697301
  CTL1  OC303     1  0.316269044940  0.132309697301
  CTL1 OC305A     1  0.316269044940  0.132309697301
  CTL1  OC30A     1  0.316269044940  0.132309697301
  CTL1  OC30P     1  0.326959829558  0.163176000000
  CTL1  OC311     1  0.326514380198  0.183381431383
  CTL1 OC311M     1  0.326514380198  0.183381431383
  CTL1  OC312     1  0.326959829558  0.163176000000
  CTL1 OC3C51     1  0.316269044940  0.132309697301
  CTL1 OC3C5M     1  0.316269044940  0.132309697301
  CTL1 OC3C61     1  0.316269044940  0.132309697301
  CTL1    OCA     1  0.293996576986  0.144938011577
  CTL1    OCL     1  0.320723538531  0.144938011577
  CTL1  OG2D1     1  0.293996576986  0.144938011577
  CTL1  OG2D2     1  0.320723538531  0.144938011577
  CTL1  OG2D3     1  0.293996576986  0.144938011577
  CTL1  OG2D4     1  0.320723538531  0.144938011577
  CTL1  OG2D5     1  0.320010819556  0.169954883425
  CTL1  OG2N1     1  0.320723538531  0.144938011577
  CTL1  OG2P1     1  0.320723538531  0.144938011577
  CTL1 OG2R50     1  0.320723538531  0.144938011577
  CTL1  OG2S1     1  0.318906105146  0.157831660601
  CTL1  OG301     1  0.316269044940  0.132309697301
  CTL1  OG302     1  0.316269044940  0.132309697301
  CTL1  OG303     1  0.316269044940  0.132309697301
  CTL1  OG304     1  0.316269044940  0.132309697301
  CTL1  OG311     1  0.326514380198  0.183381431383
  CTL1  OG312     1  0.325178032121  0.144938011577
  CTL1 OG3C31     1  0.316269044940  0.132309697301
  CTL1 OG3C51     1  0.316269044940  0.132309697301
  CTL1 OG3C61     1  0.316269044940  0.132309697301
  CTL1 OG3R60     1  0.316269044940  0.132309697301
  CTL1    OH1     1  0.326959829558  0.163176000000
  CTL1    OHL     1  0.326959829558  0.163176000000
  CTL1   OLG1     1  0.293996576986  0.144938011577
  CTL1   OLG2     1  0.320723538531  0.144938011577
  CTL1   OLG3     1  0.320723538531  0.144938011577
  CTL1   OLG4     1  0.316269044940  0.132309697301
  CTL1   OLG5     1  0.316269044940  0.132309697301
  CTL1   OLG6     1  0.326514380198  0.183381431383
  CTL1   OLG7     1  0.316269044940  0.132309697301
  CTL1   OLG8     1  0.316269044940  0.132309697301
  CTL1     OM     1  0.320723538531  0.144938011577
  CTL1    ON1     1  0.320723538531  0.144938011577
  CTL1   ON1C     1  0.320723538531  0.144938011577
  CTL1    ON2     1  0.326959829558  0.163176000000
  CTL1   ON2B     1  0.326959829558  0.163176000000
  CTL1   ON2M     1  0.316269044940  0.132309697301
  CTL1    ON3     1  0.320723538531  0.144938011577
  CTL1    ON4     1  0.326959829558  0.163176000000
  CTL1    ON5     1  0.326959829558  0.163176000000
  CTL1    ON6     1  0.326959829558  0.163176000000
  CTL1   ON6B     1  0.326959829558  0.163176000000
  CTL1   OPER     1  0.318427692534  0.188901923946
  CTL1     OS     1  0.326959829558  0.163176000000
  CTL1   OSIA     1  0.326959829558  0.163176000000
  CTL1   OSIE     1  0.326959829558  0.163176000000
  CTL1   OSIH     1  0.326959829558  0.163176000000
  CTL1    OSL     1  0.316269044940  0.132309697301
  CTL1   OSLP     1  0.316269044940  0.132309697301
  CTL1    OST     1  0.320010819556  0.169954883425
  CTL1     OT     1  0.326799467788  0.163176000000
  CTL1     OX     1  0.320723538531  0.144938011577
  CTL1      P     1  0.360813980847  0.320014464673
  CTL1     P2     1  0.360813980847  0.320014464673
  CTL1     P3     1  0.360813980847  0.320014464673
  CTL1     P4     1  0.360813980847  0.320014464673
  CTL1     PB     1  0.328073452955  0.716185437439
  CTL1   PB2P     1  0.325890751096  0.204716924713
  CTL1     PC     1  0.360813980847  0.320014464673
  CTL1     PD     1  0.294842930769  1.037598257516
  CTL1   PD2P     1  0.251865976605  0.174628752363
  CTL1    PG0     1  0.360813980847  0.320014464673
  CTL1    PG1     1  0.360813980847  0.320014464673
  CTL1    PG2     1  0.360813980847  0.320014464673
  CTL1     PL     1  0.360813980847  0.320014464673
  CTL1   PM3P     1  0.316910492017  0.176275053255
  CTL1    POT     1  0.326403017859  0.123410269913
  CTL1   PR3P     1  0.317079762773  0.178642591472
  CTL1     PT     1  0.296001099102  1.168527606863
  CTL1   PT2P     1  0.240284293270  0.168973521997
  CTL1   PU3P     1  0.318024115415  0.179522368790
  CTL1   RA2P     1  0.355459679551  0.229891668540
  CTL1   RH3P     1  0.210367914314  0.149983415617
  CTL1    RUB     1  0.338541512893  0.162045623205
  CTL1      S     1  0.347450500075  0.280671252536
  CTL1     SC     1  0.356359487256  0.286840588481
  CTL1   SC3P     1  0.266993436839  0.157109060719
  CTL1  SEGD1     1  0.363041227642  0.330244580395
  CTL1  SG2D1     1  0.351904993665  0.314496560236
  CTL1  SG2P1     1  0.355798221064  0.332305491450
  CTL1  SG2P2     1  0.352314807076  0.329421919951
  CTL1 SG2R50     1  0.347450500075  0.280671252536
  CTL1  SG301     1  0.345223253279  0.257919081884
  CTL1  SG302     1  0.365268474438  0.286840588481
  CTL1  SG311     1  0.347450500075  0.280671252536
  CTL1  SG3O1     1  0.356359487256  0.286840588481
  CTL1  SG3O2     1  0.347450500075  0.247528778125
  CTL1  SG3O3     1  0.347450500075  0.247528778125
  CTL1     SI     1  0.365268474438  0.324091246411
  CTL1   SIH3     1  0.365268474438  0.324091246411
  CTL1     SL     1  0.356359487256  0.286840588481
  CTL1     SM     1  0.345223253279  0.257919081884
  CTL1   SM2P     1  0.334666103469  0.207012887251
  CTL1   SM3P     1  0.308847858618  0.175378986746
  CTL1   SN2P     1  0.316981763914  0.181365662197
  CTL1    SOD     1  0.294954293108  0.090610410351
  CTL1     SP     1  0.365268474438  0.280671252536
  CTL1   SR2P     1  0.334612649546  0.200133451797
  CTL1     SS     1  0.365268474438  0.286840588481
  CTL1   TB3P     1  0.300678317372  0.172155203837
  CTL1   TI1P     1  0.341276571958  0.266826378666
  CTL1   TI3P     1  0.243117351193  0.149983415617
  CTL1   TL3P     1  0.246716582015  0.168869889039
  CTL1   TM3P     1  0.289417357575  0.168402751521
  CTL1    U3P     1  0.320830446377  0.182184255566
  CTL1    V2P     1  0.267599247968  0.167830039933
  CTL1    V3P     1  0.223989755715  0.147096016316
  CTL1    Y3P     1  0.295190381269  0.170263611896
  CTL1   YB2P     1  0.312616360195  0.189623385225
  CTL1   YB3P     1  0.284659958420  0.167569069413
  CTL1     ZN     1  0.266378716724  0.209200000000
  CTL2   CTL2     1  0.338541512893  0.041840000000
  CTL2   CTL3     1  0.338541512893  0.041840000000
  CTL2   CTL5     1  0.338541512893  0.041840000000
  CTL2   CTO1     1  0.338541512893  0.041840000000
  CTL2   CTO2     1  0.338541512893  0.041840000000
  CTL2     CU     1  0.285800308779  0.908997471504
  CTL2   CU1P     1  0.246066225950  0.180057894334
  CTL2   CU2P     1  0.233869822499  0.162315474555
  CTL2     CY     1  0.346559601357  0.113045454929
  CTL2    DUM     1  0.169270756447  0.000000000000
  CTL2   DY3P     1  0.297952167295  0.171135318061
  CTL2   ER3P     1  0.291083338178  0.169232326746
  CTL2   EU2P     1  0.333231756533  0.203602227414
  CTL2   EU3P     1  0.304954631219  0.174528477447
  CTL2     F1     1  0.314487247504  0.153729976257
  CTL2     F2     1  0.314487247504  0.135577095411
  CTL2     F3     1  0.311814551349  0.130309939452
  CTL2     FA     1  0.320723538531  0.144938011577
  CTL2     FE     1  0.227179173126  0.000000000000
  CTL2   FE2P     1  0.265496726993  0.167098295383
  CTL2   FE3P     1  0.219722350855  0.148045032716
  CTL2   FGA1     1  0.314487247504  0.153729976257
  CTL2   FGA2     1  0.314487247504  0.135577095411
  CTL2   FGA3     1  0.311814551349  0.130309939452
  CTL2   FGP1     1  0.311814551349  0.130309939452
  CTL2   FGR1     1  0.320723538531  0.144938011577
  CTL2    FNA     1  0.320723538531  0.144938011577
  CTL2   GA3P     1  0.189485248361  0.145299904804
  CTL2   GD3P     1  0.303351013527  0.173673803114
  CTL2      H     1  0.189271432669  0.089736802707
  CTL2     HA     1  0.286869387241  0.062058748940
  CTL2    HA1     1  0.288651184677  0.088756043175
  CTL2    HA2     1  0.288651184677  0.077149148019
  CTL2    HA3     1  0.288651184677  0.064818249282
  CTL2    HAL     1  0.286869387241  0.062058748940
  CTL2   HAL1     1  0.286869387241  0.062058748940
  CTL2   HAL2     1  0.288651184677  0.070011711020
  CTL2   HAL3     1  0.288651184677  0.064818249282
  CTL2     HB     1  0.286869387241  0.062058748940
  CTL2    HB1     1  0.286869387241  0.062058748940
  CTL2    HB2     1  0.288651184677  0.070011711020
  CTL2    HBL     1  0.286869387241  0.062058748940
  CTL2     HC     1  0.189271432669  0.089736802707
  CTL2   HCA1     1  0.288651184677  0.088756043175
  CTL2  HCA1A     1  0.288651184677  0.088756043175
  CTL2 HCA1C2     1  0.288651184677  0.088756043175
  CTL2   HCA2     1  0.288651184677  0.078275472531
  CTL2 HCA25A     1  0.285087589805  0.078275472531
  CTL2  HCA2A     1  0.288651184677  0.078275472531
  CTL2 HCA2C2     1  0.285087589805  0.078275472531
  CTL2   HCA3     1  0.288651184677  0.064818249282
  CTL2  HCA3A     1  0.288651184677  0.064818249282
  CTL2  HCA3M     1  0.288651184677  0.064818249282
  CTL2    HCL     1  0.189271432669  0.089736802707
  CTL2   HCP1     1  0.189271432669  0.089736802707
  CTL2  HCP1M     1  0.189271432669  0.089736802707
  CTL2   HCR1     1  0.240542653898  0.089736802707
  CTL2     HE     1  0.301123766731  0.061020452073
  CTL2    HE1     1  0.280633096214  0.073666921749
  CTL2    HE2     1  0.281523994932  0.067464972838
  CTL2   HEL1     1  0.280633096214  0.073666921749
  CTL2   HEL2     1  0.281523994932  0.067464972838
  CTL2    HF1     1  0.286869387241  0.070011711020
  CTL2    HF2     1  0.285087589805  0.072469005789
  CTL2   HG2P     1  0.274557166956  0.189623385225
  CTL2   HGA1     1  0.288651184677  0.088756043175
  CTL2   HGA2     1  0.288651184677  0.078275472531
  CTL2   HGA3     1  0.288651184677  0.064818249282
  CTL2   HGA4     1  0.280633096214  0.073666921749
  CTL2   HGA5     1  0.281523994932  0.067464972838
  CTL2   HGA6     1  0.286869387241  0.070011711020
  CTL2   HGA7     1  0.285087589805  0.072469005789
  CTL2 HGAAM0     1  0.283305792369  0.070011711020
  CTL2 HGAAM1     1  0.283305792369  0.070011711020
  CTL2 HGAAM2     1  0.281523994932  0.083680000000
  CTL2   HGP1     1  0.189271432669  0.089736802707
  CTL2   HGP2     1  0.189271432669  0.089736802707
  CTL2   HGP3     1  0.209361198763  0.132309697301
  CTL2   HGP4     1  0.189271432669  0.089736802707
  CTL2   HGP5     1  0.231633666716  0.089736802707
  CTL2 HGPAM1     1  0.247224394284  0.039692909190
  CTL2 HGPAM2     1  0.247224394284  0.041840000000
  CTL2 HGPAM3     1  0.246778944925  0.045833423612
  CTL2  HGR51     1  0.290272620344  0.072469005789
  CTL2  HGR52     1  0.249451641079  0.089736802707
  CTL2  HGR53     1  0.231633666716  0.089736802707
  CTL2  HGR61     1  0.290272620344  0.072469005789
  CTL2  HGR62     1  0.267269615442  0.089736802707
  CTL2  HGR63     1  0.249451641079  0.089736802707
  CTL2  HGR71     1  0.290272620344  0.072469005789
  CTL2     HL     1  0.231633666716  0.089736802707
  CTL2  HLGA1     1  0.288651184677  0.088756043175
  CTL2  HLGA2     1  0.288651184677  0.078275472531
  CTL2  HLGA3     1  0.288651184677  0.064818249282
  CTL2  HLGA4     1  0.280633096214  0.073666921749
  CTL2  HLGP1     1  0.189271432669  0.089736802707
  CTL2 HLGR52     1  0.249451641079  0.089736802707
  CTL2 HLGR61     1  0.290272620344  0.072469005789
  CTL2 HLGR62     1  0.267269615442  0.089736802707
  CTL2    HN1     1  0.189271432669  0.089736802707
  CTL2    HN2     1  0.189271432669  0.089736802707
  CTL2    HN3     1  0.267269615442  0.089736802707
  CTL2   HN3B     1  0.249451641079  0.089736802707
  CTL2    HN4     1  0.189271432669  0.089736802707
  CTL2    HN5     1  0.189271432669  0.089736802707
  CTL2    HN6     1  0.286869387241  0.062058748940
  CTL2    HN7     1  0.286869387241  0.062058748940
  CTL2    HN8     1  0.288651184677  0.070011711020
  CTL2    HN9     1  0.288651184677  0.064818249282
  CTL2   HNE1     1  0.280633096214  0.073666921749
  CTL2   HNE2     1  0.281523994932  0.067464972838
  CTL2    HNP     1  0.290272620344  0.072469005789
  CTL2   HO3P     1  0.293168041178  0.170263611896
  CTL2    HOL     1  0.189271432669  0.089736802707
  CTL2     HP     1  0.290272620344  0.072469005789
  CTL2   HPER     1  0.189271432669  0.089736802707
  CTL2    HR1     1  0.249451641079  0.089736802707
  CTL2    HR2     1  0.231633666716  0.089736802707
  CTL2    HR3     1  0.300054688270  0.036952087465
  CTL2   HRA3     1  0.288651184677  0.064818249282
  CTL2   HRM1     1  0.247224394284  0.039692909190
  CTL2   HRM2     1  0.247224394284  0.041840000000
  CTL2   HRP2     1  0.189271432669  0.089736802707
  CTL2     HS     1  0.209361198763  0.132309697301
  CTL2   HSIA     1  0.286869387241  0.062058748940
  CTL2   HSIO     1  0.189271432669  0.089736802707
  CTL2     HT     1  0.189271432669  0.089736802707
  CTL2     HX     1  0.189271432669  0.089736802707
  CTL2   IGR1     1  0.368832069310  0.301712530731
  CTL2   IN3P     1  0.246449312399  0.160580590010
  CTL2   LA3P     1  0.327200372211  0.182184255566
  CTL2    LIT     1  0.284864865125  0.020196198771
  CTL2    LPH     1  0.169270756447  0.000000000000
  CTL2   LU3P     1  0.289648991242  0.166731218816
  CTL2     MG     1  0.274842254546  0.051243325419
  CTL2   MN2P     1  0.276508235149  0.171747976291
  CTL2   MN3P     1  0.203516903172  0.148045032716
  CTL2      N     1  0.334087019303  0.004184000000
  CTL2     NC     1  0.334087019303  0.324091246411
  CTL2    NC2     1  0.334087019303  0.187114168357
  CTL2  NC2D1     1  0.307360057758  0.187114168357
  CTL2  NC311     1  0.347450500075  0.088756043175
  CTL2   ND3P     1  0.313587439798  0.177117175768
  CTL2     NE     1  0.305578260322  0.122698965603
  CTL2  NG1T1     1  0.328741626994  0.177512086349
  CTL2  NG2D1     1  0.334087019303  0.187114168357
  CTL2  NG2O1     1  0.334087019303  0.187114168357
  CTL2  NG2P1     1  0.334087019303  0.187114168357
  CTL2 NG2R43     1  0.334087019303  0.187114168357
  CTL2 NG2R50     1  0.334087019303  0.187114168357
  CTL2 NG2R51     1  0.334087019303  0.187114168357
  CTL2 NG2R52     1  0.334087019303  0.187114168357
  CTL2 NG2R53     1  0.334087019303  0.187114168357
  CTL2 NG2R57     1  0.334087019303  0.187114168357
  CTL2 NG2R60     1  0.337650614175  0.102486650838
  CTL2 NG2R61     1  0.334087019303  0.187114168357
  CTL2 NG2R62     1  0.352795892384  0.093557084179
  CTL2 NG2R67     1  0.334087019303  0.187114168357
  CTL2 NG2RC0     1  0.334087019303  0.187114168357
  CTL2  NG2S0     1  0.334087019303  0.004184000000
  CTL2  NG2S1     1  0.307360057758  0.187114168357
  CTL2  NG2S2     1  0.334087019303  0.187114168357
  CTL2  NG2S3     1  0.334087019303  0.187114168357
  CTL2  NG301     1  0.347450500075  0.078275472531
  CTL2  NG311     1  0.347450500075  0.088756043175
  CTL2  NG321     1  0.346559601357  0.102486650838
  CTL2  NG331     1  0.345668702638  0.110698234855
  CTL2 NG3C51     1  0.334087019303  0.187114168357
  CTL2  NG3N1     1  0.351904993665  0.102486650838
  CTL2  NG3P0     1  0.334087019303  0.187114168357
  CTL2  NG3P1     1  0.334087019303  0.187114168357
  CTL2  NG3P2     1  0.334087019303  0.187114168357
  CTL2  NG3P3     1  0.334087019303  0.187114168357
  CTL2    NH1     1  0.307360057758  0.187114168357
  CTL2    NH2     1  0.334087019303  0.187114168357
  CTL2    NH3     1  0.334087019303  0.187114168357
  CTL2   NH3L     1  0.334087019303  0.187114168357
  CTL2    NHL     1  0.307360057758  0.187114168357
  CTL2     NI     1  0.282949432881  0.994525446633
  CTL2   NI2P     1  0.238787583423  0.158440517242
  CTL2    NN1     1  0.334087019303  0.187114168357
  CTL2   NN1C     1  0.334087019303  0.187114168357
  CTL2    NN2     1  0.334087019303  0.187114168357
  CTL2   NN2B     1  0.334087019303  0.187114168357
  CTL2   NN2C     1  0.334087019303  0.187114168357
  CTL2   NN2G     1  0.334087019303  0.187114168357
  CTL2   NN2U     1  0.334087019303  0.187114168357
  CTL2    NN3     1  0.334087019303  0.187114168357
  CTL2   NN3A     1  0.334087019303  0.187114168357
  CTL2   NN3G     1  0.334087019303  0.187114168357
  CTL2   NN3I     1  0.334087019303  0.187114168357
  CTL2    NN4     1  0.334087019303  0.187114168357
  CTL2    NN6     1  0.334087019303  0.187114168357
  CTL2    NNG     1  0.334087019303  0.187114168357
  CTL2     NP     1  0.334087019303  0.187114168357
  CTL2    NPH     1  0.334087019303  0.187114168357
  CTL2    NR1     1  0.334087019303  0.187114168357
  CTL2    NR2     1  0.334087019303  0.187114168357
  CTL2    NR3     1  0.334087019303  0.187114168357
  CTL2   NRC4     1  0.334087019303  0.187114168357
  CTL2   NRN1     1  0.347450500075  0.280671252536
  CTL2   NRN2     1  0.346559601357  0.102486650838
  CTL2    NS1     1  0.334087019303  0.187114168357
  CTL2    NS2     1  0.334087019303  0.187114168357
  CTL2    NTL     1  0.334087019303  0.187114168357
  CTL2     NY     1  0.334087019303  0.187114168357
  CTL2      O     1  0.293996576986  0.144938011577
  CTL2    O2L     1  0.320723538531  0.144938011577
  CTL2    OAL     1  0.326959829558  0.163176000000
  CTL2     OB     1  0.293996576986  0.144938011577
  CTL2    OBL     1  0.293996576986  0.144938011577
  CTL2     OC     1  0.320723538531  0.144938011577
  CTL2  OC2D1     1  0.293996576986  0.144938011577
  CTL2  OC2D2     1  0.320723538531  0.144938011577
  CTL2  OC2D3     1  0.293996576986  0.144938011577
  CTL2  OC2D4     1  0.293996576986  0.144938011577
  CTL2  OC2DP     1  0.320723538531  0.144938011577
  CTL2  OC301     1  0.316269044940  0.132309697301
  CTL2  OC302     1  0.316269044940  0.132309697301
  CTL2  OC303     1  0.316269044940  0.132309697301
  CTL2 OC305A     1  0.316269044940  0.132309697301
  CTL2  OC30A     1  0.316269044940  0.132309697301
  CTL2  OC30P     1  0.326959829558  0.163176000000
  CTL2  OC311     1  0.326514380198  0.183381431383
  CTL2 OC311M     1  0.326514380198  0.183381431383
  CTL2  OC312     1  0.326959829558  0.163176000000
  CTL2 OC3C51     1  0.316269044940  0.132309697301
  CTL2 OC3C5M     1  0.316269044940  0.132309697301
  CTL2 OC3C61     1  0.316269044940  0.132309697301
  CTL2    OCA     1  0.293996576986  0.144938011577
  CTL2    OCL     1  0.320723538531  0.144938011577
  CTL2  OG2D1     1  0.293996576986  0.144938011577
  CTL2  OG2D2     1  0.320723538531  0.144938011577
  CTL2  OG2D3     1  0.293996576986  0.144938011577
  CTL2  OG2D4     1  0.320723538531  0.144938011577
  CTL2  OG2D5     1  0.320010819556  0.169954883425
  CTL2  OG2N1     1  0.320723538531  0.144938011577
  CTL2  OG2P1     1  0.320723538531  0.144938011577
  CTL2 OG2R50     1  0.320723538531  0.144938011577
  CTL2  OG2S1     1  0.318906105146  0.157831660601
  CTL2  OG301     1  0.316269044940  0.132309697301
  CTL2  OG302     1  0.316269044940  0.132309697301
  CTL2  OG303     1  0.316269044940  0.132309697301
  CTL2  OG304     1  0.316269044940  0.132309697301
  CTL2  OG311     1  0.326514380198  0.183381431383
  CTL2  OG312     1  0.325178032121  0.144938011577
  CTL2 OG3C31     1  0.316269044940  0.132309697301
  CTL2 OG3C51     1  0.316269044940  0.132309697301
  CTL2 OG3C61     1  0.316269044940  0.132309697301
  CTL2 OG3R60     1  0.316269044940  0.132309697301
  CTL2    OH1     1  0.326959829558  0.163176000000
  CTL2    OHL     1  0.326959829558  0.163176000000
  CTL2   OLG1     1  0.293996576986  0.144938011577
  CTL2   OLG2     1  0.320723538531  0.144938011577
  CTL2   OLG3     1  0.320723538531  0.144938011577
  CTL2   OLG4     1  0.316269044940  0.132309697301
  CTL2   OLG5     1  0.316269044940  0.132309697301
  CTL2   OLG6     1  0.326514380198  0.183381431383
  CTL2   OLG7     1  0.316269044940  0.132309697301
  CTL2   OLG8     1  0.316269044940  0.132309697301
  CTL2     OM     1  0.320723538531  0.144938011577
  CTL2    ON1     1  0.320723538531  0.144938011577
  CTL2   ON1C     1  0.320723538531  0.144938011577
  CTL2    ON2     1  0.326959829558  0.163176000000
  CTL2   ON2B     1  0.326959829558  0.163176000000
  CTL2   ON2M     1  0.316269044940  0.132309697301
  CTL2    ON3     1  0.320723538531  0.144938011577
  CTL2    ON4     1  0.326959829558  0.163176000000
  CTL2    ON5     1  0.326959829558  0.163176000000
  CTL2    ON6     1  0.326959829558  0.163176000000
  CTL2   ON6B     1  0.326959829558  0.163176000000
  CTL2   OPER     1  0.318427692534  0.188901923946
  CTL2     OS     1  0.326959829558  0.163176000000
  CTL2   OSIA     1  0.326959829558  0.163176000000
  CTL2   OSIE     1  0.326959829558  0.163176000000
  CTL2   OSIH     1  0.326959829558  0.163176000000
  CTL2    OSL     1  0.316269044940  0.132309697301
  CTL2   OSLP     1  0.316269044940  0.132309697301
  CTL2    OST     1  0.320010819556  0.169954883425
  CTL2     OT     1  0.326799467788  0.163176000000
  CTL2     OX     1  0.320723538531  0.144938011577
  CTL2      P     1  0.360813980847  0.320014464673
  CTL2     P2     1  0.360813980847  0.320014464673
  CTL2     P3     1  0.360813980847  0.320014464673
  CTL2     P4     1  0.360813980847  0.320014464673
  CTL2     PB     1  0.328073452955  0.716185437439
  CTL2   PB2P     1  0.325890751096  0.204716924713
  CTL2     PC     1  0.360813980847  0.320014464673
  CTL2     PD     1  0.294842930769  1.037598257516
  CTL2   PD2P     1  0.251865976605  0.174628752363
  CTL2    PG0     1  0.360813980847  0.320014464673
  CTL2    PG1     1  0.360813980847  0.320014464673
  CTL2    PG2     1  0.360813980847  0.320014464673
  CTL2     PL     1  0.360813980847  0.320014464673
  CTL2   PM3P     1  0.316910492017  0.176275053255
  CTL2    POT     1  0.326403017859  0.123410269913
  CTL2   PR3P     1  0.317079762773  0.178642591472
  CTL2     PT     1  0.296001099102  1.168527606863
  CTL2   PT2P     1  0.240284293270  0.168973521997
  CTL2   PU3P     1  0.318024115415  0.179522368790
  CTL2   RA2P     1  0.355459679551  0.229891668540
  CTL2   RH3P     1  0.210367914314  0.149983415617
  CTL2    RUB     1  0.338541512893  0.162045623205
  CTL2      S     1  0.347450500075  0.280671252536
  CTL2     SC     1  0.356359487256  0.286840588481
  CTL2   SC3P     1  0.266993436839  0.157109060719
  CTL2  SEGD1     1  0.363041227642  0.330244580395
  CTL2  SG2D1     1  0.351904993665  0.314496560236
  CTL2  SG2P1     1  0.355798221064  0.332305491450
  CTL2  SG2P2     1  0.352314807076  0.329421919951
  CTL2 SG2R50     1  0.347450500075  0.280671252536
  CTL2  SG301     1  0.345223253279  0.257919081884
  CTL2  SG302     1  0.365268474438  0.286840588481
  CTL2  SG311     1  0.347450500075  0.280671252536
  CTL2  SG3O1     1  0.356359487256  0.286840588481
  CTL2  SG3O2     1  0.347450500075  0.247528778125
  CTL2  SG3O3     1  0.347450500075  0.247528778125
  CTL2     SI     1  0.365268474438  0.324091246411
  CTL2   SIH3     1  0.365268474438  0.324091246411
  CTL2     SL     1  0.356359487256  0.286840588481
  CTL2     SM     1  0.345223253279  0.257919081884
  CTL2   SM2P     1  0.334666103469  0.207012887251
  CTL2   SM3P     1  0.308847858618  0.175378986746
  CTL2   SN2P     1  0.316981763914  0.181365662197
  CTL2    SOD     1  0.294954293108  0.090610410351
  CTL2     SP     1  0.365268474438  0.280671252536
  CTL2   SR2P     1  0.334612649546  0.200133451797
  CTL2     SS     1  0.365268474438  0.286840588481
  CTL2   TB3P     1  0.300678317372  0.172155203837
  CTL2   TI1P     1  0.341276571958  0.266826378666
  CTL2   TI3P     1  0.243117351193  0.149983415617
  CTL2   TL3P     1  0.246716582015  0.168869889039
  CTL2   TM3P     1  0.289417357575  0.168402751521
  CTL2    U3P     1  0.320830446377  0.182184255566
  CTL2    V2P     1  0.267599247968  0.167830039933
  CTL2    V3P     1  0.223989755715  0.147096016316
  CTL2    Y3P     1  0.295190381269  0.170263611896
  CTL2   YB2P     1  0.312616360195  0.189623385225
  CTL2   YB3P     1  0.284659958420  0.167569069413
  CTL2     ZN     1  0.266378716724  0.209200000000
  CTL3   CTL3     1  0.338541512893  0.041840000000
  CTL3   CTL5     1  0.338541512893  0.041840000000
  CTL3   CTO1     1  0.338541512893  0.041840000000
  CTL3   CTO2     1  0.338541512893  0.041840000000
  CTL3     CU     1  0.285800308779  0.908997471504
  CTL3   CU1P     1  0.246066225950  0.180057894334
  CTL3   CU2P     1  0.233869822499  0.162315474555
  CTL3     CY     1  0.346559601357  0.113045454929
  CTL3    DUM     1  0.169270756447  0.000000000000
  CTL3   DY3P     1  0.297952167295  0.171135318061
  CTL3   ER3P     1  0.291083338178  0.169232326746
  CTL3   EU2P     1  0.333231756533  0.203602227414
  CTL3   EU3P     1  0.304954631219  0.174528477447
  CTL3     F1     1  0.314487247504  0.153729976257
  CTL3     F2     1  0.314487247504  0.135577095411
  CTL3     F3     1  0.311814551349  0.130309939452
  CTL3     FA     1  0.320723538531  0.144938011577
  CTL3     FE     1  0.227179173126  0.000000000000
  CTL3   FE2P     1  0.265496726993  0.167098295383
  CTL3   FE3P     1  0.219722350855  0.148045032716
  CTL3   FGA1     1  0.314487247504  0.153729976257
  CTL3   FGA2     1  0.314487247504  0.135577095411
  CTL3   FGA3     1  0.311814551349  0.130309939452
  CTL3   FGP1     1  0.311814551349  0.130309939452
  CTL3   FGR1     1  0.320723538531  0.144938011577
  CTL3    FNA     1  0.320723538531  0.144938011577
  CTL3   GA3P     1  0.189485248361  0.145299904804
  CTL3   GD3P     1  0.303351013527  0.173673803114
  CTL3      H     1  0.189271432669  0.089736802707
  CTL3     HA     1  0.286869387241  0.062058748940
  CTL3    HA1     1  0.288651184677  0.088756043175
  CTL3    HA2     1  0.288651184677  0.077149148019
  CTL3    HA3     1  0.288651184677  0.064818249282
  CTL3    HAL     1  0.286869387241  0.062058748940
  CTL3   HAL1     1  0.286869387241  0.062058748940
  CTL3   HAL2     1  0.288651184677  0.070011711020
  CTL3   HAL3     1  0.288651184677  0.064818249282
  CTL3     HB     1  0.286869387241  0.062058748940
  CTL3    HB1     1  0.286869387241  0.062058748940
  CTL3    HB2     1  0.288651184677  0.070011711020
  CTL3    HBL     1  0.286869387241  0.062058748940
  CTL3     HC     1  0.189271432669  0.089736802707
  CTL3   HCA1     1  0.288651184677  0.088756043175
  CTL3  HCA1A     1  0.288651184677  0.088756043175
  CTL3 HCA1C2     1  0.288651184677  0.088756043175
  CTL3   HCA2     1  0.288651184677  0.078275472531
  CTL3 HCA25A     1  0.285087589805  0.078275472531
  CTL3  HCA2A     1  0.288651184677  0.078275472531
  CTL3 HCA2C2     1  0.285087589805  0.078275472531
  CTL3   HCA3     1  0.288651184677  0.064818249282
  CTL3  HCA3A     1  0.288651184677  0.064818249282
  CTL3  HCA3M     1  0.288651184677  0.064818249282
  CTL3    HCL     1  0.189271432669  0.089736802707
  CTL3   HCP1     1  0.189271432669  0.089736802707
  CTL3  HCP1M     1  0.189271432669  0.089736802707
  CTL3   HCR1     1  0.240542653898  0.089736802707
  CTL3     HE     1  0.301123766731  0.061020452073
  CTL3    HE1     1  0.280633096214  0.073666921749
  CTL3    HE2     1  0.281523994932  0.067464972838
  CTL3   HEL1     1  0.280633096214  0.073666921749
  CTL3   HEL2     1  0.281523994932  0.067464972838
  CTL3    HF1     1  0.286869387241  0.070011711020
  CTL3    HF2     1  0.285087589805  0.072469005789
  CTL3   HG2P     1  0.274557166956  0.189623385225
  CTL3   HGA1     1  0.288651184677  0.088756043175
  CTL3   HGA2     1  0.288651184677  0.078275472531
  CTL3   HGA3     1  0.288651184677  0.064818249282
  CTL3   HGA4     1  0.280633096214  0.073666921749
  CTL3   HGA5     1  0.281523994932  0.067464972838
  CTL3   HGA6     1  0.286869387241  0.070011711020
  CTL3   HGA7     1  0.285087589805  0.072469005789
  CTL3 HGAAM0     1  0.283305792369  0.070011711020
  CTL3 HGAAM1     1  0.283305792369  0.070011711020
  CTL3 HGAAM2     1  0.281523994932  0.083680000000
  CTL3   HGP1     1  0.189271432669  0.089736802707
  CTL3   HGP2     1  0.189271432669  0.089736802707
  CTL3   HGP3     1  0.209361198763  0.132309697301
  CTL3   HGP4     1  0.189271432669  0.089736802707
  CTL3   HGP5     1  0.231633666716  0.089736802707
  CTL3 HGPAM1     1  0.247224394284  0.039692909190
  CTL3 HGPAM2     1  0.247224394284  0.041840000000
  CTL3 HGPAM3     1  0.246778944925  0.045833423612
  CTL3  HGR51     1  0.290272620344  0.072469005789
  CTL3  HGR52     1  0.249451641079  0.089736802707
  CTL3  HGR53     1  0.231633666716  0.089736802707
  CTL3  HGR61     1  0.290272620344  0.072469005789
  CTL3  HGR62     1  0.267269615442  0.089736802707
  CTL3  HGR63     1  0.249451641079  0.089736802707
  CTL3  HGR71     1  0.290272620344  0.072469005789
  CTL3     HL     1  0.231633666716  0.089736802707
  CTL3  HLGA1     1  0.288651184677  0.088756043175
  CTL3  HLGA2     1  0.288651184677  0.078275472531
  CTL3  HLGA3     1  0.288651184677  0.064818249282
  CTL3  HLGA4     1  0.280633096214  0.073666921749
  CTL3  HLGP1     1  0.189271432669  0.089736802707
  CTL3 HLGR52     1  0.249451641079  0.089736802707
  CTL3 HLGR61     1  0.290272620344  0.072469005789
  CTL3 HLGR62     1  0.267269615442  0.089736802707
  CTL3    HN1     1  0.189271432669  0.089736802707
  CTL3    HN2     1  0.189271432669  0.089736802707
  CTL3    HN3     1  0.267269615442  0.089736802707
  CTL3   HN3B     1  0.249451641079  0.089736802707
  CTL3    HN4     1  0.189271432669  0.089736802707
  CTL3    HN5     1  0.189271432669  0.089736802707
  CTL3    HN6     1  0.286869387241  0.062058748940
  CTL3    HN7     1  0.286869387241  0.062058748940
  CTL3    HN8     1  0.288651184677  0.070011711020
  CTL3    HN9     1  0.288651184677  0.064818249282
  CTL3   HNE1     1  0.280633096214  0.073666921749
  CTL3   HNE2     1  0.281523994932  0.067464972838
  CTL3    HNP     1  0.290272620344  0.072469005789
  CTL3   HO3P     1  0.293168041178  0.170263611896
  CTL3    HOL     1  0.189271432669  0.089736802707
  CTL3     HP     1  0.290272620344  0.072469005789
  CTL3   HPER     1  0.189271432669  0.089736802707
  CTL3    HR1     1  0.249451641079  0.089736802707
  CTL3    HR2     1  0.231633666716  0.089736802707
  CTL3    HR3     1  0.300054688270  0.036952087465
  CTL3   HRA3     1  0.288651184677  0.064818249282
  CTL3   HRM1     1  0.247224394284  0.039692909190
  CTL3   HRM2     1  0.247224394284  0.041840000000
  CTL3   HRP2     1  0.189271432669  0.089736802707
  CTL3     HS     1  0.209361198763  0.132309697301
  CTL3   HSIA     1  0.286869387241  0.062058748940
  CTL3   HSIO     1  0.189271432669  0.089736802707
  CTL3     HT     1  0.189271432669  0.089736802707
  CTL3     HX     1  0.189271432669  0.089736802707
  CTL3   IGR1     1  0.368832069310  0.301712530731
  CTL3   IN3P     1  0.246449312399  0.160580590010
  CTL3   LA3P     1  0.327200372211  0.182184255566
  CTL3    LIT     1  0.284864865125  0.020196198771
  CTL3    LPH     1  0.169270756447  0.000000000000
  CTL3   LU3P     1  0.289648991242  0.166731218816
  CTL3     MG     1  0.274842254546  0.051243325419
  CTL3   MN2P     1  0.276508235149  0.171747976291
  CTL3   MN3P     1  0.203516903172  0.148045032716
  CTL3      N     1  0.334087019303  0.004184000000
  CTL3     NC     1  0.334087019303  0.324091246411
  CTL3    NC2     1  0.334087019303  0.187114168357
  CTL3  NC2D1     1  0.307360057758  0.187114168357
  CTL3  NC311     1  0.347450500075  0.088756043175
  CTL3   ND3P     1  0.313587439798  0.177117175768
  CTL3     NE     1  0.305578260322  0.122698965603
  CTL3  NG1T1     1  0.328741626994  0.177512086349
  CTL3  NG2D1     1  0.334087019303  0.187114168357
  CTL3  NG2O1     1  0.334087019303  0.187114168357
  CTL3  NG2P1     1  0.334087019303  0.187114168357
  CTL3 NG2R43     1  0.334087019303  0.187114168357
  CTL3 NG2R50     1  0.334087019303  0.187114168357
  CTL3 NG2R51     1  0.334087019303  0.187114168357
  CTL3 NG2R52     1  0.334087019303  0.187114168357
  CTL3 NG2R53     1  0.334087019303  0.187114168357
  CTL3 NG2R57     1  0.334087019303  0.187114168357
  CTL3 NG2R60     1  0.337650614175  0.102486650838
  CTL3 NG2R61     1  0.334087019303  0.187114168357
  CTL3 NG2R62     1  0.352795892384  0.093557084179
  CTL3 NG2R67     1  0.334087019303  0.187114168357
  CTL3 NG2RC0     1  0.334087019303  0.187114168357
  CTL3  NG2S0     1  0.334087019303  0.004184000000
  CTL3  NG2S1     1  0.307360057758  0.187114168357
  CTL3  NG2S2     1  0.334087019303  0.187114168357
  CTL3  NG2S3     1  0.334087019303  0.187114168357
  CTL3  NG301     1  0.347450500075  0.078275472531
  CTL3  NG311     1  0.347450500075  0.088756043175
  CTL3  NG321     1  0.346559601357  0.102486650838
  CTL3  NG331     1  0.345668702638  0.110698234855
  CTL3 NG3C51     1  0.334087019303  0.187114168357
  CTL3  NG3N1     1  0.351904993665  0.102486650838
  CTL3  NG3P0     1  0.334087019303  0.187114168357
  CTL3  NG3P1     1  0.334087019303  0.187114168357
  CTL3  NG3P2     1  0.334087019303  0.187114168357
  CTL3  NG3P3     1  0.334087019303  0.187114168357
  CTL3    NH1     1  0.307360057758  0.187114168357
  CTL3    NH2     1  0.334087019303  0.187114168357
  CTL3    NH3     1  0.334087019303  0.187114168357
  CTL3   NH3L     1  0.334087019303  0.187114168357
  CTL3    NHL     1  0.307360057758  0.187114168357
  CTL3     NI     1  0.282949432881  0.994525446633
  CTL3   NI2P     1  0.238787583423  0.158440517242
  CTL3    NN1     1  0.334087019303  0.187114168357
  CTL3   NN1C     1  0.334087019303  0.187114168357
  CTL3    NN2     1  0.334087019303  0.187114168357
  CTL3   NN2B     1  0.334087019303  0.187114168357
  CTL3   NN2C     1  0.334087019303  0.187114168357
  CTL3   NN2G     1  0.334087019303  0.187114168357
  CTL3   NN2U     1  0.334087019303  0.187114168357
  CTL3    NN3     1  0.334087019303  0.187114168357
  CTL3   NN3A     1  0.334087019303  0.187114168357
  CTL3   NN3G     1  0.334087019303  0.187114168357
  CTL3   NN3I     1  0.334087019303  0.187114168357
  CTL3    NN4     1  0.334087019303  0.187114168357
  CTL3    NN6     1  0.334087019303  0.187114168357
  CTL3    NNG     1  0.334087019303  0.187114168357
  CTL3     NP     1  0.334087019303  0.187114168357
  CTL3    NPH     1  0.334087019303  0.187114168357
  CTL3    NR1     1  0.334087019303  0.187114168357
  CTL3    NR2     1  0.334087019303  0.187114168357
  CTL3    NR3     1  0.334087019303  0.187114168357
  CTL3   NRC4     1  0.334087019303  0.187114168357
  CTL3   NRN1     1  0.347450500075  0.280671252536
  CTL3   NRN2     1  0.346559601357  0.102486650838
  CTL3    NS1     1  0.334087019303  0.187114168357
  CTL3    NS2     1  0.334087019303  0.187114168357
  CTL3    NTL     1  0.334087019303  0.187114168357
  CTL3     NY     1  0.334087019303  0.187114168357
  CTL3      O     1  0.293996576986  0.144938011577
  CTL3    O2L     1  0.320723538531  0.144938011577
  CTL3    OAL     1  0.326959829558  0.163176000000
  CTL3     OB     1  0.293996576986  0.144938011577
  CTL3    OBL     1  0.293996576986  0.144938011577
  CTL3     OC     1  0.320723538531  0.144938011577
  CTL3  OC2D1     1  0.293996576986  0.144938011577
  CTL3  OC2D2     1  0.320723538531  0.144938011577
  CTL3  OC2D3     1  0.293996576986  0.144938011577
  CTL3  OC2D4     1  0.293996576986  0.144938011577
  CTL3  OC2DP     1  0.320723538531  0.144938011577
  CTL3  OC301     1  0.316269044940  0.132309697301
  CTL3  OC302     1  0.316269044940  0.132309697301
  CTL3  OC303     1  0.316269044940  0.132309697301
  CTL3 OC305A     1  0.316269044940  0.132309697301
  CTL3  OC30A     1  0.316269044940  0.132309697301
  CTL3  OC30P     1  0.326959829558  0.163176000000
  CTL3  OC311     1  0.326514380198  0.183381431383
  CTL3 OC311M     1  0.326514380198  0.183381431383
  CTL3  OC312     1  0.326959829558  0.163176000000
  CTL3 OC3C51     1  0.316269044940  0.132309697301
  CTL3 OC3C5M     1  0.316269044940  0.132309697301
  CTL3 OC3C61     1  0.316269044940  0.132309697301
  CTL3    OCA     1  0.293996576986  0.144938011577
  CTL3    OCL     1  0.320723538531  0.144938011577
  CTL3  OG2D1     1  0.293996576986  0.144938011577
  CTL3  OG2D2     1  0.320723538531  0.144938011577
  CTL3  OG2D3     1  0.293996576986  0.144938011577
  CTL3  OG2D4     1  0.320723538531  0.144938011577
  CTL3  OG2D5     1  0.320010819556  0.169954883425
  CTL3  OG2N1     1  0.320723538531  0.144938011577
  CTL3  OG2P1     1  0.320723538531  0.144938011577
  CTL3 OG2R50     1  0.320723538531  0.144938011577
  CTL3  OG2S1     1  0.318906105146  0.157831660601
  CTL3  OG301     1  0.316269044940  0.132309697301
  CTL3  OG302     1  0.316269044940  0.132309697301
  CTL3  OG303     1  0.316269044940  0.132309697301
  CTL3  OG304     1  0.316269044940  0.132309697301
  CTL3  OG311     1  0.326514380198  0.183381431383
  CTL3  OG312     1  0.325178032121  0.144938011577
  CTL3 OG3C31     1  0.316269044940  0.132309697301
  CTL3 OG3C51     1  0.316269044940  0.132309697301
  CTL3 OG3C61     1  0.316269044940  0.132309697301
  CTL3 OG3R60     1  0.316269044940  0.132309697301
  CTL3    OH1     1  0.326959829558  0.163176000000
  CTL3    OHL     1  0.326959829558  0.163176000000
  CTL3   OLG1     1  0.293996576986  0.144938011577
  CTL3   OLG2     1  0.320723538531  0.144938011577
  CTL3   OLG3     1  0.320723538531  0.144938011577
  CTL3   OLG4     1  0.316269044940  0.132309697301
  CTL3   OLG5     1  0.316269044940  0.132309697301
  CTL3   OLG6     1  0.326514380198  0.183381431383
  CTL3   OLG7     1  0.316269044940  0.132309697301
  CTL3   OLG8     1  0.316269044940  0.132309697301
  CTL3     OM     1  0.320723538531  0.144938011577
  CTL3    ON1     1  0.320723538531  0.144938011577
  CTL3   ON1C     1  0.320723538531  0.144938011577
  CTL3    ON2     1  0.326959829558  0.163176000000
  CTL3   ON2B     1  0.326959829558  0.163176000000
  CTL3   ON2M     1  0.316269044940  0.132309697301
  CTL3    ON3     1  0.320723538531  0.144938011577
  CTL3    ON4     1  0.326959829558  0.163176000000
  CTL3    ON5     1  0.326959829558  0.163176000000
  CTL3    ON6     1  0.326959829558  0.163176000000
  CTL3   ON6B     1  0.326959829558  0.163176000000
  CTL3   OPER     1  0.318427692534  0.188901923946
  CTL3     OS     1  0.326959829558  0.163176000000
  CTL3   OSIA     1  0.326959829558  0.163176000000
  CTL3   OSIE     1  0.326959829558  0.163176000000
  CTL3   OSIH     1  0.326959829558  0.163176000000
  CTL3    OSL     1  0.316269044940  0.132309697301
  CTL3   OSLP     1  0.316269044940  0.132309697301
  CTL3    OST     1  0.320010819556  0.169954883425
  CTL3     OT     1  0.326799467788  0.163176000000
  CTL3     OX     1  0.320723538531  0.144938011577
  CTL3      P     1  0.360813980847  0.320014464673
  CTL3     P2     1  0.360813980847  0.320014464673
  CTL3     P3     1  0.360813980847  0.320014464673
  CTL3     P4     1  0.360813980847  0.320014464673
  CTL3     PB     1  0.328073452955  0.716185437439
  CTL3   PB2P     1  0.325890751096  0.204716924713
  CTL3     PC     1  0.360813980847  0.320014464673
  CTL3     PD     1  0.294842930769  1.037598257516
  CTL3   PD2P     1  0.251865976605  0.174628752363
  CTL3    PG0     1  0.360813980847  0.320014464673
  CTL3    PG1     1  0.360813980847  0.320014464673
  CTL3    PG2     1  0.360813980847  0.320014464673
  CTL3     PL     1  0.360813980847  0.320014464673
  CTL3   PM3P     1  0.316910492017  0.176275053255
  CTL3    POT     1  0.326403017859  0.123410269913
  CTL3   PR3P     1  0.317079762773  0.178642591472
  CTL3     PT     1  0.296001099102  1.168527606863
  CTL3   PT2P     1  0.240284293270  0.168973521997
  CTL3   PU3P     1  0.318024115415  0.179522368790
  CTL3   RA2P     1  0.355459679551  0.229891668540
  CTL3   RH3P     1  0.210367914314  0.149983415617
  CTL3    RUB     1  0.338541512893  0.162045623205
  CTL3      S     1  0.347450500075  0.280671252536
  CTL3     SC     1  0.356359487256  0.286840588481
  CTL3   SC3P     1  0.266993436839  0.157109060719
  CTL3  SEGD1     1  0.363041227642  0.330244580395
  CTL3  SG2D1     1  0.351904993665  0.314496560236
  CTL3  SG2P1     1  0.355798221064  0.332305491450
  CTL3  SG2P2     1  0.352314807076  0.329421919951
  CTL3 SG2R50     1  0.347450500075  0.280671252536
  CTL3  SG301     1  0.345223253279  0.257919081884
  CTL3  SG302     1  0.365268474438  0.286840588481
  CTL3  SG311     1  0.347450500075  0.280671252536
  CTL3  SG3O1     1  0.356359487256  0.286840588481
  CTL3  SG3O2     1  0.347450500075  0.247528778125
  CTL3  SG3O3     1  0.347450500075  0.247528778125
  CTL3     SI     1  0.365268474438  0.324091246411
  CTL3   SIH3     1  0.365268474438  0.324091246411
  CTL3     SL     1  0.356359487256  0.286840588481
  CTL3     SM     1  0.345223253279  0.257919081884
  CTL3   SM2P     1  0.334666103469  0.207012887251
  CTL3   SM3P     1  0.308847858618  0.175378986746
  CTL3   SN2P     1  0.316981763914  0.181365662197
  CTL3    SOD     1  0.294954293108  0.090610410351
  CTL3     SP     1  0.365268474438  0.280671252536
  CTL3   SR2P     1  0.334612649546  0.200133451797
  CTL3     SS     1  0.365268474438  0.286840588481
  CTL3   TB3P     1  0.300678317372  0.172155203837
  CTL3   TI1P     1  0.341276571958  0.266826378666
  CTL3   TI3P     1  0.243117351193  0.149983415617
  CTL3   TL3P     1  0.246716582015  0.168869889039
  CTL3   TM3P     1  0.289417357575  0.168402751521
  CTL3    U3P     1  0.320830446377  0.182184255566
  CTL3    V2P     1  0.267599247968  0.167830039933
  CTL3    V3P     1  0.223989755715  0.147096016316
  CTL3    Y3P     1  0.295190381269  0.170263611896
  CTL3   YB2P     1  0.312616360195  0.189623385225
  CTL3   YB3P     1  0.284659958420  0.167569069413
  CTL3     ZN     1  0.266378716724  0.209200000000
  CTL5   CTL5     1  0.338541512893  0.041840000000
  CTL5   CTO1     1  0.338541512893  0.041840000000
  CTL5   CTO2     1  0.338541512893  0.041840000000
  CTL5     CU     1  0.285800308779  0.908997471504
  CTL5   CU1P     1  0.246066225950  0.180057894334
  CTL5   CU2P     1  0.233869822499  0.162315474555
  CTL5     CY     1  0.346559601357  0.113045454929
  CTL5    DUM     1  0.169270756447  0.000000000000
  CTL5   DY3P     1  0.297952167295  0.171135318061
  CTL5   ER3P     1  0.291083338178  0.169232326746
  CTL5   EU2P     1  0.333231756533  0.203602227414
  CTL5   EU3P     1  0.304954631219  0.174528477447
  CTL5     F1     1  0.314487247504  0.153729976257
  CTL5     F2     1  0.314487247504  0.135577095411
  CTL5     F3     1  0.311814551349  0.130309939452
  CTL5     FA     1  0.320723538531  0.144938011577
  CTL5     FE     1  0.227179173126  0.000000000000
  CTL5   FE2P     1  0.265496726993  0.167098295383
  CTL5   FE3P     1  0.219722350855  0.148045032716
  CTL5   FGA1     1  0.314487247504  0.153729976257
  CTL5   FGA2     1  0.314487247504  0.135577095411
  CTL5   FGA3     1  0.311814551349  0.130309939452
  CTL5   FGP1     1  0.311814551349  0.130309939452
  CTL5   FGR1     1  0.320723538531  0.144938011577
  CTL5    FNA     1  0.320723538531  0.144938011577
  CTL5   GA3P     1  0.189485248361  0.145299904804
  CTL5   GD3P     1  0.303351013527  0.173673803114
  CTL5      H     1  0.189271432669  0.089736802707
  CTL5     HA     1  0.286869387241  0.062058748940
  CTL5    HA1     1  0.288651184677  0.088756043175
  CTL5    HA2     1  0.288651184677  0.077149148019
  CTL5    HA3     1  0.288651184677  0.064818249282
  CTL5    HAL     1  0.286869387241  0.062058748940
  CTL5   HAL1     1  0.286869387241  0.062058748940
  CTL5   HAL2     1  0.288651184677  0.070011711020
  CTL5   HAL3     1  0.288651184677  0.064818249282
  CTL5     HB     1  0.286869387241  0.062058748940
  CTL5    HB1     1  0.286869387241  0.062058748940
  CTL5    HB2     1  0.288651184677  0.070011711020
  CTL5    HBL     1  0.286869387241  0.062058748940
  CTL5     HC     1  0.189271432669  0.089736802707
  CTL5   HCA1     1  0.288651184677  0.088756043175
  CTL5  HCA1A     1  0.288651184677  0.088756043175
  CTL5 HCA1C2     1  0.288651184677  0.088756043175
  CTL5   HCA2     1  0.288651184677  0.078275472531
  CTL5 HCA25A     1  0.285087589805  0.078275472531
  CTL5  HCA2A     1  0.288651184677  0.078275472531
  CTL5 HCA2C2     1  0.285087589805  0.078275472531
  CTL5   HCA3     1  0.288651184677  0.064818249282
  CTL5  HCA3A     1  0.288651184677  0.064818249282
  CTL5  HCA3M     1  0.288651184677  0.064818249282
  CTL5    HCL     1  0.189271432669  0.089736802707
  CTL5   HCP1     1  0.189271432669  0.089736802707
  CTL5  HCP1M     1  0.189271432669  0.089736802707
  CTL5   HCR1     1  0.240542653898  0.089736802707
  CTL5     HE     1  0.301123766731  0.061020452073
  CTL5    HE1     1  0.280633096214  0.073666921749
  CTL5    HE2     1  0.281523994932  0.067464972838
  CTL5   HEL1     1  0.280633096214  0.073666921749
  CTL5   HEL2     1  0.281523994932  0.067464972838
  CTL5    HF1     1  0.286869387241  0.070011711020
  CTL5    HF2     1  0.285087589805  0.072469005789
  CTL5   HG2P     1  0.274557166956  0.189623385225
  CTL5   HGA1     1  0.288651184677  0.088756043175
  CTL5   HGA2     1  0.288651184677  0.078275472531
  CTL5   HGA3     1  0.288651184677  0.064818249282
  CTL5   HGA4     1  0.280633096214  0.073666921749
  CTL5   HGA5     1  0.281523994932  0.067464972838
  CTL5   HGA6     1  0.286869387241  0.070011711020
  CTL5   HGA7     1  0.285087589805  0.072469005789
  CTL5 HGAAM0     1  0.283305792369  0.070011711020
  CTL5 HGAAM1     1  0.283305792369  0.070011711020
  CTL5 HGAAM2     1  0.281523994932  0.083680000000
  CTL5   HGP1     1  0.189271432669  0.089736802707
  CTL5   HGP2     1  0.189271432669  0.089736802707
  CTL5   HGP3     1  0.209361198763  0.132309697301
  CTL5   HGP4     1  0.189271432669  0.089736802707
  CTL5   HGP5     1  0.231633666716  0.089736802707
  CTL5 HGPAM1     1  0.247224394284  0.039692909190
  CTL5 HGPAM2     1  0.247224394284  0.041840000000
  CTL5 HGPAM3     1  0.246778944925  0.045833423612
  CTL5  HGR51     1  0.290272620344  0.072469005789
  CTL5  HGR52     1  0.249451641079  0.089736802707
  CTL5  HGR53     1  0.231633666716  0.089736802707
  CTL5  HGR61     1  0.290272620344  0.072469005789
  CTL5  HGR62     1  0.267269615442  0.089736802707
  CTL5  HGR63     1  0.249451641079  0.089736802707
  CTL5  HGR71     1  0.290272620344  0.072469005789
  CTL5     HL     1  0.231633666716  0.089736802707
  CTL5  HLGA1     1  0.288651184677  0.088756043175
  CTL5  HLGA2     1  0.288651184677  0.078275472531
  CTL5  HLGA3     1  0.288651184677  0.064818249282
  CTL5  HLGA4     1  0.280633096214  0.073666921749
  CTL5  HLGP1     1  0.189271432669  0.089736802707
  CTL5 HLGR52     1  0.249451641079  0.089736802707
  CTL5 HLGR61     1  0.290272620344  0.072469005789
  CTL5 HLGR62     1  0.267269615442  0.089736802707
  CTL5    HN1     1  0.189271432669  0.089736802707
  CTL5    HN2     1  0.189271432669  0.089736802707
  CTL5    HN3     1  0.267269615442  0.089736802707
  CTL5   HN3B     1  0.249451641079  0.089736802707
  CTL5    HN4     1  0.189271432669  0.089736802707
  CTL5    HN5     1  0.189271432669  0.089736802707
  CTL5    HN6     1  0.286869387241  0.062058748940
  CTL5    HN7     1  0.286869387241  0.062058748940
  CTL5    HN8     1  0.288651184677  0.070011711020
  CTL5    HN9     1  0.288651184677  0.064818249282
  CTL5   HNE1     1  0.280633096214  0.073666921749
  CTL5   HNE2     1  0.281523994932  0.067464972838
  CTL5    HNP     1  0.290272620344  0.072469005789
  CTL5   HO3P     1  0.293168041178  0.170263611896
  CTL5    HOL     1  0.189271432669  0.089736802707
  CTL5     HP     1  0.290272620344  0.072469005789
  CTL5   HPER     1  0.189271432669  0.089736802707
  CTL5    HR1     1  0.249451641079  0.089736802707
  CTL5    HR2     1  0.231633666716  0.089736802707
  CTL5    HR3     1  0.300054688270  0.036952087465
  CTL5   HRA3     1  0.288651184677  0.064818249282
  CTL5   HRM1     1  0.247224394284  0.039692909190
  CTL5   HRM2     1  0.247224394284  0.041840000000
  CTL5   HRP2     1  0.189271432669  0.089736802707
  CTL5     HS     1  0.209361198763  0.132309697301
  CTL5   HSIA     1  0.286869387241  0.062058748940
  CTL5   HSIO     1  0.189271432669  0.089736802707
  CTL5     HT     1  0.189271432669  0.089736802707
  CTL5     HX     1  0.189271432669  0.089736802707
  CTL5   IGR1     1  0.368832069310  0.301712530731
  CTL5   IN3P     1  0.246449312399  0.160580590010
  CTL5   LA3P     1  0.327200372211  0.182184255566
  CTL5    LIT     1  0.284864865125  0.020196198771
  CTL5    LPH     1  0.169270756447  0.000000000000
  CTL5   LU3P     1  0.289648991242  0.166731218816
  CTL5     MG     1  0.274842254546  0.051243325419
  CTL5   MN2P     1  0.276508235149  0.171747976291
  CTL5   MN3P     1  0.203516903172  0.148045032716
  CTL5      N     1  0.334087019303  0.004184000000
  CTL5     NC     1  0.334087019303  0.324091246411
  CTL5    NC2     1  0.334087019303  0.187114168357
  CTL5  NC2D1     1  0.307360057758  0.187114168357
  CTL5  NC311     1  0.347450500075  0.088756043175
  CTL5   ND3P     1  0.313587439798  0.177117175768
  CTL5     NE     1  0.305578260322  0.122698965603
  CTL5  NG1T1     1  0.328741626994  0.177512086349
  CTL5  NG2D1     1  0.334087019303  0.187114168357
  CTL5  NG2O1     1  0.334087019303  0.187114168357
  CTL5  NG2P1     1  0.334087019303  0.187114168357
  CTL5 NG2R43     1  0.334087019303  0.187114168357
  CTL5 NG2R50     1  0.334087019303  0.187114168357
  CTL5 NG2R51     1  0.334087019303  0.187114168357
  CTL5 NG2R52     1  0.334087019303  0.187114168357
  CTL5 NG2R53     1  0.334087019303  0.187114168357
  CTL5 NG2R57     1  0.334087019303  0.187114168357
  CTL5 NG2R60     1  0.337650614175  0.102486650838
  CTL5 NG2R61     1  0.334087019303  0.187114168357
  CTL5 NG2R62     1  0.352795892384  0.093557084179
  CTL5 NG2R67     1  0.334087019303  0.187114168357
  CTL5 NG2RC0     1  0.334087019303  0.187114168357
  CTL5  NG2S0     1  0.334087019303  0.004184000000
  CTL5  NG2S1     1  0.307360057758  0.187114168357
  CTL5  NG2S2     1  0.334087019303  0.187114168357
  CTL5  NG2S3     1  0.334087019303  0.187114168357
  CTL5  NG301     1  0.347450500075  0.078275472531
  CTL5  NG311     1  0.347450500075  0.088756043175
  CTL5  NG321     1  0.346559601357  0.102486650838
  CTL5  NG331     1  0.345668702638  0.110698234855
  CTL5 NG3C51     1  0.334087019303  0.187114168357
  CTL5  NG3N1     1  0.351904993665  0.102486650838
  CTL5  NG3P0     1  0.334087019303  0.187114168357
  CTL5  NG3P1     1  0.334087019303  0.187114168357
  CTL5  NG3P2     1  0.334087019303  0.187114168357
  CTL5  NG3P3     1  0.334087019303  0.187114168357
  CTL5    NH1     1  0.307360057758  0.187114168357
  CTL5    NH2     1  0.334087019303  0.187114168357
  CTL5    NH3     1  0.334087019303  0.187114168357
  CTL5   NH3L     1  0.334087019303  0.187114168357
  CTL5    NHL     1  0.307360057758  0.187114168357
  CTL5     NI     1  0.282949432881  0.994525446633
  CTL5   NI2P     1  0.238787583423  0.158440517242
  CTL5    NN1     1  0.334087019303  0.187114168357
  CTL5   NN1C     1  0.334087019303  0.187114168357
  CTL5    NN2     1  0.334087019303  0.187114168357
  CTL5   NN2B     1  0.334087019303  0.187114168357
  CTL5   NN2C     1  0.334087019303  0.187114168357
  CTL5   NN2G     1  0.334087019303  0.187114168357
  CTL5   NN2U     1  0.334087019303  0.187114168357
  CTL5    NN3     1  0.334087019303  0.187114168357
  CTL5   NN3A     1  0.334087019303  0.187114168357
  CTL5   NN3G     1  0.334087019303  0.187114168357
  CTL5   NN3I     1  0.334087019303  0.187114168357
  CTL5    NN4     1  0.334087019303  0.187114168357
  CTL5    NN6     1  0.334087019303  0.187114168357
  CTL5    NNG     1  0.334087019303  0.187114168357
  CTL5     NP     1  0.334087019303  0.187114168357
  CTL5    NPH     1  0.334087019303  0.187114168357
  CTL5    NR1     1  0.334087019303  0.187114168357
  CTL5    NR2     1  0.334087019303  0.187114168357
  CTL5    NR3     1  0.334087019303  0.187114168357
  CTL5   NRC4     1  0.334087019303  0.187114168357
  CTL5   NRN1     1  0.347450500075  0.280671252536
  CTL5   NRN2     1  0.346559601357  0.102486650838
  CTL5    NS1     1  0.334087019303  0.187114168357
  CTL5    NS2     1  0.334087019303  0.187114168357
  CTL5    NTL     1  0.334087019303  0.187114168357
  CTL5     NY     1  0.334087019303  0.187114168357
  CTL5      O     1  0.293996576986  0.144938011577
  CTL5    O2L     1  0.320723538531  0.144938011577
  CTL5    OAL     1  0.326959829558  0.163176000000
  CTL5     OB     1  0.293996576986  0.144938011577
  CTL5    OBL     1  0.293996576986  0.144938011577
  CTL5     OC     1  0.320723538531  0.144938011577
  CTL5  OC2D1     1  0.293996576986  0.144938011577
  CTL5  OC2D2     1  0.320723538531  0.144938011577
  CTL5  OC2D3     1  0.293996576986  0.144938011577
  CTL5  OC2D4     1  0.293996576986  0.144938011577
  CTL5  OC2DP     1  0.320723538531  0.144938011577
  CTL5  OC301     1  0.316269044940  0.132309697301
  CTL5  OC302     1  0.316269044940  0.132309697301
  CTL5  OC303     1  0.316269044940  0.132309697301
  CTL5 OC305A     1  0.316269044940  0.132309697301
  CTL5  OC30A     1  0.316269044940  0.132309697301
  CTL5  OC30P     1  0.326959829558  0.163176000000
  CTL5  OC311     1  0.326514380198  0.183381431383
  CTL5 OC311M     1  0.326514380198  0.183381431383
  CTL5  OC312     1  0.326959829558  0.163176000000
  CTL5 OC3C51     1  0.316269044940  0.132309697301
  CTL5 OC3C5M     1  0.316269044940  0.132309697301
  CTL5 OC3C61     1  0.316269044940  0.132309697301
  CTL5    OCA     1  0.293996576986  0.144938011577
  CTL5    OCL     1  0.320723538531  0.144938011577
  CTL5  OG2D1     1  0.293996576986  0.144938011577
  CTL5  OG2D2     1  0.320723538531  0.144938011577
  CTL5  OG2D3     1  0.293996576986  0.144938011577
  CTL5  OG2D4     1  0.320723538531  0.144938011577
  CTL5  OG2D5     1  0.320010819556  0.169954883425
  CTL5  OG2N1     1  0.320723538531  0.144938011577
  CTL5  OG2P1     1  0.320723538531  0.144938011577
  CTL5 OG2R50     1  0.320723538531  0.144938011577
  CTL5  OG2S1     1  0.318906105146  0.157831660601
  CTL5  OG301     1  0.316269044940  0.132309697301
  CTL5  OG302     1  0.316269044940  0.132309697301
  CTL5  OG303     1  0.316269044940  0.132309697301
  CTL5  OG304     1  0.316269044940  0.132309697301
  CTL5  OG311     1  0.326514380198  0.183381431383
  CTL5  OG312     1  0.325178032121  0.144938011577
  CTL5 OG3C31     1  0.316269044940  0.132309697301
  CTL5 OG3C51     1  0.316269044940  0.132309697301
  CTL5 OG3C61     1  0.316269044940  0.132309697301
  CTL5 OG3R60     1  0.316269044940  0.132309697301
  CTL5    OH1     1  0.326959829558  0.163176000000
  CTL5    OHL     1  0.326959829558  0.163176000000
  CTL5   OLG1     1  0.293996576986  0.144938011577
  CTL5   OLG2     1  0.320723538531  0.144938011577
  CTL5   OLG3     1  0.320723538531  0.144938011577
  CTL5   OLG4     1  0.316269044940  0.132309697301
  CTL5   OLG5     1  0.316269044940  0.132309697301
  CTL5   OLG6     1  0.326514380198  0.183381431383
  CTL5   OLG7     1  0.316269044940  0.132309697301
  CTL5   OLG8     1  0.316269044940  0.132309697301
  CTL5     OM     1  0.320723538531  0.144938011577
  CTL5    ON1     1  0.320723538531  0.144938011577
  CTL5   ON1C     1  0.320723538531  0.144938011577
  CTL5    ON2     1  0.326959829558  0.163176000000
  CTL5   ON2B     1  0.326959829558  0.163176000000
  CTL5   ON2M     1  0.316269044940  0.132309697301
  CTL5    ON3     1  0.320723538531  0.144938011577
  CTL5    ON4     1  0.326959829558  0.163176000000
  CTL5    ON5     1  0.326959829558  0.163176000000
  CTL5    ON6     1  0.326959829558  0.163176000000
  CTL5   ON6B     1  0.326959829558  0.163176000000
  CTL5   OPER     1  0.318427692534  0.188901923946
  CTL5     OS     1  0.326959829558  0.163176000000
  CTL5   OSIA     1  0.326959829558  0.163176000000
  CTL5   OSIE     1  0.326959829558  0.163176000000
  CTL5   OSIH     1  0.326959829558  0.163176000000
  CTL5    OSL     1  0.316269044940  0.132309697301
  CTL5   OSLP     1  0.316269044940  0.132309697301
  CTL5    OST     1  0.320010819556  0.169954883425
  CTL5     OT     1  0.326799467788  0.163176000000
  CTL5     OX     1  0.320723538531  0.144938011577
  CTL5      P     1  0.360813980847  0.320014464673
  CTL5     P2     1  0.360813980847  0.320014464673
  CTL5     P3     1  0.360813980847  0.320014464673
  CTL5     P4     1  0.360813980847  0.320014464673
  CTL5     PB     1  0.328073452955  0.716185437439
  CTL5   PB2P     1  0.325890751096  0.204716924713
  CTL5     PC     1  0.360813980847  0.320014464673
  CTL5     PD     1  0.294842930769  1.037598257516
  CTL5   PD2P     1  0.251865976605  0.174628752363
  CTL5    PG0     1  0.360813980847  0.320014464673
  CTL5    PG1     1  0.360813980847  0.320014464673
  CTL5    PG2     1  0.360813980847  0.320014464673
  CTL5     PL     1  0.360813980847  0.320014464673
  CTL5   PM3P     1  0.316910492017  0.176275053255
  CTL5    POT     1  0.326403017859  0.123410269913
  CTL5   PR3P     1  0.317079762773  0.178642591472
  CTL5     PT     1  0.296001099102  1.168527606863
  CTL5   PT2P     1  0.240284293270  0.168973521997
  CTL5   PU3P     1  0.318024115415  0.179522368790
  CTL5   RA2P     1  0.355459679551  0.229891668540
  CTL5   RH3P     1  0.210367914314  0.149983415617
  CTL5    RUB     1  0.338541512893  0.162045623205
  CTL5      S     1  0.347450500075  0.280671252536
  CTL5     SC     1  0.356359487256  0.286840588481
  CTL5   SC3P     1  0.266993436839  0.157109060719
  CTL5  SEGD1     1  0.363041227642  0.330244580395
  CTL5  SG2D1     1  0.351904993665  0.314496560236
  CTL5  SG2P1     1  0.355798221064  0.332305491450
  CTL5  SG2P2     1  0.352314807076  0.329421919951
  CTL5 SG2R50     1  0.347450500075  0.280671252536
  CTL5  SG301     1  0.345223253279  0.257919081884
  CTL5  SG302     1  0.365268474438  0.286840588481
  CTL5  SG311     1  0.347450500075  0.280671252536
  CTL5  SG3O1     1  0.356359487256  0.286840588481
  CTL5  SG3O2     1  0.347450500075  0.247528778125
  CTL5  SG3O3     1  0.347450500075  0.247528778125
  CTL5     SI     1  0.365268474438  0.324091246411
  CTL5   SIH3     1  0.365268474438  0.324091246411
  CTL5     SL     1  0.356359487256  0.286840588481
  CTL5     SM     1  0.345223253279  0.257919081884
  CTL5   SM2P     1  0.334666103469  0.207012887251
  CTL5   SM3P     1  0.308847858618  0.175378986746
  CTL5   SN2P     1  0.316981763914  0.181365662197
  CTL5    SOD     1  0.294954293108  0.090610410351
  CTL5     SP     1  0.365268474438  0.280671252536
  CTL5   SR2P     1  0.334612649546  0.200133451797
  CTL5     SS     1  0.365268474438  0.286840588481
  CTL5   TB3P     1  0.300678317372  0.172155203837
  CTL5   TI1P     1  0.341276571958  0.266826378666
  CTL5   TI3P     1  0.243117351193  0.149983415617
  CTL5   TL3P     1  0.246716582015  0.168869889039
  CTL5   TM3P     1  0.289417357575  0.168402751521
  CTL5    U3P     1  0.320830446377  0.182184255566
  CTL5    V2P     1  0.267599247968  0.167830039933
  CTL5    V3P     1  0.223989755715  0.147096016316
  CTL5    Y3P     1  0.295190381269  0.170263611896
  CTL5   YB2P     1  0.312616360195  0.189623385225
  CTL5   YB3P     1  0.284659958420  0.167569069413
  CTL5     ZN     1  0.266378716724  0.209200000000
  CTO1   CTO1     1  0.338541512893  0.041840000000
  CTO1   CTO2     1  0.338541512893  0.041840000000
  CTO1     CU     1  0.285800308779  0.908997471504
  CTO1   CU1P     1  0.246066225950  0.180057894334
  CTO1   CU2P     1  0.233869822499  0.162315474555
  CTO1     CY     1  0.346559601357  0.113045454929
  CTO1    DUM     1  0.169270756447  0.000000000000
  CTO1   DY3P     1  0.297952167295  0.171135318061
  CTO1   ER3P     1  0.291083338178  0.169232326746
  CTO1   EU2P     1  0.333231756533  0.203602227414
  CTO1   EU3P     1  0.304954631219  0.174528477447
  CTO1     F1     1  0.314487247504  0.153729976257
  CTO1     F2     1  0.314487247504  0.135577095411
  CTO1     F3     1  0.311814551349  0.130309939452
  CTO1     FA     1  0.320723538531  0.144938011577
  CTO1     FE     1  0.227179173126  0.000000000000
  CTO1   FE2P     1  0.265496726993  0.167098295383
  CTO1   FE3P     1  0.219722350855  0.148045032716
  CTO1   FGA1     1  0.314487247504  0.153729976257
  CTO1   FGA2     1  0.314487247504  0.135577095411
  CTO1   FGA3     1  0.311814551349  0.130309939452
  CTO1   FGP1     1  0.311814551349  0.130309939452
  CTO1   FGR1     1  0.320723538531  0.144938011577
  CTO1    FNA     1  0.320723538531  0.144938011577
  CTO1   GA3P     1  0.189485248361  0.145299904804
  CTO1   GD3P     1  0.303351013527  0.173673803114
  CTO1      H     1  0.189271432669  0.089736802707
  CTO1     HA     1  0.286869387241  0.062058748940
  CTO1    HA1     1  0.288651184677  0.088756043175
  CTO1    HA2     1  0.288651184677  0.077149148019
  CTO1    HA3     1  0.288651184677  0.064818249282
  CTO1    HAL     1  0.286869387241  0.062058748940
  CTO1   HAL1     1  0.286869387241  0.062058748940
  CTO1   HAL2     1  0.288651184677  0.070011711020
  CTO1   HAL3     1  0.288651184677  0.064818249282
  CTO1     HB     1  0.286869387241  0.062058748940
  CTO1    HB1     1  0.286869387241  0.062058748940
  CTO1    HB2     1  0.288651184677  0.070011711020
  CTO1    HBL     1  0.286869387241  0.062058748940
  CTO1     HC     1  0.189271432669  0.089736802707
  CTO1   HCA1     1  0.288651184677  0.088756043175
  CTO1  HCA1A     1  0.288651184677  0.088756043175
  CTO1 HCA1C2     1  0.288651184677  0.088756043175
  CTO1   HCA2     1  0.288651184677  0.078275472531
  CTO1 HCA25A     1  0.285087589805  0.078275472531
  CTO1  HCA2A     1  0.288651184677  0.078275472531
  CTO1 HCA2C2     1  0.285087589805  0.078275472531
  CTO1   HCA3     1  0.288651184677  0.064818249282
  CTO1  HCA3A     1  0.288651184677  0.064818249282
  CTO1  HCA3M     1  0.288651184677  0.064818249282
  CTO1    HCL     1  0.189271432669  0.089736802707
  CTO1   HCP1     1  0.189271432669  0.089736802707
  CTO1  HCP1M     1  0.189271432669  0.089736802707
  CTO1   HCR1     1  0.240542653898  0.089736802707
  CTO1     HE     1  0.301123766731  0.061020452073
  CTO1    HE1     1  0.280633096214  0.073666921749
  CTO1    HE2     1  0.281523994932  0.067464972838
  CTO1   HEL1     1  0.280633096214  0.073666921749
  CTO1   HEL2     1  0.281523994932  0.067464972838
  CTO1    HF1     1  0.286869387241  0.070011711020
  CTO1    HF2     1  0.285087589805  0.072469005789
  CTO1   HG2P     1  0.274557166956  0.189623385225
  CTO1   HGA1     1  0.288651184677  0.088756043175
  CTO1   HGA2     1  0.288651184677  0.078275472531
  CTO1   HGA3     1  0.288651184677  0.064818249282
  CTO1   HGA4     1  0.280633096214  0.073666921749
  CTO1   HGA5     1  0.281523994932  0.067464972838
  CTO1   HGA6     1  0.286869387241  0.070011711020
  CTO1   HGA7     1  0.285087589805  0.072469005789
  CTO1 HGAAM0     1  0.283305792369  0.070011711020
  CTO1 HGAAM1     1  0.283305792369  0.070011711020
  CTO1 HGAAM2     1  0.281523994932  0.083680000000
  CTO1   HGP1     1  0.189271432669  0.089736802707
  CTO1   HGP2     1  0.189271432669  0.089736802707
  CTO1   HGP3     1  0.209361198763  0.132309697301
  CTO1   HGP4     1  0.189271432669  0.089736802707
  CTO1   HGP5     1  0.231633666716  0.089736802707
  CTO1 HGPAM1     1  0.247224394284  0.039692909190
  CTO1 HGPAM2     1  0.247224394284  0.041840000000
  CTO1 HGPAM3     1  0.246778944925  0.045833423612
  CTO1  HGR51     1  0.290272620344  0.072469005789
  CTO1  HGR52     1  0.249451641079  0.089736802707
  CTO1  HGR53     1  0.231633666716  0.089736802707
  CTO1  HGR61     1  0.290272620344  0.072469005789
  CTO1  HGR62     1  0.267269615442  0.089736802707
  CTO1  HGR63     1  0.249451641079  0.089736802707
  CTO1  HGR71     1  0.290272620344  0.072469005789
  CTO1     HL     1  0.231633666716  0.089736802707
  CTO1  HLGA1     1  0.288651184677  0.088756043175
  CTO1  HLGA2     1  0.288651184677  0.078275472531
  CTO1  HLGA3     1  0.288651184677  0.064818249282
  CTO1  HLGA4     1  0.280633096214  0.073666921749
  CTO1  HLGP1     1  0.189271432669  0.089736802707
  CTO1 HLGR52     1  0.249451641079  0.089736802707
  CTO1 HLGR61     1  0.290272620344  0.072469005789
  CTO1 HLGR62     1  0.267269615442  0.089736802707
  CTO1    HN1     1  0.189271432669  0.089736802707
  CTO1    HN2     1  0.189271432669  0.089736802707
  CTO1    HN3     1  0.267269615442  0.089736802707
  CTO1   HN3B     1  0.249451641079  0.089736802707
  CTO1    HN4     1  0.189271432669  0.089736802707
  CTO1    HN5     1  0.189271432669  0.089736802707
  CTO1    HN6     1  0.286869387241  0.062058748940
  CTO1    HN7     1  0.286869387241  0.062058748940
  CTO1    HN8     1  0.288651184677  0.070011711020
  CTO1    HN9     1  0.288651184677  0.064818249282
  CTO1   HNE1     1  0.280633096214  0.073666921749
  CTO1   HNE2     1  0.281523994932  0.067464972838
  CTO1    HNP     1  0.290272620344  0.072469005789
  CTO1   HO3P     1  0.293168041178  0.170263611896
  CTO1    HOL     1  0.189271432669  0.089736802707
  CTO1     HP     1  0.290272620344  0.072469005789
  CTO1   HPER     1  0.189271432669  0.089736802707
  CTO1    HR1     1  0.249451641079  0.089736802707
  CTO1    HR2     1  0.231633666716  0.089736802707
  CTO1    HR3     1  0.300054688270  0.036952087465
  CTO1   HRA3     1  0.288651184677  0.064818249282
  CTO1   HRM1     1  0.247224394284  0.039692909190
  CTO1   HRM2     1  0.247224394284  0.041840000000
  CTO1   HRP2     1  0.189271432669  0.089736802707
  CTO1     HS     1  0.209361198763  0.132309697301
  CTO1   HSIA     1  0.286869387241  0.062058748940
  CTO1   HSIO     1  0.189271432669  0.089736802707
  CTO1     HT     1  0.189271432669  0.089736802707
  CTO1     HX     1  0.189271432669  0.089736802707
  CTO1   IGR1     1  0.368832069310  0.301712530731
  CTO1   IN3P     1  0.246449312399  0.160580590010
  CTO1   LA3P     1  0.327200372211  0.182184255566
  CTO1    LIT     1  0.284864865125  0.020196198771
  CTO1    LPH     1  0.169270756447  0.000000000000
  CTO1   LU3P     1  0.289648991242  0.166731218816
  CTO1     MG     1  0.274842254546  0.051243325419
  CTO1   MN2P     1  0.276508235149  0.171747976291
  CTO1   MN3P     1  0.203516903172  0.148045032716
  CTO1      N     1  0.334087019303  0.004184000000
  CTO1     NC     1  0.334087019303  0.324091246411
  CTO1    NC2     1  0.334087019303  0.187114168357
  CTO1  NC2D1     1  0.307360057758  0.187114168357
  CTO1  NC311     1  0.347450500075  0.088756043175
  CTO1   ND3P     1  0.313587439798  0.177117175768
  CTO1     NE     1  0.305578260322  0.122698965603
  CTO1  NG1T1     1  0.328741626994  0.177512086349
  CTO1  NG2D1     1  0.334087019303  0.187114168357
  CTO1  NG2O1     1  0.334087019303  0.187114168357
  CTO1  NG2P1     1  0.334087019303  0.187114168357
  CTO1 NG2R43     1  0.334087019303  0.187114168357
  CTO1 NG2R50     1  0.334087019303  0.187114168357
  CTO1 NG2R51     1  0.334087019303  0.187114168357
  CTO1 NG2R52     1  0.334087019303  0.187114168357
  CTO1 NG2R53     1  0.334087019303  0.187114168357
  CTO1 NG2R57     1  0.334087019303  0.187114168357
  CTO1 NG2R60     1  0.337650614175  0.102486650838
  CTO1 NG2R61     1  0.334087019303  0.187114168357
  CTO1 NG2R62     1  0.352795892384  0.093557084179
  CTO1 NG2R67     1  0.334087019303  0.187114168357
  CTO1 NG2RC0     1  0.334087019303  0.187114168357
  CTO1  NG2S0     1  0.334087019303  0.004184000000
  CTO1  NG2S1     1  0.307360057758  0.187114168357
  CTO1  NG2S2     1  0.334087019303  0.187114168357
  CTO1  NG2S3     1  0.334087019303  0.187114168357
  CTO1  NG301     1  0.347450500075  0.078275472531
  CTO1  NG311     1  0.347450500075  0.088756043175
  CTO1  NG321     1  0.346559601357  0.102486650838
  CTO1  NG331     1  0.345668702638  0.110698234855
  CTO1 NG3C51     1  0.334087019303  0.187114168357
  CTO1  NG3N1     1  0.351904993665  0.102486650838
  CTO1  NG3P0     1  0.334087019303  0.187114168357
  CTO1  NG3P1     1  0.334087019303  0.187114168357
  CTO1  NG3P2     1  0.334087019303  0.187114168357
  CTO1  NG3P3     1  0.334087019303  0.187114168357
  CTO1    NH1     1  0.307360057758  0.187114168357
  CTO1    NH2     1  0.334087019303  0.187114168357
  CTO1    NH3     1  0.334087019303  0.187114168357
  CTO1   NH3L     1  0.334087019303  0.187114168357
  CTO1    NHL     1  0.307360057758  0.187114168357
  CTO1     NI     1  0.282949432881  0.994525446633
  CTO1   NI2P     1  0.238787583423  0.158440517242
  CTO1    NN1     1  0.334087019303  0.187114168357
  CTO1   NN1C     1  0.334087019303  0.187114168357
  CTO1    NN2     1  0.334087019303  0.187114168357
  CTO1   NN2B     1  0.334087019303  0.187114168357
  CTO1   NN2C     1  0.334087019303  0.187114168357
  CTO1   NN2G     1  0.334087019303  0.187114168357
  CTO1   NN2U     1  0.334087019303  0.187114168357
  CTO1    NN3     1  0.334087019303  0.187114168357
  CTO1   NN3A     1  0.334087019303  0.187114168357
  CTO1   NN3G     1  0.334087019303  0.187114168357
  CTO1   NN3I     1  0.334087019303  0.187114168357
  CTO1    NN4     1  0.334087019303  0.187114168357
  CTO1    NN6     1  0.334087019303  0.187114168357
  CTO1    NNG     1  0.334087019303  0.187114168357
  CTO1     NP     1  0.334087019303  0.187114168357
  CTO1    NPH     1  0.334087019303  0.187114168357
  CTO1    NR1     1  0.334087019303  0.187114168357
  CTO1    NR2     1  0.334087019303  0.187114168357
  CTO1    NR3     1  0.334087019303  0.187114168357
  CTO1   NRC4     1  0.334087019303  0.187114168357
  CTO1   NRN1     1  0.347450500075  0.280671252536
  CTO1   NRN2     1  0.346559601357  0.102486650838
  CTO1    NS1     1  0.334087019303  0.187114168357
  CTO1    NS2     1  0.334087019303  0.187114168357
  CTO1    NTL     1  0.334087019303  0.187114168357
  CTO1     NY     1  0.334087019303  0.187114168357
  CTO1      O     1  0.293996576986  0.144938011577
  CTO1    O2L     1  0.320723538531  0.144938011577
  CTO1    OAL     1  0.326959829558  0.163176000000
  CTO1     OB     1  0.293996576986  0.144938011577
  CTO1    OBL     1  0.293996576986  0.144938011577
  CTO1     OC     1  0.320723538531  0.144938011577
  CTO1  OC2D1     1  0.293996576986  0.144938011577
  CTO1  OC2D2     1  0.320723538531  0.144938011577
  CTO1  OC2D3     1  0.293996576986  0.144938011577
  CTO1  OC2D4     1  0.293996576986  0.144938011577
  CTO1  OC2DP     1  0.320723538531  0.144938011577
  CTO1  OC301     1  0.316269044940  0.132309697301
  CTO1  OC302     1  0.316269044940  0.132309697301
  CTO1  OC303     1  0.316269044940  0.132309697301
  CTO1 OC305A     1  0.316269044940  0.132309697301
  CTO1  OC30A     1  0.316269044940  0.132309697301
  CTO1  OC30P     1  0.326959829558  0.163176000000
  CTO1  OC311     1  0.326514380198  0.183381431383
  CTO1 OC311M     1  0.326514380198  0.183381431383
  CTO1  OC312     1  0.326959829558  0.163176000000
  CTO1 OC3C51     1  0.316269044940  0.132309697301
  CTO1 OC3C5M     1  0.316269044940  0.132309697301
  CTO1 OC3C61     1  0.316269044940  0.132309697301
  CTO1    OCA     1  0.293996576986  0.144938011577
  CTO1    OCL     1  0.320723538531  0.144938011577
  CTO1  OG2D1     1  0.293996576986  0.144938011577
  CTO1  OG2D2     1  0.320723538531  0.144938011577
  CTO1  OG2D3     1  0.293996576986  0.144938011577
  CTO1  OG2D4     1  0.320723538531  0.144938011577
  CTO1  OG2D5     1  0.320010819556  0.169954883425
  CTO1  OG2N1     1  0.320723538531  0.144938011577
  CTO1  OG2P1     1  0.320723538531  0.144938011577
  CTO1 OG2R50     1  0.320723538531  0.144938011577
  CTO1  OG2S1     1  0.318906105146  0.157831660601
  CTO1  OG301     1  0.316269044940  0.132309697301
  CTO1  OG302     1  0.316269044940  0.132309697301
  CTO1  OG303     1  0.316269044940  0.132309697301
  CTO1  OG304     1  0.316269044940  0.132309697301
  CTO1  OG311     1  0.326514380198  0.183381431383
  CTO1  OG312     1  0.325178032121  0.144938011577
  CTO1 OG3C31     1  0.316269044940  0.132309697301
  CTO1 OG3C51     1  0.316269044940  0.132309697301
  CTO1 OG3C61     1  0.316269044940  0.132309697301
  CTO1 OG3R60     1  0.316269044940  0.132309697301
  CTO1    OH1     1  0.326959829558  0.163176000000
  CTO1    OHL     1  0.326959829558  0.163176000000
  CTO1   OLG1     1  0.293996576986  0.144938011577
  CTO1   OLG2     1  0.320723538531  0.144938011577
  CTO1   OLG3     1  0.320723538531  0.144938011577
  CTO1   OLG4     1  0.316269044940  0.132309697301
  CTO1   OLG5     1  0.316269044940  0.132309697301
  CTO1   OLG6     1  0.326514380198  0.183381431383
  CTO1   OLG7     1  0.316269044940  0.132309697301
  CTO1   OLG8     1  0.316269044940  0.132309697301
  CTO1     OM     1  0.320723538531  0.144938011577
  CTO1    ON1     1  0.320723538531  0.144938011577
  CTO1   ON1C     1  0.320723538531  0.144938011577
  CTO1    ON2     1  0.326959829558  0.163176000000
  CTO1   ON2B     1  0.326959829558  0.163176000000
  CTO1   ON2M     1  0.316269044940  0.132309697301
  CTO1    ON3     1  0.320723538531  0.144938011577
  CTO1    ON4     1  0.326959829558  0.163176000000
  CTO1    ON5     1  0.326959829558  0.163176000000
  CTO1    ON6     1  0.326959829558  0.163176000000
  CTO1   ON6B     1  0.326959829558  0.163176000000
  CTO1   OPER     1  0.318427692534  0.188901923946
  CTO1     OS     1  0.326959829558  0.163176000000
  CTO1   OSIA     1  0.326959829558  0.163176000000
  CTO1   OSIE     1  0.326959829558  0.163176000000
  CTO1   OSIH     1  0.326959829558  0.163176000000
  CTO1    OSL     1  0.316269044940  0.132309697301
  CTO1   OSLP     1  0.316269044940  0.132309697301
  CTO1    OST     1  0.320010819556  0.169954883425
  CTO1     OT     1  0.326799467788  0.163176000000
  CTO1     OX     1  0.320723538531  0.144938011577
  CTO1      P     1  0.360813980847  0.320014464673
  CTO1     P2     1  0.360813980847  0.320014464673
  CTO1     P3     1  0.360813980847  0.320014464673
  CTO1     P4     1  0.360813980847  0.320014464673
  CTO1     PB     1  0.328073452955  0.716185437439
  CTO1   PB2P     1  0.325890751096  0.204716924713
  CTO1     PC     1  0.360813980847  0.320014464673
  CTO1     PD     1  0.294842930769  1.037598257516
  CTO1   PD2P     1  0.251865976605  0.174628752363
  CTO1    PG0     1  0.360813980847  0.320014464673
  CTO1    PG1     1  0.360813980847  0.320014464673
  CTO1    PG2     1  0.360813980847  0.320014464673
  CTO1     PL     1  0.360813980847  0.320014464673
  CTO1   PM3P     1  0.316910492017  0.176275053255
  CTO1    POT     1  0.326403017859  0.123410269913
  CTO1   PR3P     1  0.317079762773  0.178642591472
  CTO1     PT     1  0.296001099102  1.168527606863
  CTO1   PT2P     1  0.240284293270  0.168973521997
  CTO1   PU3P     1  0.318024115415  0.179522368790
  CTO1   RA2P     1  0.355459679551  0.229891668540
  CTO1   RH3P     1  0.210367914314  0.149983415617
  CTO1    RUB     1  0.338541512893  0.162045623205
  CTO1      S     1  0.347450500075  0.280671252536
  CTO1     SC     1  0.356359487256  0.286840588481
  CTO1   SC3P     1  0.266993436839  0.157109060719
  CTO1  SEGD1     1  0.363041227642  0.330244580395
  CTO1  SG2D1     1  0.351904993665  0.314496560236
  CTO1  SG2P1     1  0.355798221064  0.332305491450
  CTO1  SG2P2     1  0.352314807076  0.329421919951
  CTO1 SG2R50     1  0.347450500075  0.280671252536
  CTO1  SG301     1  0.345223253279  0.257919081884
  CTO1  SG302     1  0.365268474438  0.286840588481
  CTO1  SG311     1  0.347450500075  0.280671252536
  CTO1  SG3O1     1  0.356359487256  0.286840588481
  CTO1  SG3O2     1  0.347450500075  0.247528778125
  CTO1  SG3O3     1  0.347450500075  0.247528778125
  CTO1     SI     1  0.365268474438  0.324091246411
  CTO1   SIH3     1  0.365268474438  0.324091246411
  CTO1     SL     1  0.356359487256  0.286840588481
  CTO1     SM     1  0.345223253279  0.257919081884
  CTO1   SM2P     1  0.334666103469  0.207012887251
  CTO1   SM3P     1  0.308847858618  0.175378986746
  CTO1   SN2P     1  0.316981763914  0.181365662197
  CTO1    SOD     1  0.294954293108  0.090610410351
  CTO1     SP     1  0.365268474438  0.280671252536
  CTO1   SR2P     1  0.334612649546  0.200133451797
  CTO1     SS     1  0.365268474438  0.286840588481
  CTO1   TB3P     1  0.300678317372  0.172155203837
  CTO1   TI1P     1  0.341276571958  0.266826378666
  CTO1   TI3P     1  0.243117351193  0.149983415617
  CTO1   TL3P     1  0.246716582015  0.168869889039
  CTO1   TM3P     1  0.289417357575  0.168402751521
  CTO1    U3P     1  0.320830446377  0.182184255566
  CTO1    V2P     1  0.267599247968  0.167830039933
  CTO1    V3P     1  0.223989755715  0.147096016316
  CTO1    Y3P     1  0.295190381269  0.170263611896
  CTO1   YB2P     1  0.312616360195  0.189623385225
  CTO1   YB3P     1  0.284659958420  0.167569069413
  CTO1     ZN     1  0.266378716724  0.209200000000
  CTO2   CTO2     1  0.338541512893  0.041840000000
  CTO2     CU     1  0.285800308779  0.908997471504
  CTO2   CU1P     1  0.246066225950  0.180057894334
  CTO2   CU2P     1  0.233869822499  0.162315474555
  CTO2     CY     1  0.346559601357  0.113045454929
  CTO2    DUM     1  0.169270756447  0.000000000000
  CTO2   DY3P     1  0.297952167295  0.171135318061
  CTO2   ER3P     1  0.291083338178  0.169232326746
  CTO2   EU2P     1  0.333231756533  0.203602227414
  CTO2   EU3P     1  0.304954631219  0.174528477447
  CTO2     F1     1  0.314487247504  0.153729976257
  CTO2     F2     1  0.314487247504  0.135577095411
  CTO2     F3     1  0.311814551349  0.130309939452
  CTO2     FA     1  0.320723538531  0.144938011577
  CTO2     FE     1  0.227179173126  0.000000000000
  CTO2   FE2P     1  0.265496726993  0.167098295383
  CTO2   FE3P     1  0.219722350855  0.148045032716
  CTO2   FGA1     1  0.314487247504  0.153729976257
  CTO2   FGA2     1  0.314487247504  0.135577095411
  CTO2   FGA3     1  0.311814551349  0.130309939452
  CTO2   FGP1     1  0.311814551349  0.130309939452
  CTO2   FGR1     1  0.320723538531  0.144938011577
  CTO2    FNA     1  0.320723538531  0.144938011577
  CTO2   GA3P     1  0.189485248361  0.145299904804
  CTO2   GD3P     1  0.303351013527  0.173673803114
  CTO2      H     1  0.189271432669  0.089736802707
  CTO2     HA     1  0.286869387241  0.062058748940
  CTO2    HA1     1  0.288651184677  0.088756043175
  CTO2    HA2     1  0.288651184677  0.077149148019
  CTO2    HA3     1  0.288651184677  0.064818249282
  CTO2    HAL     1  0.286869387241  0.062058748940
  CTO2   HAL1     1  0.286869387241  0.062058748940
  CTO2   HAL2     1  0.288651184677  0.070011711020
  CTO2   HAL3     1  0.288651184677  0.064818249282
  CTO2     HB     1  0.286869387241  0.062058748940
  CTO2    HB1     1  0.286869387241  0.062058748940
  CTO2    HB2     1  0.288651184677  0.070011711020
  CTO2    HBL     1  0.286869387241  0.062058748940
  CTO2     HC     1  0.189271432669  0.089736802707
  CTO2   HCA1     1  0.288651184677  0.088756043175
  CTO2  HCA1A     1  0.288651184677  0.088756043175
  CTO2 HCA1C2     1  0.288651184677  0.088756043175
  CTO2   HCA2     1  0.288651184677  0.078275472531
  CTO2 HCA25A     1  0.285087589805  0.078275472531
  CTO2  HCA2A     1  0.288651184677  0.078275472531
  CTO2 HCA2C2     1  0.285087589805  0.078275472531
  CTO2   HCA3     1  0.288651184677  0.064818249282
  CTO2  HCA3A     1  0.288651184677  0.064818249282
  CTO2  HCA3M     1  0.288651184677  0.064818249282
  CTO2    HCL     1  0.189271432669  0.089736802707
  CTO2   HCP1     1  0.189271432669  0.089736802707
  CTO2  HCP1M     1  0.189271432669  0.089736802707
  CTO2   HCR1     1  0.240542653898  0.089736802707
  CTO2     HE     1  0.301123766731  0.061020452073
  CTO2    HE1     1  0.280633096214  0.073666921749
  CTO2    HE2     1  0.281523994932  0.067464972838
  CTO2   HEL1     1  0.280633096214  0.073666921749
  CTO2   HEL2     1  0.281523994932  0.067464972838
  CTO2    HF1     1  0.286869387241  0.070011711020
  CTO2    HF2     1  0.285087589805  0.072469005789
  CTO2   HG2P     1  0.274557166956  0.189623385225
  CTO2   HGA1     1  0.288651184677  0.088756043175
  CTO2   HGA2     1  0.288651184677  0.078275472531
  CTO2   HGA3     1  0.288651184677  0.064818249282
  CTO2   HGA4     1  0.280633096214  0.073666921749
  CTO2   HGA5     1  0.281523994932  0.067464972838
  CTO2   HGA6     1  0.286869387241  0.070011711020
  CTO2   HGA7     1  0.285087589805  0.072469005789
  CTO2 HGAAM0     1  0.283305792369  0.070011711020
  CTO2 HGAAM1     1  0.283305792369  0.070011711020
  CTO2 HGAAM2     1  0.281523994932  0.083680000000
  CTO2   HGP1     1  0.189271432669  0.089736802707
  CTO2   HGP2     1  0.189271432669  0.089736802707
  CTO2   HGP3     1  0.209361198763  0.132309697301
  CTO2   HGP4     1  0.189271432669  0.089736802707
  CTO2   HGP5     1  0.231633666716  0.089736802707
  CTO2 HGPAM1     1  0.247224394284  0.039692909190
  CTO2 HGPAM2     1  0.247224394284  0.041840000000
  CTO2 HGPAM3     1  0.246778944925  0.045833423612
  CTO2  HGR51     1  0.290272620344  0.072469005789
  CTO2  HGR52     1  0.249451641079  0.089736802707
  CTO2  HGR53     1  0.231633666716  0.089736802707
  CTO2  HGR61     1  0.290272620344  0.072469005789
  CTO2  HGR62     1  0.267269615442  0.089736802707
  CTO2  HGR63     1  0.249451641079  0.089736802707
  CTO2  HGR71     1  0.290272620344  0.072469005789
  CTO2     HL     1  0.231633666716  0.089736802707
  CTO2  HLGA1     1  0.288651184677  0.088756043175
  CTO2  HLGA2     1  0.288651184677  0.078275472531
  CTO2  HLGA3     1  0.288651184677  0.064818249282
  CTO2  HLGA4     1  0.280633096214  0.073666921749
  CTO2  HLGP1     1  0.189271432669  0.089736802707
  CTO2 HLGR52     1  0.249451641079  0.089736802707
  CTO2 HLGR61     1  0.290272620344  0.072469005789
  CTO2 HLGR62     1  0.267269615442  0.089736802707
  CTO2    HN1     1  0.189271432669  0.089736802707
  CTO2    HN2     1  0.189271432669  0.089736802707
  CTO2    HN3     1  0.267269615442  0.089736802707
  CTO2   HN3B     1  0.249451641079  0.089736802707
  CTO2    HN4     1  0.189271432669  0.089736802707
  CTO2    HN5     1  0.189271432669  0.089736802707
  CTO2    HN6     1  0.286869387241  0.062058748940
  CTO2    HN7     1  0.286869387241  0.062058748940
  CTO2    HN8     1  0.288651184677  0.070011711020
  CTO2    HN9     1  0.288651184677  0.064818249282
  CTO2   HNE1     1  0.280633096214  0.073666921749
  CTO2   HNE2     1  0.281523994932  0.067464972838
  CTO2    HNP     1  0.290272620344  0.072469005789
  CTO2   HO3P     1  0.293168041178  0.170263611896
  CTO2    HOL     1  0.189271432669  0.089736802707
  CTO2     HP     1  0.290272620344  0.072469005789
  CTO2   HPER     1  0.189271432669  0.089736802707
  CTO2    HR1     1  0.249451641079  0.089736802707
  CTO2    HR2     1  0.231633666716  0.089736802707
  CTO2    HR3     1  0.300054688270  0.036952087465
  CTO2   HRA3     1  0.288651184677  0.064818249282
  CTO2   HRM1     1  0.247224394284  0.039692909190
  CTO2   HRM2     1  0.247224394284  0.041840000000
  CTO2   HRP2     1  0.189271432669  0.089736802707
  CTO2     HS     1  0.209361198763  0.132309697301
  CTO2   HSIA     1  0.286869387241  0.062058748940
  CTO2   HSIO     1  0.189271432669  0.089736802707
  CTO2     HT     1  0.189271432669  0.089736802707
  CTO2     HX     1  0.189271432669  0.089736802707
  CTO2   IGR1     1  0.368832069310  0.301712530731
  CTO2   IN3P     1  0.246449312399  0.160580590010
  CTO2   LA3P     1  0.327200372211  0.182184255566
  CTO2    LIT     1  0.284864865125  0.020196198771
  CTO2    LPH     1  0.169270756447  0.000000000000
  CTO2   LU3P     1  0.289648991242  0.166731218816
  CTO2     MG     1  0.274842254546  0.051243325419
  CTO2   MN2P     1  0.276508235149  0.171747976291
  CTO2   MN3P     1  0.203516903172  0.148045032716
  CTO2      N     1  0.334087019303  0.004184000000
  CTO2     NC     1  0.334087019303  0.324091246411
  CTO2    NC2     1  0.334087019303  0.187114168357
  CTO2  NC2D1     1  0.307360057758  0.187114168357
  CTO2  NC311     1  0.347450500075  0.088756043175
  CTO2   ND3P     1  0.313587439798  0.177117175768
  CTO2     NE     1  0.305578260322  0.122698965603
  CTO2  NG1T1     1  0.328741626994  0.177512086349
  CTO2  NG2D1     1  0.334087019303  0.187114168357
  CTO2  NG2O1     1  0.334087019303  0.187114168357
  CTO2  NG2P1     1  0.334087019303  0.187114168357
  CTO2 NG2R43     1  0.334087019303  0.187114168357
  CTO2 NG2R50     1  0.334087019303  0.187114168357
  CTO2 NG2R51     1  0.334087019303  0.187114168357
  CTO2 NG2R52     1  0.334087019303  0.187114168357
  CTO2 NG2R53     1  0.334087019303  0.187114168357
  CTO2 NG2R57     1  0.334087019303  0.187114168357
  CTO2 NG2R60     1  0.337650614175  0.102486650838
  CTO2 NG2R61     1  0.334087019303  0.187114168357
  CTO2 NG2R62     1  0.352795892384  0.093557084179
  CTO2 NG2R67     1  0.334087019303  0.187114168357
  CTO2 NG2RC0     1  0.334087019303  0.187114168357
  CTO2  NG2S0     1  0.334087019303  0.004184000000
  CTO2  NG2S1     1  0.307360057758  0.187114168357
  CTO2  NG2S2     1  0.334087019303  0.187114168357
  CTO2  NG2S3     1  0.334087019303  0.187114168357
  CTO2  NG301     1  0.347450500075  0.078275472531
  CTO2  NG311     1  0.347450500075  0.088756043175
  CTO2  NG321     1  0.346559601357  0.102486650838
  CTO2  NG331     1  0.345668702638  0.110698234855
  CTO2 NG3C51     1  0.334087019303  0.187114168357
  CTO2  NG3N1     1  0.351904993665  0.102486650838
  CTO2  NG3P0     1  0.334087019303  0.187114168357
  CTO2  NG3P1     1  0.334087019303  0.187114168357
  CTO2  NG3P2     1  0.334087019303  0.187114168357
  CTO2  NG3P3     1  0.334087019303  0.187114168357
  CTO2    NH1     1  0.307360057758  0.187114168357
  CTO2    NH2     1  0.334087019303  0.187114168357
  CTO2    NH3     1  0.334087019303  0.187114168357
  CTO2   NH3L     1  0.334087019303  0.187114168357
  CTO2    NHL     1  0.307360057758  0.187114168357
  CTO2     NI     1  0.282949432881  0.994525446633
  CTO2   NI2P     1  0.238787583423  0.158440517242
  CTO2    NN1     1  0.334087019303  0.187114168357
  CTO2   NN1C     1  0.334087019303  0.187114168357
  CTO2    NN2     1  0.334087019303  0.187114168357
  CTO2   NN2B     1  0.334087019303  0.187114168357
  CTO2   NN2C     1  0.334087019303  0.187114168357
  CTO2   NN2G     1  0.334087019303  0.187114168357
  CTO2   NN2U     1  0.334087019303  0.187114168357
  CTO2    NN3     1  0.334087019303  0.187114168357
  CTO2   NN3A     1  0.334087019303  0.187114168357
  CTO2   NN3G     1  0.334087019303  0.187114168357
  CTO2   NN3I     1  0.334087019303  0.187114168357
  CTO2    NN4     1  0.334087019303  0.187114168357
  CTO2    NN6     1  0.334087019303  0.187114168357
  CTO2    NNG     1  0.334087019303  0.187114168357
  CTO2     NP     1  0.334087019303  0.187114168357
  CTO2    NPH     1  0.334087019303  0.187114168357
  CTO2    NR1     1  0.334087019303  0.187114168357
  CTO2    NR2     1  0.334087019303  0.187114168357
  CTO2    NR3     1  0.334087019303  0.187114168357
  CTO2   NRC4     1  0.334087019303  0.187114168357
  CTO2   NRN1     1  0.347450500075  0.280671252536
  CTO2   NRN2     1  0.346559601357  0.102486650838
  CTO2    NS1     1  0.334087019303  0.187114168357
  CTO2    NS2     1  0.334087019303  0.187114168357
  CTO2    NTL     1  0.334087019303  0.187114168357
  CTO2     NY     1  0.334087019303  0.187114168357
  CTO2      O     1  0.293996576986  0.144938011577
  CTO2    O2L     1  0.320723538531  0.144938011577
  CTO2    OAL     1  0.326959829558  0.163176000000
  CTO2     OB     1  0.293996576986  0.144938011577
  CTO2    OBL     1  0.293996576986  0.144938011577
  CTO2     OC     1  0.320723538531  0.144938011577
  CTO2  OC2D1     1  0.293996576986  0.144938011577
  CTO2  OC2D2     1  0.320723538531  0.144938011577
  CTO2  OC2D3     1  0.293996576986  0.144938011577
  CTO2  OC2D4     1  0.293996576986  0.144938011577
  CTO2  OC2DP     1  0.320723538531  0.144938011577
  CTO2  OC301     1  0.316269044940  0.132309697301
  CTO2  OC302     1  0.316269044940  0.132309697301
  CTO2  OC303     1  0.316269044940  0.132309697301
  CTO2 OC305A     1  0.316269044940  0.132309697301
  CTO2  OC30A     1  0.316269044940  0.132309697301
  CTO2  OC30P     1  0.326959829558  0.163176000000
  CTO2  OC311     1  0.326514380198  0.183381431383
  CTO2 OC311M     1  0.326514380198  0.183381431383
  CTO2  OC312     1  0.326959829558  0.163176000000
  CTO2 OC3C51     1  0.316269044940  0.132309697301
  CTO2 OC3C5M     1  0.316269044940  0.132309697301
  CTO2 OC3C61     1  0.316269044940  0.132309697301
  CTO2    OCA     1  0.293996576986  0.144938011577
  CTO2    OCL     1  0.320723538531  0.144938011577
  CTO2  OG2D1     1  0.293996576986  0.144938011577
  CTO2  OG2D2     1  0.320723538531  0.144938011577
  CTO2  OG2D3     1  0.293996576986  0.144938011577
  CTO2  OG2D4     1  0.320723538531  0.144938011577
  CTO2  OG2D5     1  0.320010819556  0.169954883425
  CTO2  OG2N1     1  0.320723538531  0.144938011577
  CTO2  OG2P1     1  0.320723538531  0.144938011577
  CTO2 OG2R50     1  0.320723538531  0.144938011577
  CTO2  OG2S1     1  0.318906105146  0.157831660601
  CTO2  OG301     1  0.316269044940  0.132309697301
  CTO2  OG302     1  0.316269044940  0.132309697301
  CTO2  OG303     1  0.316269044940  0.132309697301
  CTO2  OG304     1  0.316269044940  0.132309697301
  CTO2  OG311     1  0.326514380198  0.183381431383
  CTO2  OG312     1  0.325178032121  0.144938011577
  CTO2 OG3C31     1  0.316269044940  0.132309697301
  CTO2 OG3C51     1  0.316269044940  0.132309697301
  CTO2 OG3C61     1  0.316269044940  0.132309697301
  CTO2 OG3R60     1  0.316269044940  0.132309697301
  CTO2    OH1     1  0.326959829558  0.163176000000
  CTO2    OHL     1  0.326959829558  0.163176000000
  CTO2   OLG1     1  0.293996576986  0.144938011577
  CTO2   OLG2     1  0.320723538531  0.144938011577
  CTO2   OLG3     1  0.320723538531  0.144938011577
  CTO2   OLG4     1  0.316269044940  0.132309697301
  CTO2   OLG5     1  0.316269044940  0.132309697301
  CTO2   OLG6     1  0.326514380198  0.183381431383
  CTO2   OLG7     1  0.316269044940  0.132309697301
  CTO2   OLG8     1  0.316269044940  0.132309697301
  CTO2     OM     1  0.320723538531  0.144938011577
  CTO2    ON1     1  0.320723538531  0.144938011577
  CTO2   ON1C     1  0.320723538531  0.144938011577
  CTO2    ON2     1  0.326959829558  0.163176000000
  CTO2   ON2B     1  0.326959829558  0.163176000000
  CTO2   ON2M     1  0.316269044940  0.132309697301
  CTO2    ON3     1  0.320723538531  0.144938011577
  CTO2    ON4     1  0.326959829558  0.163176000000
  CTO2    ON5     1  0.326959829558  0.163176000000
  CTO2    ON6     1  0.326959829558  0.163176000000
  CTO2   ON6B     1  0.326959829558  0.163176000000
  CTO2   OPER     1  0.318427692534  0.188901923946
  CTO2     OS     1  0.326959829558  0.163176000000
  CTO2   OSIA     1  0.326959829558  0.163176000000
  CTO2   OSIE     1  0.326959829558  0.163176000000
  CTO2   OSIH     1  0.326959829558  0.163176000000
  CTO2    OSL     1  0.316269044940  0.132309697301
  CTO2   OSLP     1  0.316269044940  0.132309697301
  CTO2    OST     1  0.320010819556  0.169954883425
  CTO2     OT     1  0.326799467788  0.163176000000
  CTO2     OX     1  0.320723538531  0.144938011577
  CTO2      P     1  0.360813980847  0.320014464673
  CTO2     P2     1  0.360813980847  0.320014464673
  CTO2     P3     1  0.360813980847  0.320014464673
  CTO2     P4     1  0.360813980847  0.320014464673
  CTO2     PB     1  0.328073452955  0.716185437439
  CTO2   PB2P     1  0.325890751096  0.204716924713
  CTO2     PC     1  0.360813980847  0.320014464673
  CTO2     PD     1  0.294842930769  1.037598257516
  CTO2   PD2P     1  0.251865976605  0.174628752363
  CTO2    PG0     1  0.360813980847  0.320014464673
  CTO2    PG1     1  0.360813980847  0.320014464673
  CTO2    PG2     1  0.360813980847  0.320014464673
  CTO2     PL     1  0.360813980847  0.320014464673
  CTO2   PM3P     1  0.316910492017  0.176275053255
  CTO2    POT     1  0.326403017859  0.123410269913
  CTO2   PR3P     1  0.317079762773  0.178642591472
  CTO2     PT     1  0.296001099102  1.168527606863
  CTO2   PT2P     1  0.240284293270  0.168973521997
  CTO2   PU3P     1  0.318024115415  0.179522368790
  CTO2   RA2P     1  0.355459679551  0.229891668540
  CTO2   RH3P     1  0.210367914314  0.149983415617
  CTO2    RUB     1  0.338541512893  0.162045623205
  CTO2      S     1  0.347450500075  0.280671252536
  CTO2     SC     1  0.356359487256  0.286840588481
  CTO2   SC3P     1  0.266993436839  0.157109060719
  CTO2  SEGD1     1  0.363041227642  0.330244580395
  CTO2  SG2D1     1  0.351904993665  0.314496560236
  CTO2  SG2P1     1  0.355798221064  0.332305491450
  CTO2  SG2P2     1  0.352314807076  0.329421919951
  CTO2 SG2R50     1  0.347450500075  0.280671252536
  CTO2  SG301     1  0.345223253279  0.257919081884
  CTO2  SG302     1  0.365268474438  0.286840588481
  CTO2  SG311     1  0.347450500075  0.280671252536
  CTO2  SG3O1     1  0.356359487256  0.286840588481
  CTO2  SG3O2     1  0.347450500075  0.247528778125
  CTO2  SG3O3     1  0.347450500075  0.247528778125
  CTO2     SI     1  0.365268474438  0.324091246411
  CTO2   SIH3     1  0.365268474438  0.324091246411
  CTO2     SL     1  0.356359487256  0.286840588481
  CTO2     SM     1  0.345223253279  0.257919081884
  CTO2   SM2P     1  0.334666103469  0.207012887251
  CTO2   SM3P     1  0.308847858618  0.175378986746
  CTO2   SN2P     1  0.316981763914  0.181365662197
  CTO2    SOD     1  0.294954293108  0.090610410351
  CTO2     SP     1  0.365268474438  0.280671252536
  CTO2   SR2P     1  0.334612649546  0.200133451797
  CTO2     SS     1  0.365268474438  0.286840588481
  CTO2   TB3P     1  0.300678317372  0.172155203837
  CTO2   TI1P     1  0.341276571958  0.266826378666
  CTO2   TI3P     1  0.243117351193  0.149983415617
  CTO2   TL3P     1  0.246716582015  0.168869889039
  CTO2   TM3P     1  0.289417357575  0.168402751521
  CTO2    U3P     1  0.320830446377  0.182184255566
  CTO2    V2P     1  0.267599247968  0.167830039933
  CTO2    V3P     1  0.223989755715  0.147096016316
  CTO2    Y3P     1  0.295190381269  0.170263611896
  CTO2   YB2P     1  0.312616360195  0.189623385225
  CTO2   YB3P     1  0.284659958420  0.167569069413
  CTO2     ZN     1  0.266378716724  0.209200000000
    CU     HP     1  0.237531416231  1.574429804596
    CU      N     1  0.281345815189  0.090899747150
    CU  NC2D1     1  0.254618853645  4.065160275315
    CU  NG2S0     1  0.281345815189  0.090899747150
    CU  NG2S1     1  0.254618853645  4.065160275315
    CU    NH1     1  0.254618853645  4.065160275315
    CU    NHL     1  0.254618853645  4.065160275315
    CU      O     1  0.241255372872  3.148859609192
    CU     OB     1  0.241255372872  3.148859609192
    CU    OBL     1  0.241255372872  3.148859609192
    CU  OC2D1     1  0.241255372872  3.148859609192
    CU  OC2D3     1  0.241255372872  3.148859609192
    CU  OC2D4     1  0.241255372872  3.148859609192
    CU    OCA     1  0.241255372872  3.148859609192
    CU  OG2D1     1  0.241255372872  3.148859609192
    CU  OG2D3     1  0.241255372872  3.148859609192
    CU   OLG1     1  0.241255372872  3.148859609192
  CU1P     HP     1  0.197797333402  0.311869421290
  CU1P      N     1  0.241611732360  0.018005789433
  CU1P  NC2D1     1  0.214884770815  0.805243383233
  CU1P  NG2S0     1  0.241611732360  0.018005789433
  CU1P  NG2S1     1  0.214884770815  0.805243383233
  CU1P    NH1     1  0.214884770815  0.805243383233
  CU1P    NHL     1  0.214884770815  0.805243383233
  CU1P      O     1  0.201521290043  0.623738842581
  CU1P     OB     1  0.201521290043  0.623738842581
  CU1P    OBL     1  0.201521290043  0.623738842581
  CU1P  OC2D1     1  0.201521290043  0.623738842581
  CU1P  OC2D3     1  0.201521290043  0.623738842581
  CU1P  OC2D4     1  0.201521290043  0.623738842581
  CU1P    OCA     1  0.201521290043  0.623738842581
  CU1P  OG2D1     1  0.201521290043  0.623738842581
  CU1P  OG2D3     1  0.201521290043  0.623738842581
  CU1P   OLG1     1  0.201521290043  0.623738842581
  CU2P     HP     1  0.185600929950  0.281138648784
  CU2P      N     1  0.229415328908  0.016231547455
  CU2P  NC2D1     1  0.202688367364  0.725896869810
  CU2P  NG2S0     1  0.229415328908  0.016231547455
  CU2P  NG2S1     1  0.202688367364  0.725896869810
  CU2P    NH1     1  0.202688367364  0.725896869810
  CU2P    NHL     1  0.202688367364  0.725896869810
  CU2P      O     1  0.189324886592  0.562277297568
  CU2P     OB     1  0.189324886592  0.562277297568
  CU2P    OBL     1  0.189324886592  0.562277297568
  CU2P  OC2D1     1  0.189324886592  0.562277297568
  CU2P  OC2D3     1  0.189324886592  0.562277297568
  CU2P  OC2D4     1  0.189324886592  0.562277297568
  CU2P    OCA     1  0.189324886592  0.562277297568
  CU2P  OG2D1     1  0.189324886592  0.562277297568
  CU2P  OG2D3     1  0.189324886592  0.562277297568
  CU2P   OLG1     1  0.189324886592  0.562277297568
    CY     HP     1  0.298290708808  0.195800471501
    CY      N     1  0.342105107766  0.011304545493
    CY  NC2D1     1  0.315378146222  0.505554643535
    CY  NG2S0     1  0.342105107766  0.011304545493
    CY  NG2S1     1  0.315378146222  0.505554643535
    CY    NH1     1  0.315378146222  0.505554643535
    CY    NHL     1  0.315378146222  0.505554643535
    CY      O     1  0.302014665450  0.391600943002
    CY     OB     1  0.302014665450  0.391600943002
    CY    OBL     1  0.302014665450  0.391600943002
    CY  OC2D1     1  0.302014665450  0.391600943002
    CY  OC2D3     1  0.302014665450  0.391600943002
    CY  OC2D4     1  0.302014665450  0.391600943002
    CY    OCA     1  0.302014665450  0.391600943002
    CY  OG2D1     1  0.302014665450  0.391600943002
    CY  OG2D3     1  0.302014665450  0.391600943002
    CY   OLG1     1  0.302014665450  0.391600943002
   DUM     HP     1  0.121001863898  0.000000000000
   DUM      N     1  0.164816262856  0.000000000000
   DUM  NC2D1     1  0.138089301312  0.000000000000
   DUM  NG2S0     1  0.164816262856  0.000000000000
   DUM  NG2S1     1  0.138089301312  0.000000000000
   DUM    NH1     1  0.138089301312  0.000000000000
   DUM    NHL     1  0.138089301312  0.000000000000
   DUM      O     1  0.124725820540  0.000000000000
   DUM     OB     1  0.124725820540  0.000000000000
   DUM    OBL     1  0.124725820540  0.000000000000
   DUM  OC2D1     1  0.124725820540  0.000000000000
   DUM  OC2D3     1  0.124725820540  0.000000000000
   DUM  OC2D4     1  0.124725820540  0.000000000000
   DUM    OCA     1  0.124725820540  0.000000000000
   DUM  OG2D1     1  0.124725820540  0.000000000000
   DUM  OG2D3     1  0.124725820540  0.000000000000
   DUM   OLG1     1  0.124725820540  0.000000000000
  DY3P     HP     1  0.249683274746  0.296415065852
  DY3P      N     1  0.293497673704  0.017113531806
  DY3P  NC2D1     1  0.266770712160  0.765340409073
  DY3P  NG2S0     1  0.293497673704  0.017113531806
  DY3P  NG2S1     1  0.266770712160  0.765340409073
  DY3P    NH1     1  0.266770712160  0.765340409073
  DY3P    NHL     1  0.266770712160  0.765340409073
  DY3P      O     1  0.253407231388  0.592830131704
  DY3P     OB     1  0.253407231388  0.592830131704
  DY3P    OBL     1  0.253407231388  0.592830131704
  DY3P  OC2D1     1  0.253407231388  0.592830131704
  DY3P  OC2D3     1  0.253407231388  0.592830131704
  DY3P  OC2D4     1  0.253407231388  0.592830131704
  DY3P    OCA     1  0.253407231388  0.592830131704
  DY3P  OG2D1     1  0.253407231388  0.592830131704
  DY3P  OG2D3     1  0.253407231388  0.592830131704
  DY3P   OLG1     1  0.253407231388  0.592830131704
  ER3P     HP     1  0.242814445629  0.293118988208
  ER3P      N     1  0.286628844587  0.016923232675
  ER3P  NC2D1     1  0.259901883043  0.756829973191
  ER3P  NG2S0     1  0.286628844587  0.016923232675
  ER3P  NG2S1     1  0.259901883043  0.756829973191
  ER3P    NH1     1  0.259901883043  0.756829973191
  ER3P    NHL     1  0.259901883043  0.756829973191
  ER3P      O     1  0.246538402271  0.586237976416
  ER3P     OB     1  0.246538402271  0.586237976416
  ER3P    OBL     1  0.246538402271  0.586237976416
  ER3P  OC2D1     1  0.246538402271  0.586237976416
  ER3P  OC2D3     1  0.246538402271  0.586237976416
  ER3P  OC2D4     1  0.246538402271  0.586237976416
  ER3P    OCA     1  0.246538402271  0.586237976416
  ER3P  OG2D1     1  0.246538402271  0.586237976416
  ER3P  OG2D3     1  0.246538402271  0.586237976416
  ER3P   OLG1     1  0.246538402271  0.586237976416
  EU2P     HP     1  0.284962863984  0.352649402415
  EU2P      N     1  0.328777262943  0.020360222741
  EU2P  NC2D1     1  0.302050301398  0.910536841737
  EU2P  NG2S0     1  0.328777262943  0.020360222741
  EU2P  NG2S1     1  0.302050301398  0.910536841737
  EU2P    NH1     1  0.302050301398  0.910536841737
  EU2P    NHL     1  0.302050301398  0.910536841737
  EU2P      O     1  0.288686820626  0.705298804831
  EU2P     OB     1  0.288686820626  0.705298804831
  EU2P    OBL     1  0.288686820626  0.705298804831
  EU2P  OC2D1     1  0.288686820626  0.705298804831
  EU2P  OC2D3     1  0.288686820626  0.705298804831
  EU2P  OC2D4     1  0.288686820626  0.705298804831
  EU2P    OCA     1  0.288686820626  0.705298804831
  EU2P  OG2D1     1  0.288686820626  0.705298804831
  EU2P  OG2D3     1  0.288686820626  0.705298804831
  EU2P   OLG1     1  0.288686820626  0.705298804831
  EU3P     HP     1  0.256685738671  0.302292190306
  EU3P      N     1  0.300500137629  0.017452847745
  EU3P  NC2D1     1  0.273773176085  0.780515079162
  EU3P  NG2S0     1  0.300500137629  0.017452847745
  EU3P  NG2S1     1  0.273773176085  0.780515079162
  EU3P    NH1     1  0.273773176085  0.780515079162
  EU3P    NHL     1  0.273773176085  0.780515079162
  EU3P      O     1  0.260409695312  0.604584380612
  EU3P     OB     1  0.260409695312  0.604584380612
  EU3P    OBL     1  0.260409695312  0.604584380612
  EU3P  OC2D1     1  0.260409695312  0.604584380612
  EU3P  OC2D3     1  0.260409695312  0.604584380612
  EU3P  OC2D4     1  0.260409695312  0.604584380612
  EU3P    OCA     1  0.260409695312  0.604584380612
  EU3P  OG2D1     1  0.260409695312  0.604584380612
  EU3P  OG2D3     1  0.260409695312  0.604584380612
  EU3P   OLG1     1  0.260409695312  0.604584380612
    F1     HP     1  0.266218354955  0.266268129524
    F1      N     1  0.310032753913  0.015372997626
    F1  NC2D1     1  0.283305792369  0.687501354180
    F1  NG2S0     1  0.310032753913  0.015372997626
    F1  NG2S1     1  0.283305792369  0.687501354180
    F1    NH1     1  0.283305792369  0.687501354180
    F1    NHL     1  0.283305792369  0.687501354180
    F1      O     1  0.269942311597  0.532536259047
    F1     OB     1  0.269942311597  0.532536259047
    F1    OBL     1  0.269942311597  0.532536259047
    F1  OC2D1     1  0.269942311597  0.532536259047
    F1  OC2D3     1  0.269942311597  0.532536259047
    F1  OC2D4     1  0.269942311597  0.532536259047
    F1    OCA     1  0.269942311597  0.532536259047
    F1  OG2D1     1  0.269942311597  0.532536259047
    F1  OG2D3     1  0.269942311597  0.532536259047
    F1   OLG1     1  0.269942311597  0.532536259047
    F2     HP     1  0.266218354955  0.234826417594
    F2      N     1  0.310032753913  0.013557709541
    F2  NC2D1     1  0.283305792369  0.606319203061
    F2  NG2S0     1  0.310032753913  0.013557709541
    F2  NG2S1     1  0.283305792369  0.606319203061
    F2    NH1     1  0.283305792369  0.606319203061
    F2    NHL     1  0.283305792369  0.606319203061
    F2      O     1  0.269942311597  0.469652835188
    F2     OB     1  0.269942311597  0.469652835188
    F2    OBL     1  0.269942311597  0.469652835188
    F2  OC2D1     1  0.269942311597  0.469652835188
    F2  OC2D3     1  0.269942311597  0.469652835188
    F2  OC2D4     1  0.269942311597  0.469652835188
    F2    OCA     1  0.269942311597  0.469652835188
    F2  OG2D1     1  0.269942311597  0.469652835188
    F2  OG2D3     1  0.269942311597  0.469652835188
    F2   OLG1     1  0.269942311597  0.469652835188
    F3     HP     1  0.263545658800  0.225703435862
    F3      N     1  0.307360057758  0.013030993945
    F3  NC2D1     1  0.280633096214  0.582763765517
    F3  NG2S0     1  0.307360057758  0.013030993945
    F3  NG2S1     1  0.280633096214  0.582763765517
    F3    NH1     1  0.280633096214  0.582763765517
    F3    NHL     1  0.280633096214  0.582763765517
    F3      O     1  0.267269615442  0.451406871724
    F3     OB     1  0.267269615442  0.451406871724
    F3    OBL     1  0.267269615442  0.451406871724
    F3  OC2D1     1  0.267269615442  0.451406871724
    F3  OC2D3     1  0.267269615442  0.451406871724
    F3  OC2D4     1  0.267269615442  0.451406871724
    F3    OCA     1  0.267269615442  0.451406871724
    F3  OG2D1     1  0.267269615442  0.451406871724
    F3  OG2D3     1  0.267269615442  0.451406871724
    F3   OLG1     1  0.267269615442  0.451406871724
    FA     HP     1  0.272454645982  0.251040000000
    FA      N     1  0.316269044940  0.014493801158
    FA  NC2D1     1  0.289542083396  0.648182492821
    FA  NG2S0     1  0.316269044940  0.014493801158
    FA  NG2S1     1  0.289542083396  0.648182492821
    FA    NH1     1  0.289542083396  0.648182492821
    FA    NHL     1  0.289542083396  0.648182492821
    FA      O     1  0.276178602624  0.502080000000
    FA     OB     1  0.276178602624  0.502080000000
    FA    OBL     1  0.276178602624  0.502080000000
    FA  OC2D1     1  0.276178602624  0.502080000000
    FA  OC2D3     1  0.276178602624  0.502080000000
    FA  OC2D4     1  0.276178602624  0.502080000000
    FA    OCA     1  0.276178602624  0.502080000000
    FA  OG2D1     1  0.276178602624  0.502080000000
    FA  OG2D3     1  0.276178602624  0.502080000000
    FA   OLG1     1  0.276178602624  0.502080000000
    FE     HP     1  0.178910280577  0.000000000000
    FE      N     1  0.222724679535  0.000000000000
    FE  NC2D1     1  0.195997717991  0.000000000000
    FE  NG2S0     1  0.222724679535  0.000000000000
    FE  NG2S1     1  0.195997717991  0.000000000000
    FE    NH1     1  0.195997717991  0.000000000000
    FE    NHL     1  0.195997717991  0.000000000000
    FE      O     1  0.182634237219  0.000000000000
    FE     OB     1  0.182634237219  0.000000000000
    FE    OBL     1  0.182634237219  0.000000000000
    FE  OC2D1     1  0.182634237219  0.000000000000
    FE  OC2D3     1  0.182634237219  0.000000000000
    FE  OC2D4     1  0.182634237219  0.000000000000
    FE    OCA     1  0.182634237219  0.000000000000
    FE  OG2D1     1  0.182634237219  0.000000000000
    FE  OG2D3     1  0.182634237219  0.000000000000
    FE   OLG1     1  0.182634237219  0.000000000000
  FE2P     HP     1  0.217227834444  0.289422737462
  FE2P      N     1  0.261042233402  0.016709829538
  FE2P  NC2D1     1  0.234315271858  0.747286294803
  FE2P  NG2S0     1  0.261042233402  0.016709829538
  FE2P  NG2S1     1  0.234315271858  0.747286294803
  FE2P    NH1     1  0.234315271858  0.747286294803
  FE2P    NHL     1  0.234315271858  0.747286294803
  FE2P      O     1  0.220951791086  0.578845474924
  FE2P     OB     1  0.220951791086  0.578845474924
  FE2P    OBL     1  0.220951791086  0.578845474924
  FE2P  OC2D1     1  0.220951791086  0.578845474924
  FE2P  OC2D3     1  0.220951791086  0.578845474924
  FE2P  OC2D4     1  0.220951791086  0.578845474924
  FE2P    OCA     1  0.220951791086  0.578845474924
  FE2P  OG2D1     1  0.220951791086  0.578845474924
  FE2P  OG2D3     1  0.220951791086  0.578845474924
  FE2P   OLG1     1  0.220951791086  0.578845474924
  FE3P     HP     1  0.171453458306  0.256421518473
  FE3P      N     1  0.215267857264  0.014804503272
  FE3P  NC2D1     1  0.188540895720  0.662077513770
  FE3P  NG2S0     1  0.215267857264  0.014804503272
  FE3P  NG2S1     1  0.188540895720  0.662077513770
  FE3P    NH1     1  0.188540895720  0.662077513770
  FE3P    NHL     1  0.188540895720  0.662077513770
  FE3P      O     1  0.175177414948  0.512843036946
  FE3P     OB     1  0.175177414948  0.512843036946
  FE3P    OBL     1  0.175177414948  0.512843036946
  FE3P  OC2D1     1  0.175177414948  0.512843036946
  FE3P  OC2D3     1  0.175177414948  0.512843036946
  FE3P  OC2D4     1  0.175177414948  0.512843036946
  FE3P    OCA     1  0.175177414948  0.512843036946
  FE3P  OG2D1     1  0.175177414948  0.512843036946
  FE3P  OG2D3     1  0.175177414948  0.512843036946
  FE3P   OLG1     1  0.175177414948  0.512843036946
  FGA1     HP     1  0.266218354955  0.266268129524
  FGA1      N     1  0.310032753913  0.015372997626
  FGA1  NC2D1     1  0.283305792369  0.687501354180
  FGA1  NG2S0     1  0.310032753913  0.015372997626
  FGA1  NG2S1     1  0.283305792369  0.687501354180
  FGA1    NH1     1  0.283305792369  0.687501354180
  FGA1    NHL     1  0.283305792369  0.687501354180
  FGA1      O     1  0.269942311597  0.532536259047
  FGA1     OB     1  0.269942311597  0.532536259047
  FGA1    OBL     1  0.269942311597  0.532536259047
  FGA1  OC2D1     1  0.269942311597  0.532536259047
  FGA1  OC2D3     1  0.269942311597  0.532536259047
  FGA1  OC2D4     1  0.269942311597  0.532536259047
  FGA1    OCA     1  0.269942311597  0.532536259047
  FGA1  OG2D1     1  0.269942311597  0.532536259047
  FGA1  OG2D3     1  0.269942311597  0.532536259047
  FGA1   OLG1     1  0.269942311597  0.532536259047
  FGA2     HP     1  0.266218354955  0.234826417594
  FGA2      N     1  0.310032753913  0.013557709541
  FGA2  NC2D1     1  0.283305792369  0.606319203061
  FGA2  NG2S0     1  0.310032753913  0.013557709541
  FGA2  NG2S1     1  0.283305792369  0.606319203061
  FGA2    NH1     1  0.283305792369  0.606319203061
  FGA2    NHL     1  0.283305792369  0.606319203061
  FGA2      O     1  0.269942311597  0.469652835188
  FGA2     OB     1  0.269942311597  0.469652835188
  FGA2    OBL     1  0.269942311597  0.469652835188
  FGA2  OC2D1     1  0.269942311597  0.469652835188
  FGA2  OC2D3     1  0.269942311597  0.469652835188
  FGA2  OC2D4     1  0.269942311597  0.469652835188
  FGA2    OCA     1  0.269942311597  0.469652835188
  FGA2  OG2D1     1  0.269942311597  0.469652835188
  FGA2  OG2D3     1  0.269942311597  0.469652835188
  FGA2   OLG1     1  0.269942311597  0.469652835188
  FGA3     HP     1  0.263545658800  0.225703435862
  FGA3      N     1  0.307360057758  0.013030993945
  FGA3  NC2D1     1  0.280633096214  0.582763765517
  FGA3  NG2S0     1  0.307360057758  0.013030993945
  FGA3  NG2S1     1  0.280633096214  0.582763765517
  FGA3    NH1     1  0.280633096214  0.582763765517
  FGA3    NHL     1  0.280633096214  0.582763765517
  FGA3      O     1  0.267269615442  0.451406871724
  FGA3     OB     1  0.267269615442  0.451406871724
  FGA3    OBL     1  0.267269615442  0.451406871724
  FGA3  OC2D1     1  0.267269615442  0.451406871724
  FGA3  OC2D3     1  0.267269615442  0.451406871724
  FGA3  OC2D4     1  0.267269615442  0.451406871724
  FGA3    OCA     1  0.267269615442  0.451406871724
  FGA3  OG2D1     1  0.267269615442  0.451406871724
  FGA3  OG2D3     1  0.267269615442  0.451406871724
  FGA3   OLG1     1  0.267269615442  0.451406871724
  FGP1     HP     1  0.263545658800  0.225703435862
  FGP1      N     1  0.307360057758  0.013030993945
  FGP1  NC2D1     1  0.280633096214  0.582763765517
  FGP1  NG2S0     1  0.307360057758  0.013030993945
  FGP1  NG2S1     1  0.280633096214  0.582763765517
  FGP1    NH1     1  0.280633096214  0.582763765517
  FGP1    NHL     1  0.280633096214  0.582763765517
  FGP1      O     1  0.267269615442  0.451406871724
  FGP1     OB     1  0.267269615442  0.451406871724
  FGP1    OBL     1  0.267269615442  0.451406871724
  FGP1  OC2D1     1  0.267269615442  0.451406871724
  FGP1  OC2D3     1  0.267269615442  0.451406871724
  FGP1  OC2D4     1  0.267269615442  0.451406871724
  FGP1    OCA     1  0.267269615442  0.451406871724
  FGP1  OG2D1     1  0.267269615442  0.451406871724
  FGP1  OG2D3     1  0.267269615442  0.451406871724
  FGP1   OLG1     1  0.267269615442  0.451406871724
  FGR1     HP     1  0.272454645982  0.251040000000
  FGR1      N     1  0.316269044940  0.014493801158
  FGR1  NC2D1     1  0.289542083396  0.648182492821
  FGR1  NG2S0     1  0.316269044940  0.014493801158
  FGR1  NG2S1     1  0.289542083396  0.648182492821
  FGR1    NH1     1  0.289542083396  0.648182492821
  FGR1    NHL     1  0.289542083396  0.648182492821
  FGR1      O     1  0.276178602624  0.502080000000
  FGR1     OB     1  0.276178602624  0.502080000000
  FGR1    OBL     1  0.276178602624  0.502080000000
  FGR1  OC2D1     1  0.276178602624  0.502080000000
  FGR1  OC2D3     1  0.276178602624  0.502080000000
  FGR1  OC2D4     1  0.276178602624  0.502080000000
  FGR1    OCA     1  0.276178602624  0.502080000000
  FGR1  OG2D1     1  0.276178602624  0.502080000000
  FGR1  OG2D3     1  0.276178602624  0.502080000000
  FGR1   OLG1     1  0.276178602624  0.502080000000
   FNA     HP     1  0.272454645982  0.251040000000
   FNA      N     1  0.316269044940  0.014493801158
   FNA  NC2D1     1  0.289542083396  0.648182492821
   FNA  NG2S0     1  0.316269044940  0.014493801158
   FNA  NG2S1     1  0.289542083396  0.648182492821
   FNA    NH1     1  0.289542083396  0.648182492821
   FNA    NHL     1  0.289542083396  0.648182492821
   FNA      O     1  0.276178602624  0.502080000000
   FNA     OB     1  0.276178602624  0.502080000000
   FNA    OBL     1  0.276178602624  0.502080000000
   FNA  OC2D1     1  0.276178602624  0.502080000000
   FNA  OC2D3     1  0.276178602624  0.502080000000
   FNA  OC2D4     1  0.276178602624  0.502080000000
   FNA    OCA     1  0.276178602624  0.502080000000
   FNA  OG2D1     1  0.276178602624  0.502080000000
   FNA  OG2D3     1  0.276178602624  0.502080000000
   FNA   OLG1     1  0.276178602624  0.502080000000
  GA3P     HP     1  0.141216355812  0.251666817455
  GA3P      N     1  0.185030754771  0.014529990480
  GA3P  NC2D1     1  0.158303793226  0.649800928531
  GA3P  NG2S0     1  0.185030754771  0.014529990480
  GA3P  NG2S1     1  0.158303793226  0.649800928531
  GA3P    NH1     1  0.158303793226  0.649800928531
  GA3P    NHL     1  0.158303793226  0.649800928531
  GA3P      O     1  0.144940312454  0.503333634910
  GA3P     OB     1  0.144940312454  0.503333634910
  GA3P    OBL     1  0.144940312454  0.503333634910
  GA3P  OC2D1     1  0.144940312454  0.503333634910
  GA3P  OC2D3     1  0.144940312454  0.503333634910
  GA3P  OC2D4     1  0.144940312454  0.503333634910
  GA3P    OCA     1  0.144940312454  0.503333634910
  GA3P  OG2D1     1  0.144940312454  0.503333634910
  GA3P  OG2D3     1  0.144940312454  0.503333634910
  GA3P   OLG1     1  0.144940312454  0.503333634910
  GD3P     HP     1  0.255082120978  0.300811850937
  GD3P      N     1  0.298896519936  0.017367380311
  GD3P  NC2D1     1  0.272169558392  0.776692859347
  GD3P  NG2S0     1  0.298896519936  0.017367380311
  GD3P  NG2S1     1  0.272169558392  0.776692859347
  GD3P    NH1     1  0.272169558392  0.776692859347
  GD3P    NHL     1  0.272169558392  0.776692859347
  GD3P      O     1  0.258806077620  0.601623701874
  GD3P     OB     1  0.258806077620  0.601623701874
  GD3P    OBL     1  0.258806077620  0.601623701874
  GD3P  OC2D1     1  0.258806077620  0.601623701874
  GD3P  OC2D3     1  0.258806077620  0.601623701874
  GD3P  OC2D4     1  0.258806077620  0.601623701874
  GD3P    OCA     1  0.258806077620  0.601623701874
  GD3P  OG2D1     1  0.258806077620  0.601623701874
  GD3P  OG2D3     1  0.258806077620  0.601623701874
  GD3P   OLG1     1  0.258806077620  0.601623701874
     H     HP     1  0.141002540120  0.155428701597
     H      N     1  0.184816939078  0.008973680271
     H  NC2D1     1  0.158089977534  0.401315181871
     H  NG2S0     1  0.184816939078  0.008973680271
     H  NG2S1     1  0.158089977534  0.401315181871
     H    NH1     1  0.158089977534  0.401315181871
     H    NHL     1  0.158089977534  0.401315181871
     H      O     1  0.144726496762  0.310857403193
     H     OB     1  0.144726496762  0.310857403193
     H    OBL     1  0.144726496762  0.310857403193
     H  OC2D1     1  0.144726496762  0.310857403193
     H  OC2D3     1  0.144726496762  0.310857403193
     H  OC2D4     1  0.144726496762  0.310857403193
     H    OCA     1  0.144726496762  0.310857403193
     H  OG2D1     1  0.144726496762  0.310857403193
     H  OG2D3     1  0.144726496762  0.310857403193
     H   OLG1     1  0.144726496762  0.310857403193
    HA     HP     1  0.238600494692  0.107488906218
    HA      N     1  0.282414893650  0.006205874894
    HA  NC2D1     1  0.255687932106  0.277535162457
    HA  NG2S0     1  0.282414893650  0.006205874894
    HA  NG2S1     1  0.255687932106  0.277535162457
    HA    NH1     1  0.255687932106  0.277535162457
    HA    NHL     1  0.255687932106  0.277535162457
    HA      O     1  0.242324451334  0.214977812437
    HA     OB     1  0.242324451334  0.214977812437
    HA    OBL     1  0.242324451334  0.214977812437
    HA  OC2D1     1  0.242324451334  0.214977812437
    HA  OC2D3     1  0.242324451334  0.214977812437
    HA  OC2D4     1  0.242324451334  0.214977812437
    HA    OCA     1  0.242324451334  0.214977812437
    HA  OG2D1     1  0.242324451334  0.214977812437
    HA  OG2D3     1  0.242324451334  0.214977812437
    HA   OLG1     1  0.242324451334  0.214977812437
   HA1     HP     1  0.240382292129  0.153729976257
   HA1      N     1  0.284196691087  0.008875604317
   HA1  NC2D1     1  0.257469729543  0.396929091904
   HA1  NG2S0     1  0.284196691087  0.008875604317
   HA1  NG2S1     1  0.257469729543  0.396929091904
   HA1    NH1     1  0.257469729543  0.396929091904
   HA1    NHL     1  0.257469729543  0.396929091904
   HA1      O     1  0.244106248770  0.307459952514
   HA1     OB     1  0.244106248770  0.307459952514
   HA1    OBL     1  0.244106248770  0.307459952514
   HA1  OC2D1     1  0.244106248770  0.307459952514
   HA1  OC2D3     1  0.244106248770  0.307459952514
   HA1  OC2D4     1  0.244106248770  0.307459952514
   HA1    OCA     1  0.244106248770  0.307459952514
   HA1  OG2D1     1  0.244106248770  0.307459952514
   HA1  OG2D3     1  0.244106248770  0.307459952514
   HA1   OLG1     1  0.244106248770  0.307459952514
   HA2     HP     1  0.240382292129  0.133626244129
   HA2      N     1  0.284196691087  0.007714914802
   HA2  NC2D1     1  0.257469729543  0.345021478752
   HA2  NG2S0     1  0.284196691087  0.007714914802
   HA2  NG2S1     1  0.257469729543  0.345021478752
   HA2    NH1     1  0.257469729543  0.345021478752
   HA2    NHL     1  0.257469729543  0.345021478752
   HA2      O     1  0.244106248770  0.267252488258
   HA2     OB     1  0.244106248770  0.267252488258
   HA2    OBL     1  0.244106248770  0.267252488258
   HA2  OC2D1     1  0.244106248770  0.267252488258
   HA2  OC2D3     1  0.244106248770  0.267252488258
   HA2  OC2D4     1  0.244106248770  0.267252488258
   HA2    OCA     1  0.244106248770  0.267252488258
   HA2  OG2D1     1  0.244106248770  0.267252488258
   HA2  OG2D3     1  0.244106248770  0.267252488258
   HA2   OLG1     1  0.244106248770  0.267252488258
   HA3     HP     1  0.240382292129  0.112268501014
   HA3      N     1  0.284196691087  0.006481824928
   HA3  NC2D1     1  0.257469729543  0.289876023155
   HA3  NG2S0     1  0.284196691087  0.006481824928
   HA3  NG2S1     1  0.257469729543  0.289876023155
   HA3    NH1     1  0.257469729543  0.289876023155
   HA3    NHL     1  0.257469729543  0.289876023155
   HA3      O     1  0.244106248770  0.224537002029
   HA3     OB     1  0.244106248770  0.224537002029
   HA3    OBL     1  0.244106248770  0.224537002029
   HA3  OC2D1     1  0.244106248770  0.224537002029
   HA3  OC2D3     1  0.244106248770  0.224537002029
   HA3  OC2D4     1  0.244106248770  0.224537002029
   HA3    OCA     1  0.244106248770  0.224537002029
   HA3  OG2D1     1  0.244106248770  0.224537002029
   HA3  OG2D3     1  0.244106248770  0.224537002029
   HA3   OLG1     1  0.244106248770  0.224537002029
   HAL     HP     1  0.238600494692  0.107488906218
   HAL      N     1  0.282414893650  0.006205874894
   HAL  NC2D1     1  0.255687932106  0.277535162457
   HAL  NG2S0     1  0.282414893650  0.006205874894
   HAL  NG2S1     1  0.255687932106  0.277535162457
   HAL    NH1     1  0.255687932106  0.277535162457
   HAL    NHL     1  0.255687932106  0.277535162457
   HAL      O     1  0.242324451334  0.214977812437
   HAL     OB     1  0.242324451334  0.214977812437
   HAL    OBL     1  0.242324451334  0.214977812437
   HAL  OC2D1     1  0.242324451334  0.214977812437
   HAL  OC2D3     1  0.242324451334  0.214977812437
   HAL  OC2D4     1  0.242324451334  0.214977812437
   HAL    OCA     1  0.242324451334  0.214977812437
   HAL  OG2D1     1  0.242324451334  0.214977812437
   HAL  OG2D3     1  0.242324451334  0.214977812437
   HAL   OLG1     1  0.242324451334  0.214977812437
  HAL1   HGA1     1  0.238760856462  0.137653600000
  HAL1   HGA2     1  0.238760856462  0.120917600000
  HAL1     HP     1  0.238600494692  0.107488906218
  HAL1      N     1  0.282414893650  0.006205874894
  HAL1  NC2D1     1  0.255687932106  0.277535162457
  HAL1  NG2S0     1  0.282414893650  0.006205874894
  HAL1  NG2S1     1  0.255687932106  0.277535162457
  HAL1    NH1     1  0.255687932106  0.277535162457
  HAL1    NHL     1  0.255687932106  0.277535162457
  HAL1      O     1  0.242324451334  0.214977812437
  HAL1     OB     1  0.242324451334  0.214977812437
  HAL1    OBL     1  0.242324451334  0.214977812437
  HAL1  OC2D1     1  0.242324451334  0.214977812437
  HAL1  OC2D3     1  0.242324451334  0.214977812437
  HAL1  OC2D4     1  0.242324451334  0.214977812437
  HAL1    OCA     1  0.242324451334  0.214977812437
  HAL1  OG2D1     1  0.242324451334  0.214977812437
  HAL1  OG2D3     1  0.242324451334  0.214977812437
  HAL1   OLG1     1  0.242324451334  0.214977812437
  HAL2   HGA1     1  0.238760856462  0.150205600000
  HAL2   HGA2     1  0.238760856462  0.132632800000
  HAL2     HP     1  0.240382292129  0.121263840612
  HAL2      N     1  0.284196691087  0.007001171102
  HAL2  NC2D1     1  0.257469729543  0.313101890125
  HAL2  NG2S0     1  0.284196691087  0.007001171102
  HAL2  NG2S1     1  0.257469729543  0.313101890125
  HAL2    NH1     1  0.257469729543  0.313101890125
  HAL2    NHL     1  0.257469729543  0.313101890125
  HAL2      O     1  0.244106248770  0.242527681224
  HAL2     OB     1  0.244106248770  0.242527681224
  HAL2    OBL     1  0.244106248770  0.242527681224
  HAL2  OC2D1     1  0.244106248770  0.242527681224
  HAL2  OC2D3     1  0.244106248770  0.242527681224
  HAL2  OC2D4     1  0.244106248770  0.242527681224
  HAL2    OCA     1  0.244106248770  0.242527681224
  HAL2  OG2D1     1  0.244106248770  0.242527681224
  HAL2  OG2D3     1  0.244106248770  0.242527681224
  HAL2   OLG1     1  0.244106248770  0.242527681224
  HAL3     HP     1  0.240382292129  0.112268501014
  HAL3      N     1  0.284196691087  0.006481824928
  HAL3  NC2D1     1  0.257469729543  0.289876023155
  HAL3  NG2S0     1  0.284196691087  0.006481824928
  HAL3  NG2S1     1  0.257469729543  0.289876023155
  HAL3    NH1     1  0.257469729543  0.289876023155
  HAL3    NHL     1  0.257469729543  0.289876023155
  HAL3      O     1  0.244106248770  0.224537002029
  HAL3     OB     1  0.244106248770  0.224537002029
  HAL3    OBL     1  0.244106248770  0.224537002029
  HAL3  OC2D1     1  0.244106248770  0.224537002029
  HAL3  OC2D3     1  0.244106248770  0.224537002029
  HAL3  OC2D4     1  0.244106248770  0.224537002029
  HAL3    OCA     1  0.244106248770  0.224537002029
  HAL3  OG2D1     1  0.244106248770  0.224537002029
  HAL3  OG2D3     1  0.244106248770  0.224537002029
  HAL3   OLG1     1  0.244106248770  0.224537002029
    HB     HP     1  0.238600494692  0.107488906218
    HB      N     1  0.282414893650  0.006205874894
    HB  NC2D1     1  0.255687932106  0.277535162457
    HB  NG2S0     1  0.282414893650  0.006205874894
    HB  NG2S1     1  0.255687932106  0.277535162457
    HB    NH1     1  0.255687932106  0.277535162457
    HB    NHL     1  0.255687932106  0.277535162457
    HB      O     1  0.242324451334  0.214977812437
    HB     OB     1  0.242324451334  0.214977812437
    HB    OBL     1  0.242324451334  0.214977812437
    HB  OC2D1     1  0.242324451334  0.214977812437
    HB  OC2D3     1  0.242324451334  0.214977812437
    HB  OC2D4     1  0.242324451334  0.214977812437
    HB    OCA     1  0.242324451334  0.214977812437
    HB  OG2D1     1  0.242324451334  0.214977812437
    HB  OG2D3     1  0.242324451334  0.214977812437
    HB   OLG1     1  0.242324451334  0.214977812437
   HB1     HP     1  0.238600494692  0.107488906218
   HB1      N     1  0.282414893650  0.006205874894
   HB1  NC2D1     1  0.255687932106  0.277535162457
   HB1  NG2S0     1  0.282414893650  0.006205874894
   HB1  NG2S1     1  0.255687932106  0.277535162457
   HB1    NH1     1  0.255687932106  0.277535162457
   HB1    NHL     1  0.255687932106  0.277535162457
   HB1      O     1  0.242324451334  0.214977812437
   HB1     OB     1  0.242324451334  0.214977812437
   HB1    OBL     1  0.242324451334  0.214977812437
   HB1  OC2D1     1  0.242324451334  0.214977812437
   HB1  OC2D3     1  0.242324451334  0.214977812437
   HB1  OC2D4     1  0.242324451334  0.214977812437
   HB1    OCA     1  0.242324451334  0.214977812437
   HB1  OG2D1     1  0.242324451334  0.214977812437
   HB1  OG2D3     1  0.242324451334  0.214977812437
   HB1   OLG1     1  0.242324451334  0.214977812437
   HB2     HP     1  0.240382292129  0.121263840612
   HB2      N     1  0.284196691087  0.007001171102
   HB2  NC2D1     1  0.257469729543  0.313101890125
   HB2  NG2S0     1  0.284196691087  0.007001171102
   HB2  NG2S1     1  0.257469729543  0.313101890125
   HB2    NH1     1  0.257469729543  0.313101890125
   HB2    NHL     1  0.257469729543  0.313101890125
   HB2      O     1  0.244106248770  0.242527681224
   HB2     OB     1  0.244106248770  0.242527681224
   HB2    OBL     1  0.244106248770  0.242527681224
   HB2  OC2D1     1  0.244106248770  0.242527681224
   HB2  OC2D3     1  0.244106248770  0.242527681224
   HB2  OC2D4     1  0.244106248770  0.242527681224
   HB2    OCA     1  0.244106248770  0.242527681224
   HB2  OG2D1     1  0.244106248770  0.242527681224
   HB2  OG2D3     1  0.244106248770  0.242527681224
   HB2   OLG1     1  0.244106248770  0.242527681224
   HBL     HP     1  0.238600494692  0.107488906218
   HBL      N     1  0.282414893650  0.006205874894
   HBL  NC2D1     1  0.255687932106  0.277535162457
   HBL  NG2S0     1  0.282414893650  0.006205874894
   HBL  NG2S1     1  0.255687932106  0.277535162457
   HBL    NH1     1  0.255687932106  0.277535162457
   HBL    NHL     1  0.255687932106  0.277535162457
   HBL      O     1  0.242324451334  0.214977812437
   HBL     OB     1  0.242324451334  0.214977812437
   HBL    OBL     1  0.242324451334  0.214977812437
   HBL  OC2D1     1  0.242324451334  0.214977812437
   HBL  OC2D3     1  0.242324451334  0.214977812437
   HBL  OC2D4     1  0.242324451334  0.214977812437
   HBL    OCA     1  0.242324451334  0.214977812437
   HBL  OG2D1     1  0.242324451334  0.214977812437
   HBL  OG2D3     1  0.242324451334  0.214977812437
   HBL   OLG1     1  0.242324451334  0.214977812437
    HC     HP     1  0.141002540120  0.155428701597
    HC      N     1  0.184816939078  0.008973680271
    HC  NC2D1     1  0.158089977534  0.401315181871
    HC  NG2S0     1  0.184816939078  0.008973680271
    HC  NG2S1     1  0.158089977534  0.401315181871
    HC    NH1     1  0.158089977534  0.401315181871
    HC    NHL     1  0.158089977534  0.401315181871
    HC      O     1  0.144726496762  0.310857403193
    HC     OB     1  0.144726496762  0.310857403193
    HC    OBL     1  0.144726496762  0.310857403193
    HC  OC2D1     1  0.144726496762  0.310857403193
    HC  OC2D3     1  0.144726496762  0.310857403193
    HC  OC2D4     1  0.144726496762  0.310857403193
    HC    OCA     1  0.144726496762  0.310857403193
    HC  OG2D1     1  0.144726496762  0.310857403193
    HC  OG2D3     1  0.144726496762  0.310857403193
    HC   OLG1     1  0.144726496762  0.310857403193
  HCA1     HP     1  0.240382292129  0.153729976257
  HCA1      N     1  0.284196691087  0.008875604317
  HCA1  NC2D1     1  0.257469729543  0.396929091904
  HCA1  NG2S0     1  0.284196691087  0.008875604317
  HCA1  NG2S1     1  0.257469729543  0.396929091904
  HCA1    NH1     1  0.257469729543  0.396929091904
  HCA1    NHL     1  0.257469729543  0.396929091904
  HCA1      O     1  0.244106248770  0.307459952514
  HCA1     OB     1  0.244106248770  0.307459952514
  HCA1    OBL     1  0.244106248770  0.307459952514
  HCA1  OC2D1     1  0.244106248770  0.307459952514
  HCA1  OC2D3     1  0.244106248770  0.307459952514
  HCA1  OC2D4     1  0.244106248770  0.307459952514
  HCA1    OCA     1  0.244106248770  0.307459952514
  HCA1  OG2D1     1  0.244106248770  0.307459952514
  HCA1  OG2D3     1  0.244106248770  0.307459952514
  HCA1   OLG1     1  0.244106248770  0.307459952514
 HCA1A     HP     1  0.240382292129  0.153729976257
 HCA1A      N     1  0.284196691087  0.008875604317
 HCA1A  NC2D1     1  0.257469729543  0.396929091904
 HCA1A  NG2S0     1  0.284196691087  0.008875604317
 HCA1A  NG2S1     1  0.257469729543  0.396929091904
 HCA1A    NH1     1  0.257469729543  0.396929091904
 HCA1A    NHL     1  0.257469729543  0.396929091904
 HCA1A      O     1  0.244106248770  0.307459952514
 HCA1A     OB     1  0.244106248770  0.307459952514
 HCA1A    OBL     1  0.244106248770  0.307459952514
 HCA1A  OC2D1     1  0.244106248770  0.307459952514
 HCA1A  OC2D3     1  0.244106248770  0.307459952514
 HCA1A  OC2D4     1  0.244106248770  0.307459952514
 HCA1A    OCA     1  0.244106248770  0.307459952514
 HCA1A  OG2D1     1  0.244106248770  0.307459952514
 HCA1A  OG2D3     1  0.244106248770  0.307459952514
 HCA1A   OLG1     1  0.244106248770  0.307459952514
HCA1C2     HP     1  0.240382292129  0.153729976257
HCA1C2      N     1  0.284196691087  0.008875604317
HCA1C2  NC2D1     1  0.257469729543  0.396929091904
HCA1C2  NG2S0     1  0.284196691087  0.008875604317
HCA1C2  NG2S1     1  0.257469729543  0.396929091904
HCA1C2    NH1     1  0.257469729543  0.396929091904
HCA1C2    NHL     1  0.257469729543  0.396929091904
HCA1C2      O     1  0.244106248770  0.307459952514
HCA1C2     OB     1  0.244106248770  0.307459952514
HCA1C2    OBL     1  0.244106248770  0.307459952514
HCA1C2  OC2D1     1  0.244106248770  0.307459952514
HCA1C2  OC2D3     1  0.244106248770  0.307459952514
HCA1C2  OC2D4     1  0.244106248770  0.307459952514
HCA1C2    OCA     1  0.244106248770  0.307459952514
HCA1C2  OG2D1     1  0.244106248770  0.307459952514
HCA1C2  OG2D3     1  0.244106248770  0.307459952514
HCA1C2   OLG1     1  0.244106248770  0.307459952514
  HCA2     HP     1  0.240382292129  0.135577095411
  HCA2      N     1  0.284196691087  0.007827547253
  HCA2  NC2D1     1  0.257469729543  0.350058555102
  HCA2  NG2S0     1  0.284196691087  0.007827547253
  HCA2  NG2S1     1  0.257469729543  0.350058555102
  HCA2    NH1     1  0.257469729543  0.350058555102
  HCA2    NHL     1  0.257469729543  0.350058555102
  HCA2      O     1  0.244106248770  0.271154190821
  HCA2     OB     1  0.244106248770  0.271154190821
  HCA2    OBL     1  0.244106248770  0.271154190821
  HCA2  OC2D1     1  0.244106248770  0.271154190821
  HCA2  OC2D3     1  0.244106248770  0.271154190821
  HCA2  OC2D4     1  0.244106248770  0.271154190821
  HCA2    OCA     1  0.244106248770  0.271154190821
  HCA2  OG2D1     1  0.244106248770  0.271154190821
  HCA2  OG2D3     1  0.244106248770  0.271154190821
  HCA2   OLG1     1  0.244106248770  0.271154190821
HCA25A     HP     1  0.236818697256  0.135577095411
HCA25A      N     1  0.280633096214  0.007827547253
HCA25A  NC2D1     1  0.253906134670  0.350058555102
HCA25A  NG2S0     1  0.280633096214  0.007827547253
HCA25A  NG2S1     1  0.253906134670  0.350058555102
HCA25A    NH1     1  0.253906134670  0.350058555102
HCA25A    NHL     1  0.253906134670  0.350058555102
HCA25A      O     1  0.240542653898  0.271154190821
HCA25A     OB     1  0.240542653898  0.271154190821
HCA25A    OBL     1  0.240542653898  0.271154190821
HCA25A  OC2D1     1  0.240542653898  0.271154190821
HCA25A  OC2D3     1  0.240542653898  0.271154190821
HCA25A  OC2D4     1  0.240542653898  0.271154190821
HCA25A    OCA     1  0.240542653898  0.271154190821
HCA25A  OG2D1     1  0.240542653898  0.271154190821
HCA25A  OG2D3     1  0.240542653898  0.271154190821
HCA25A   OLG1     1  0.240542653898  0.271154190821
 HCA2A     HP     1  0.240382292129  0.135577095411
 HCA2A      N     1  0.284196691087  0.007827547253
 HCA2A  NC2D1     1  0.257469729543  0.350058555102
 HCA2A  NG2S0     1  0.284196691087  0.007827547253
 HCA2A  NG2S1     1  0.257469729543  0.350058555102
 HCA2A    NH1     1  0.257469729543  0.350058555102
 HCA2A    NHL     1  0.257469729543  0.350058555102
 HCA2A      O     1  0.244106248770  0.271154190821
 HCA2A     OB     1  0.244106248770  0.271154190821
 HCA2A    OBL     1  0.244106248770  0.271154190821
 HCA2A  OC2D1     1  0.244106248770  0.271154190821
 HCA2A  OC2D3     1  0.244106248770  0.271154190821
 HCA2A  OC2D4     1  0.244106248770  0.271154190821
 HCA2A    OCA     1  0.244106248770  0.271154190821
 HCA2A  OG2D1     1  0.244106248770  0.271154190821
 HCA2A  OG2D3     1  0.244106248770  0.271154190821
 HCA2A   OLG1     1  0.244106248770  0.271154190821
HCA2C2     HP     1  0.236818697256  0.135577095411
HCA2C2      N     1  0.280633096214  0.007827547253
HCA2C2  NC2D1     1  0.253906134670  0.350058555102
HCA2C2  NG2S0     1  0.280633096214  0.007827547253
HCA2C2  NG2S1     1  0.253906134670  0.350058555102
HCA2C2    NH1     1  0.253906134670  0.350058555102
HCA2C2    NHL     1  0.253906134670  0.350058555102
HCA2C2      O     1  0.240542653898  0.271154190821
HCA2C2     OB     1  0.240542653898  0.271154190821
HCA2C2    OBL     1  0.240542653898  0.271154190821
HCA2C2  OC2D1     1  0.240542653898  0.271154190821
HCA2C2  OC2D3     1  0.240542653898  0.271154190821
HCA2C2  OC2D4     1  0.240542653898  0.271154190821
HCA2C2    OCA     1  0.240542653898  0.271154190821
HCA2C2  OG2D1     1  0.240542653898  0.271154190821
HCA2C2  OG2D3     1  0.240542653898  0.271154190821
HCA2C2   OLG1     1  0.240542653898  0.271154190821
  HCA3     HP     1  0.240382292129  0.112268501014
  HCA3      N     1  0.284196691087  0.006481824928
  HCA3  NC2D1     1  0.257469729543  0.289876023155
  HCA3  NG2S0     1  0.284196691087  0.006481824928
  HCA3  NG2S1     1  0.257469729543  0.289876023155
  HCA3    NH1     1  0.257469729543  0.289876023155
  HCA3    NHL     1  0.257469729543  0.289876023155
  HCA3      O     1  0.244106248770  0.224537002029
  HCA3     OB     1  0.244106248770  0.224537002029
  HCA3    OBL     1  0.244106248770  0.224537002029
  HCA3  OC2D1     1  0.244106248770  0.224537002029
  HCA3  OC2D3     1  0.244106248770  0.224537002029
  HCA3  OC2D4     1  0.244106248770  0.224537002029
  HCA3    OCA     1  0.244106248770  0.224537002029
  HCA3  OG2D1     1  0.244106248770  0.224537002029
  HCA3  OG2D3     1  0.244106248770  0.224537002029
  HCA3   OLG1     1  0.244106248770  0.224537002029
 HCA3A     HP     1  0.240382292129  0.112268501014
 HCA3A      N     1  0.284196691087  0.006481824928
 HCA3A  NC2D1     1  0.257469729543  0.289876023155
 HCA3A  NG2S0     1  0.284196691087  0.006481824928
 HCA3A  NG2S1     1  0.257469729543  0.289876023155
 HCA3A    NH1     1  0.257469729543  0.289876023155
 HCA3A    NHL     1  0.257469729543  0.289876023155
 HCA3A      O     1  0.244106248770  0.224537002029
 HCA3A     OB     1  0.244106248770  0.224537002029
 HCA3A    OBL     1  0.244106248770  0.224537002029
 HCA3A  OC2D1     1  0.244106248770  0.224537002029
 HCA3A  OC2D3     1  0.244106248770  0.224537002029
 HCA3A  OC2D4     1  0.244106248770  0.224537002029
 HCA3A    OCA     1  0.244106248770  0.224537002029
 HCA3A  OG2D1     1  0.244106248770  0.224537002029
 HCA3A  OG2D3     1  0.244106248770  0.224537002029
 HCA3A   OLG1     1  0.244106248770  0.224537002029
 HCA3M     HP     1  0.240382292129  0.112268501014
 HCA3M      N     1  0.284196691087  0.006481824928
 HCA3M  NC2D1     1  0.257469729543  0.289876023155
 HCA3M  NG2S0     1  0.284196691087  0.006481824928
 HCA3M  NG2S1     1  0.257469729543  0.289876023155
 HCA3M    NH1     1  0.257469729543  0.289876023155
 HCA3M    NHL     1  0.257469729543  0.289876023155
 HCA3M      O     1  0.244106248770  0.224537002029
 HCA3M     OB     1  0.244106248770  0.224537002029
 HCA3M    OBL     1  0.244106248770  0.224537002029
 HCA3M  OC2D1     1  0.244106248770  0.224537002029
 HCA3M  OC2D3     1  0.244106248770  0.224537002029
 HCA3M  OC2D4     1  0.244106248770  0.224537002029
 HCA3M    OCA     1  0.244106248770  0.224537002029
 HCA3M  OG2D1     1  0.244106248770  0.224537002029
 HCA3M  OG2D3     1  0.244106248770  0.224537002029
 HCA3M   OLG1     1  0.244106248770  0.224537002029
   HCL     HP     1  0.141002540120  0.155428701597
   HCL      N     1  0.184816939078  0.008973680271
   HCL  NC2D1     1  0.158089977534  0.401315181871
   HCL  NG2S0     1  0.184816939078  0.008973680271
   HCL  NG2S1     1  0.158089977534  0.401315181871
   HCL    NH1     1  0.158089977534  0.401315181871
   HCL    NHL     1  0.158089977534  0.401315181871
   HCL      O     1  0.144726496762  0.310857403193
   HCL     OB     1  0.144726496762  0.310857403193
   HCL    OBL     1  0.144726496762  0.310857403193
   HCL  OC2D1     1  0.144726496762  0.310857403193
   HCL  OC2D3     1  0.144726496762  0.310857403193
   HCL  OC2D4     1  0.144726496762  0.310857403193
   HCL    OCA     1  0.144726496762  0.310857403193
   HCL  OG2D1     1  0.144726496762  0.310857403193
   HCL  OG2D3     1  0.144726496762  0.310857403193
   HCL   OLG1     1  0.144726496762  0.310857403193
  HCP1     HP     1  0.141002540120  0.155428701597
  HCP1      N     1  0.184816939078  0.008973680271
  HCP1  NC2D1     1  0.158089977534  0.401315181871
  HCP1  NG2S0     1  0.184816939078  0.008973680271
  HCP1  NG2S1     1  0.158089977534  0.401315181871
  HCP1    NH1     1  0.158089977534  0.401315181871
  HCP1    NHL     1  0.158089977534  0.401315181871
  HCP1      O     1  0.144726496762  0.310857403193
  HCP1     OB     1  0.144726496762  0.310857403193
  HCP1    OBL     1  0.144726496762  0.310857403193
  HCP1  OC2D1     1  0.144726496762  0.310857403193
  HCP1  OC2D3     1  0.144726496762  0.310857403193
  HCP1  OC2D4     1  0.144726496762  0.310857403193
  HCP1    OCA     1  0.144726496762  0.310857403193
  HCP1  OG2D1     1  0.144726496762  0.310857403193
  HCP1  OG2D3     1  0.144726496762  0.310857403193
  HCP1   OLG1     1  0.144726496762  0.310857403193
 HCP1M     HP     1  0.141002540120  0.155428701597
 HCP1M      N     1  0.184816939078  0.008973680271
 HCP1M  NC2D1     1  0.158089977534  0.401315181871
 HCP1M  NG2S0     1  0.184816939078  0.008973680271
 HCP1M  NG2S1     1  0.158089977534  0.401315181871
 HCP1M    NH1     1  0.158089977534  0.401315181871
 HCP1M    NHL     1  0.158089977534  0.401315181871
 HCP1M      O     1  0.144726496762  0.310857403193
 HCP1M     OB     1  0.144726496762  0.310857403193
 HCP1M    OBL     1  0.144726496762  0.310857403193
 HCP1M  OC2D1     1  0.144726496762  0.310857403193
 HCP1M  OC2D3     1  0.144726496762  0.310857403193
 HCP1M  OC2D4     1  0.144726496762  0.310857403193
 HCP1M    OCA     1  0.144726496762  0.310857403193
 HCP1M  OG2D1     1  0.144726496762  0.310857403193
 HCP1M  OG2D3     1  0.144726496762  0.310857403193
 HCP1M   OLG1     1  0.144726496762  0.310857403193
  HCR1     HP     1  0.192273761349  0.155428701597
  HCR1      N     1  0.236088160307  0.008973680271
  HCR1  NC2D1     1  0.209361198763  0.401315181871
  HCR1  NG2S0     1  0.236088160307  0.008973680271
  HCR1  NG2S1     1  0.209361198763  0.401315181871
  HCR1    NH1     1  0.209361198763  0.401315181871
  HCR1    NHL     1  0.209361198763  0.401315181871
  HCR1      O     1  0.195997717991  0.310857403193
  HCR1     OB     1  0.195997717991  0.310857403193
  HCR1    OBL     1  0.195997717991  0.310857403193
  HCR1  OC2D1     1  0.195997717991  0.310857403193
  HCR1  OC2D3     1  0.195997717991  0.310857403193
  HCR1  OC2D4     1  0.195997717991  0.310857403193
  HCR1    OCA     1  0.195997717991  0.310857403193
  HCR1  OG2D1     1  0.195997717991  0.310857403193
  HCR1  OG2D3     1  0.195997717991  0.310857403193
  HCR1   OLG1     1  0.195997717991  0.310857403193
    HE     HP     1  0.252854874183  0.105690523291
    HE      N     1  0.296669273141  0.006102045207
    HE  NC2D1     1  0.269942311597  0.272891757706
    HE  NG2S0     1  0.296669273141  0.006102045207
    HE  NG2S1     1  0.269942311597  0.272891757706
    HE    NH1     1  0.269942311597  0.272891757706
    HE    NHL     1  0.269942311597  0.272891757706
    HE      O     1  0.256578830824  0.211381046583
    HE     OB     1  0.256578830824  0.211381046583
    HE    OBL     1  0.256578830824  0.211381046583
    HE  OC2D1     1  0.256578830824  0.211381046583
    HE  OC2D3     1  0.256578830824  0.211381046583
    HE  OC2D4     1  0.256578830824  0.211381046583
    HE    OCA     1  0.256578830824  0.211381046583
    HE  OG2D1     1  0.256578830824  0.211381046583
    HE  OG2D3     1  0.256578830824  0.211381046583
    HE   OLG1     1  0.256578830824  0.211381046583
   HE1     HP     1  0.232364203665  0.127594851307
   HE1      N     1  0.276178602624  0.007366692175
   HE1  NC2D1     1  0.249451641079  0.329448489449
   HE1  NG2S0     1  0.276178602624  0.007366692175
   HE1  NG2S1     1  0.249451641079  0.329448489449
   HE1    NH1     1  0.249451641079  0.329448489449
   HE1    NHL     1  0.249451641079  0.329448489449
   HE1      O     1  0.236088160307  0.255189702614
   HE1     OB     1  0.236088160307  0.255189702614
   HE1    OBL     1  0.236088160307  0.255189702614
   HE1  OC2D1     1  0.236088160307  0.255189702614
   HE1  OC2D3     1  0.236088160307  0.255189702614
   HE1  OC2D4     1  0.236088160307  0.255189702614
   HE1    OCA     1  0.236088160307  0.255189702614
   HE1  OG2D1     1  0.236088160307  0.255189702614
   HE1  OG2D3     1  0.236088160307  0.255189702614
   HE1   OLG1     1  0.236088160307  0.255189702614
   HE2     HP     1  0.233255102384  0.116852760686
   HE2      N     1  0.277069501342  0.006746497284
   HE2  NC2D1     1  0.250342539797  0.301712530731
   HE2  NG2S0     1  0.277069501342  0.006746497284
   HE2  NG2S1     1  0.250342539797  0.301712530731
   HE2    NH1     1  0.250342539797  0.301712530731
   HE2    NHL     1  0.250342539797  0.301712530731
   HE2      O     1  0.236979059025  0.233705521373
   HE2     OB     1  0.236979059025  0.233705521373
   HE2    OBL     1  0.236979059025  0.233705521373
   HE2  OC2D1     1  0.236979059025  0.233705521373
   HE2  OC2D3     1  0.236979059025  0.233705521373
   HE2  OC2D4     1  0.236979059025  0.233705521373
   HE2    OCA     1  0.236979059025  0.233705521373
   HE2  OG2D1     1  0.236979059025  0.233705521373
   HE2  OG2D3     1  0.236979059025  0.233705521373
   HE2   OLG1     1  0.236979059025  0.233705521373
  HEL1     HP     1  0.232364203665  0.127594851307
  HEL1      N     1  0.276178602624  0.007366692175
  HEL1  NC2D1     1  0.249451641079  0.329448489449
  HEL1  NG2S0     1  0.276178602624  0.007366692175
  HEL1  NG2S1     1  0.249451641079  0.329448489449
  HEL1    NH1     1  0.249451641079  0.329448489449
  HEL1    NHL     1  0.249451641079  0.329448489449
  HEL1      O     1  0.236088160307  0.255189702614
  HEL1     OB     1  0.236088160307  0.255189702614
  HEL1    OBL     1  0.236088160307  0.255189702614
  HEL1  OC2D1     1  0.236088160307  0.255189702614
  HEL1  OC2D3     1  0.236088160307  0.255189702614
  HEL1  OC2D4     1  0.236088160307  0.255189702614
  HEL1    OCA     1  0.236088160307  0.255189702614
  HEL1  OG2D1     1  0.236088160307  0.255189702614
  HEL1  OG2D3     1  0.236088160307  0.255189702614
  HEL1   OLG1     1  0.236088160307  0.255189702614
  HEL2     HP     1  0.233255102384  0.116852760686
  HEL2      N     1  0.277069501342  0.006746497284
  HEL2  NC2D1     1  0.250342539797  0.301712530731
  HEL2  NG2S0     1  0.277069501342  0.006746497284
  HEL2  NG2S1     1  0.250342539797  0.301712530731
  HEL2    NH1     1  0.250342539797  0.301712530731
  HEL2    NHL     1  0.250342539797  0.301712530731
  HEL2      O     1  0.236979059025  0.233705521373
  HEL2     OB     1  0.236979059025  0.233705521373
  HEL2    OBL     1  0.236979059025  0.233705521373
  HEL2  OC2D1     1  0.236979059025  0.233705521373
  HEL2  OC2D3     1  0.236979059025  0.233705521373
  HEL2  OC2D4     1  0.236979059025  0.233705521373
  HEL2    OCA     1  0.236979059025  0.233705521373
  HEL2  OG2D1     1  0.236979059025  0.233705521373
  HEL2  OG2D3     1  0.236979059025  0.233705521373
  HEL2   OLG1     1  0.236979059025  0.233705521373
   HF1     HP     1  0.238600494692  0.121263840612
   HF1      N     1  0.282414893650  0.007001171102
   HF1  NC2D1     1  0.255687932106  0.313101890125
   HF1  NG2S0     1  0.282414893650  0.007001171102
   HF1  NG2S1     1  0.255687932106  0.313101890125
   HF1    NH1     1  0.255687932106  0.313101890125
   HF1    NHL     1  0.255687932106  0.313101890125
   HF1      O     1  0.242324451334  0.242527681224
   HF1     OB     1  0.242324451334  0.242527681224
   HF1    OBL     1  0.242324451334  0.242527681224
   HF1  OC2D1     1  0.242324451334  0.242527681224
   HF1  OC2D3     1  0.242324451334  0.242527681224
   HF1  OC2D4     1  0.242324451334  0.242527681224
   HF1    OCA     1  0.242324451334  0.242527681224
   HF1  OG2D1     1  0.242324451334  0.242527681224
   HF1  OG2D3     1  0.242324451334  0.242527681224
   HF1   OLG1     1  0.242324451334  0.242527681224
   HF2     HP     1  0.236818697256  0.125520000000
   HF2      N     1  0.280633096214  0.007246900579
   HF2  NC2D1     1  0.253906134670  0.324091246411
   HF2  NG2S0     1  0.280633096214  0.007246900579
   HF2  NG2S1     1  0.253906134670  0.324091246411
   HF2    NH1     1  0.253906134670  0.324091246411
   HF2    NHL     1  0.253906134670  0.324091246411
   HF2      O     1  0.240542653898  0.251040000000
   HF2     OB     1  0.240542653898  0.251040000000
   HF2    OBL     1  0.240542653898  0.251040000000
   HF2  OC2D1     1  0.240542653898  0.251040000000
   HF2  OC2D3     1  0.240542653898  0.251040000000
   HF2  OC2D4     1  0.240542653898  0.251040000000
   HF2    OCA     1  0.240542653898  0.251040000000
   HF2  OG2D1     1  0.240542653898  0.251040000000
   HF2  OG2D3     1  0.240542653898  0.251040000000
   HF2   OLG1     1  0.240542653898  0.251040000000
  HG2P     HP     1  0.226288274408  0.328437337512
  HG2P      N     1  0.270102673366  0.018962338522
  HG2P  NC2D1     1  0.243375711822  0.848021558971
  HG2P  NG2S0     1  0.270102673366  0.018962338522
  HG2P  NG2S1     1  0.243375711822  0.848021558971
  HG2P    NH1     1  0.243375711822  0.848021558971
  HG2P    NHL     1  0.243375711822  0.848021558971
  HG2P      O     1  0.230012231049  0.656874675024
  HG2P     OB     1  0.230012231049  0.656874675024
  HG2P    OBL     1  0.230012231049  0.656874675024
  HG2P  OC2D1     1  0.230012231049  0.656874675024
  HG2P  OC2D3     1  0.230012231049  0.656874675024
  HG2P  OC2D4     1  0.230012231049  0.656874675024
  HG2P    OCA     1  0.230012231049  0.656874675024
  HG2P  OG2D1     1  0.230012231049  0.656874675024
  HG2P  OG2D3     1  0.230012231049  0.656874675024
  HG2P   OLG1     1  0.230012231049  0.656874675024
  HGA1     HP     1  0.240382292129  0.153729976257
  HGA1      N     1  0.284196691087  0.008875604317
  HGA1  NC2D1     1  0.257469729543  0.396929091904
  HGA1  NG2S0     1  0.284196691087  0.008875604317
  HGA1  NG2S1     1  0.257469729543  0.396929091904
  HGA1    NH1     1  0.257469729543  0.396929091904
  HGA1    NHL     1  0.257469729543  0.396929091904
  HGA1      O     1  0.244106248770  0.307459952514
  HGA1     OB     1  0.244106248770  0.307459952514
  HGA1    OBL     1  0.244106248770  0.307459952514
  HGA1  OC2D1     1  0.244106248770  0.307459952514
  HGA1  OC2D3     1  0.244106248770  0.307459952514
  HGA1  OC2D4     1  0.244106248770  0.307459952514
  HGA1    OCA     1  0.244106248770  0.307459952514
  HGA1  OG2D1     1  0.244106248770  0.307459952514
  HGA1  OG2D3     1  0.244106248770  0.307459952514
  HGA1   OLG1     1  0.244106248770  0.307459952514
  HGA2     HP     1  0.240382292129  0.135577095411
  HGA2      N     1  0.284196691087  0.007827547253
  HGA2  NC2D1     1  0.257469729543  0.350058555102
  HGA2  NG2S0     1  0.284196691087  0.007827547253
  HGA2  NG2S1     1  0.257469729543  0.350058555102
  HGA2    NH1     1  0.257469729543  0.350058555102
  HGA2    NHL     1  0.257469729543  0.350058555102
  HGA2      O     1  0.244106248770  0.271154190821
  HGA2     OB     1  0.244106248770  0.271154190821
  HGA2    OBL     1  0.244106248770  0.271154190821
  HGA2  OC2D1     1  0.244106248770  0.271154190821
  HGA2  OC2D3     1  0.244106248770  0.271154190821
  HGA2  OC2D4     1  0.244106248770  0.271154190821
  HGA2    OCA     1  0.244106248770  0.271154190821
  HGA2  OG2D1     1  0.244106248770  0.271154190821
  HGA2  OG2D3     1  0.244106248770  0.271154190821
  HGA2   OLG1     1  0.244106248770  0.271154190821
  HGA3     HP     1  0.240382292129  0.112268501014
  HGA3      N     1  0.284196691087  0.006481824928
  HGA3  NC2D1     1  0.257469729543  0.289876023155
  HGA3  NG2S0     1  0.284196691087  0.006481824928
  HGA3  NG2S1     1  0.257469729543  0.289876023155
  HGA3    NH1     1  0.257469729543  0.289876023155
  HGA3    NHL     1  0.257469729543  0.289876023155
  HGA3      O     1  0.244106248770  0.224537002029
  HGA3     OB     1  0.244106248770  0.224537002029
  HGA3    OBL     1  0.244106248770  0.224537002029
  HGA3  OC2D1     1  0.244106248770  0.224537002029
  HGA3  OC2D3     1  0.244106248770  0.224537002029
  HGA3  OC2D4     1  0.244106248770  0.224537002029
  HGA3    OCA     1  0.244106248770  0.224537002029
  HGA3  OG2D1     1  0.244106248770  0.224537002029
  HGA3  OG2D3     1  0.244106248770  0.224537002029
  HGA3   OLG1     1  0.244106248770  0.224537002029
  HGA4     HP     1  0.232364203665  0.127594851307
  HGA4      N     1  0.276178602624  0.007366692175
  HGA4  NC2D1     1  0.249451641079  0.329448489449
  HGA4  NG2S0     1  0.276178602624  0.007366692175
  HGA4  NG2S1     1  0.249451641079  0.329448489449
  HGA4    NH1     1  0.249451641079  0.329448489449
  HGA4    NHL     1  0.249451641079  0.329448489449
  HGA4      O     1  0.236088160307  0.255189702614
  HGA4     OB     1  0.236088160307  0.255189702614
  HGA4    OBL     1  0.236088160307  0.255189702614
  HGA4  OC2D1     1  0.236088160307  0.255189702614
  HGA4  OC2D3     1  0.236088160307  0.255189702614
  HGA4  OC2D4     1  0.236088160307  0.255189702614
  HGA4    OCA     1  0.236088160307  0.255189702614
  HGA4  OG2D1     1  0.236088160307  0.255189702614
  HGA4  OG2D3     1  0.236088160307  0.255189702614
  HGA4   OLG1     1  0.236088160307  0.255189702614
  HGA5     HP     1  0.233255102384  0.116852760686
  HGA5      N     1  0.277069501342  0.006746497284
  HGA5  NC2D1     1  0.250342539797  0.301712530731
  HGA5  NG2S0     1  0.277069501342  0.006746497284
  HGA5  NG2S1     1  0.250342539797  0.301712530731
  HGA5    NH1     1  0.250342539797  0.301712530731
  HGA5    NHL     1  0.250342539797  0.301712530731
  HGA5      O     1  0.236979059025  0.233705521373
  HGA5     OB     1  0.236979059025  0.233705521373
  HGA5    OBL     1  0.236979059025  0.233705521373
  HGA5  OC2D1     1  0.236979059025  0.233705521373
  HGA5  OC2D3     1  0.236979059025  0.233705521373
  HGA5  OC2D4     1  0.236979059025  0.233705521373
  HGA5    OCA     1  0.236979059025  0.233705521373
  HGA5  OG2D1     1  0.236979059025  0.233705521373
  HGA5  OG2D3     1  0.236979059025  0.233705521373
  HGA5   OLG1     1  0.236979059025  0.233705521373
  HGA6     HP     1  0.238600494692  0.121263840612
  HGA6      N     1  0.282414893650  0.007001171102
  HGA6  NC2D1     1  0.255687932106  0.313101890125
  HGA6  NG2S0     1  0.282414893650  0.007001171102
  HGA6  NG2S1     1  0.255687932106  0.313101890125
  HGA6    NH1     1  0.255687932106  0.313101890125
  HGA6    NHL     1  0.255687932106  0.313101890125
  HGA6      O     1  0.242324451334  0.242527681224
  HGA6     OB     1  0.242324451334  0.242527681224
  HGA6    OBL     1  0.242324451334  0.242527681224
  HGA6  OC2D1     1  0.242324451334  0.242527681224
  HGA6  OC2D3     1  0.242324451334  0.242527681224
  HGA6  OC2D4     1  0.242324451334  0.242527681224
  HGA6    OCA     1  0.242324451334  0.242527681224
  HGA6  OG2D1     1  0.242324451334  0.242527681224
  HGA6  OG2D3     1  0.242324451334  0.242527681224
  HGA6   OLG1     1  0.242324451334  0.242527681224
  HGA7     HP     1  0.236818697256  0.125520000000
  HGA7      N     1  0.280633096214  0.007246900579
  HGA7  NC2D1     1  0.253906134670  0.324091246411
  HGA7  NG2S0     1  0.280633096214  0.007246900579
  HGA7  NG2S1     1  0.253906134670  0.324091246411
  HGA7    NH1     1  0.253906134670  0.324091246411
  HGA7    NHL     1  0.253906134670  0.324091246411
  HGA7      O     1  0.240542653898  0.251040000000
  HGA7     OB     1  0.240542653898  0.251040000000
  HGA7    OBL     1  0.240542653898  0.251040000000
  HGA7  OC2D1     1  0.240542653898  0.251040000000
  HGA7  OC2D3     1  0.240542653898  0.251040000000
  HGA7  OC2D4     1  0.240542653898  0.251040000000
  HGA7    OCA     1  0.240542653898  0.251040000000
  HGA7  OG2D1     1  0.240542653898  0.251040000000
  HGA7  OG2D3     1  0.240542653898  0.251040000000
  HGA7   OLG1     1  0.240542653898  0.251040000000
HGAAM0     HP     1  0.235036899820  0.121263840612
HGAAM0      N     1  0.278851298778  0.007001171102
HGAAM0  NC2D1     1  0.252124337234  0.313101890125
HGAAM0  NG2S0     1  0.278851298778  0.007001171102
HGAAM0  NG2S1     1  0.252124337234  0.313101890125
HGAAM0    NH1     1  0.252124337234  0.313101890125
HGAAM0    NHL     1  0.252124337234  0.313101890125
HGAAM0      O     1  0.238760856462  0.242527681224
HGAAM0     OB     1  0.238760856462  0.242527681224
HGAAM0    OBL     1  0.238760856462  0.242527681224
HGAAM0  OC2D1     1  0.238760856462  0.242527681224
HGAAM0  OC2D3     1  0.238760856462  0.242527681224
HGAAM0  OC2D4     1  0.238760856462  0.242527681224
HGAAM0    OCA     1  0.238760856462  0.242527681224
HGAAM0  OG2D1     1  0.238760856462  0.242527681224
HGAAM0  OG2D3     1  0.238760856462  0.242527681224
HGAAM0   OLG1     1  0.238760856462  0.242527681224
HGAAM1     HP     1  0.235036899820  0.121263840612
HGAAM1      N     1  0.278851298778  0.007001171102
HGAAM1  NC2D1     1  0.252124337234  0.313101890125
HGAAM1  NG2S0     1  0.278851298778  0.007001171102
HGAAM1  NG2S1     1  0.252124337234  0.313101890125
HGAAM1    NH1     1  0.252124337234  0.313101890125
HGAAM1    NHL     1  0.252124337234  0.313101890125
HGAAM1      O     1  0.238760856462  0.242527681224
HGAAM1     OB     1  0.238760856462  0.242527681224
HGAAM1    OBL     1  0.238760856462  0.242527681224
HGAAM1  OC2D1     1  0.238760856462  0.242527681224
HGAAM1  OC2D3     1  0.238760856462  0.242527681224
HGAAM1  OC2D4     1  0.238760856462  0.242527681224
HGAAM1    OCA     1  0.238760856462  0.242527681224
HGAAM1  OG2D1     1  0.238760856462  0.242527681224
HGAAM1  OG2D3     1  0.238760856462  0.242527681224
HGAAM1   OLG1     1  0.238760856462  0.242527681224
HGAAM2     HP     1  0.233255102384  0.144938011577
HGAAM2      N     1  0.277069501342  0.008368000000
HGAAM2  NC2D1     1  0.250342539797  0.374228336714
HGAAM2  NG2S0     1  0.277069501342  0.008368000000
HGAAM2  NG2S1     1  0.250342539797  0.374228336714
HGAAM2    NH1     1  0.250342539797  0.374228336714
HGAAM2    NHL     1  0.250342539797  0.374228336714
HGAAM2      O     1  0.236979059025  0.289876023155
HGAAM2     OB     1  0.236979059025  0.289876023155
HGAAM2    OBL     1  0.236979059025  0.289876023155
HGAAM2  OC2D1     1  0.236979059025  0.289876023155
HGAAM2  OC2D3     1  0.236979059025  0.289876023155
HGAAM2  OC2D4     1  0.236979059025  0.289876023155
HGAAM2    OCA     1  0.236979059025  0.289876023155
HGAAM2  OG2D1     1  0.236979059025  0.289876023155
HGAAM2  OG2D3     1  0.236979059025  0.289876023155
HGAAM2   OLG1     1  0.236979059025  0.289876023155
  HGP1     HP     1  0.141002540120  0.155428701597
  HGP1      N     1  0.184816939078  0.008973680271
  HGP1  NC2D1     1  0.158089977534  0.401315181871
  HGP1  NG2S0     1  0.184816939078  0.008973680271
  HGP1  NG2S1     1  0.158089977534  0.401315181871
  HGP1    NH1     1  0.158089977534  0.401315181871
  HGP1    NHL     1  0.158089977534  0.401315181871
  HGP1      O     1  0.144726496762  0.310857403193
  HGP1     OB     1  0.144726496762  0.310857403193
  HGP1    OBL     1  0.144726496762  0.310857403193
  HGP1  OC2D1     1  0.144726496762  0.310857403193
  HGP1  OC2D3     1  0.144726496762  0.310857403193
  HGP1  OC2D4     1  0.144726496762  0.310857403193
  HGP1    OCA     1  0.144726496762  0.310857403193
  HGP1  OG2D1     1  0.144726496762  0.310857403193
  HGP1  OG2D3     1  0.144726496762  0.310857403193
  HGP1   OLG1     1  0.144726496762  0.310857403193
  HGP2     HP     1  0.141002540120  0.155428701597
  HGP2      N     1  0.184816939078  0.008973680271
  HGP2  NC2D1     1  0.158089977534  0.401315181871
  HGP2  NG2S0     1  0.184816939078  0.008973680271
  HGP2  NG2S1     1  0.158089977534  0.401315181871
  HGP2    NH1     1  0.158089977534  0.401315181871
  HGP2    NHL     1  0.158089977534  0.401315181871
  HGP2      O     1  0.144726496762  0.310857403193
  HGP2     OB     1  0.144726496762  0.310857403193
  HGP2    OBL     1  0.144726496762  0.310857403193
  HGP2  OC2D1     1  0.144726496762  0.310857403193
  HGP2  OC2D3     1  0.144726496762  0.310857403193
  HGP2  OC2D4     1  0.144726496762  0.310857403193
  HGP2    OCA     1  0.144726496762  0.310857403193
  HGP2  OG2D1     1  0.144726496762  0.310857403193
  HGP2  OG2D3     1  0.144726496762  0.310857403193
  HGP2   OLG1     1  0.144726496762  0.310857403193
  HGP3     HP     1  0.161092306214  0.229167118060
  HGP3      N     1  0.204906705172  0.013230969730
  HGP3  NC2D1     1  0.178179743628  0.591706954497
  HGP3  NG2S0     1  0.204906705172  0.013230969730
  HGP3  NG2S1     1  0.178179743628  0.591706954497
  HGP3    NH1     1  0.178179743628  0.591706954497
  HGP3    NHL     1  0.178179743628  0.591706954497
  HGP3      O     1  0.164816262856  0.458334236120
  HGP3     OB     1  0.164816262856  0.458334236120
  HGP3    OBL     1  0.164816262856  0.458334236120
  HGP3  OC2D1     1  0.164816262856  0.458334236120
  HGP3  OC2D3     1  0.164816262856  0.458334236120
  HGP3  OC2D4     1  0.164816262856  0.458334236120
  HGP3    OCA     1  0.164816262856  0.458334236120
  HGP3  OG2D1     1  0.164816262856  0.458334236120
  HGP3  OG2D3     1  0.164816262856  0.458334236120
  HGP3   OLG1     1  0.164816262856  0.458334236120
  HGP4     HP     1  0.141002540120  0.155428701597
  HGP4      N     1  0.184816939078  0.008973680271
  HGP4  NC2D1     1  0.158089977534  0.401315181871
  HGP4  NG2S0     1  0.184816939078  0.008973680271
  HGP4  NG2S1     1  0.158089977534  0.401315181871
  HGP4    NH1     1  0.158089977534  0.401315181871
  HGP4    NHL     1  0.158089977534  0.401315181871
  HGP4      O     1  0.144726496762  0.310857403193
  HGP4     OB     1  0.144726496762  0.310857403193
  HGP4    OBL     1  0.144726496762  0.310857403193
  HGP4  OC2D1     1  0.144726496762  0.310857403193
  HGP4  OC2D3     1  0.144726496762  0.310857403193
  HGP4  OC2D4     1  0.144726496762  0.310857403193
  HGP4    OCA     1  0.144726496762  0.310857403193
  HGP4  OG2D1     1  0.144726496762  0.310857403193
  HGP4  OG2D3     1  0.144726496762  0.310857403193
  HGP4   OLG1     1  0.144726496762  0.310857403193
  HGP5     HP     1  0.183364774168  0.155428701597
  HGP5      N     1  0.227179173126  0.008973680271
  HGP5  NC2D1     1  0.200452211582  0.401315181871
  HGP5  NG2S0     1  0.227179173126  0.008973680271
  HGP5  NG2S1     1  0.200452211582  0.401315181871
  HGP5    NH1     1  0.200452211582  0.401315181871
  HGP5    NHL     1  0.200452211582  0.401315181871
  HGP5      O     1  0.187088730809  0.310857403193
  HGP5     OB     1  0.187088730809  0.310857403193
  HGP5    OBL     1  0.187088730809  0.310857403193
  HGP5  OC2D1     1  0.187088730809  0.310857403193
  HGP5  OC2D3     1  0.187088730809  0.310857403193
  HGP5  OC2D4     1  0.187088730809  0.310857403193
  HGP5    OCA     1  0.187088730809  0.310857403193
  HGP5  OG2D1     1  0.187088730809  0.310857403193
  HGP5  OG2D3     1  0.187088730809  0.310857403193
  HGP5   OLG1     1  0.187088730809  0.310857403193
HGPAM1     HP     1  0.198955501735  0.068750135418
HGPAM1      N     1  0.242769900693  0.003969290919
HGPAM1  NC2D1     1  0.216042939149  0.177512086349
HGPAM1  NG2S0     1  0.242769900693  0.003969290919
HGPAM1  NG2S1     1  0.216042939149  0.177512086349
HGPAM1    NH1     1  0.216042939149  0.177512086349
HGPAM1    NHL     1  0.216042939149  0.177512086349
HGPAM1      O     1  0.202679458377  0.137500270836
HGPAM1     OB     1  0.202679458377  0.137500270836
HGPAM1    OBL     1  0.202679458377  0.137500270836
HGPAM1  OC2D1     1  0.202679458377  0.137500270836
HGPAM1  OC2D3     1  0.202679458377  0.137500270836
HGPAM1  OC2D4     1  0.202679458377  0.137500270836
HGPAM1    OCA     1  0.202679458377  0.137500270836
HGPAM1  OG2D1     1  0.202679458377  0.137500270836
HGPAM1  OG2D3     1  0.202679458377  0.137500270836
HGPAM1   OLG1     1  0.202679458377  0.137500270836
HGPAM2     HP     1  0.198955501735  0.072469005789
HGPAM2      N     1  0.242769900693  0.004184000000
HGPAM2  NC2D1     1  0.216042939149  0.187114168357
HGPAM2  NG2S0     1  0.242769900693  0.004184000000
HGPAM2  NG2S1     1  0.216042939149  0.187114168357
HGPAM2    NH1     1  0.216042939149  0.187114168357
HGPAM2    NHL     1  0.216042939149  0.187114168357
HGPAM2      O     1  0.202679458377  0.144938011577
HGPAM2     OB     1  0.202679458377  0.144938011577
HGPAM2    OBL     1  0.202679458377  0.144938011577
HGPAM2  OC2D1     1  0.202679458377  0.144938011577
HGPAM2  OC2D3     1  0.202679458377  0.144938011577
HGPAM2  OC2D4     1  0.202679458377  0.144938011577
HGPAM2    OCA     1  0.202679458377  0.144938011577
HGPAM2  OG2D1     1  0.202679458377  0.144938011577
HGPAM2  OG2D3     1  0.202679458377  0.144938011577
HGPAM2   OLG1     1  0.202679458377  0.144938011577
HGPAM3     HP     1  0.198510052376  0.079385818381
HGPAM3      N     1  0.242324451334  0.004583342361
HGPAM3  NC2D1     1  0.215597489790  0.204973301676
HGPAM3  NG2S0     1  0.242324451334  0.004583342361
HGPAM3  NG2S1     1  0.215597489790  0.204973301676
HGPAM3    NH1     1  0.215597489790  0.204973301676
HGPAM3    NHL     1  0.215597489790  0.204973301676
HGPAM3      O     1  0.202234009018  0.158771636762
HGPAM3     OB     1  0.202234009018  0.158771636762
HGPAM3    OBL     1  0.202234009018  0.158771636762
HGPAM3  OC2D1     1  0.202234009018  0.158771636762
HGPAM3  OC2D3     1  0.202234009018  0.158771636762
HGPAM3  OC2D4     1  0.202234009018  0.158771636762
HGPAM3    OCA     1  0.202234009018  0.158771636762
HGPAM3  OG2D1     1  0.202234009018  0.158771636762
HGPAM3  OG2D3     1  0.202234009018  0.158771636762
HGPAM3   OLG1     1  0.202234009018  0.158771636762
 HGR51     HP     1  0.242003727796  0.125520000000
 HGR51      N     1  0.285818126754  0.007246900579
 HGR51  NC2D1     1  0.259091165210  0.324091246411
 HGR51  NG2S0     1  0.285818126754  0.007246900579
 HGR51  NG2S1     1  0.259091165210  0.324091246411
 HGR51    NH1     1  0.259091165210  0.324091246411
 HGR51    NHL     1  0.259091165210  0.324091246411
 HGR51      O     1  0.245727684437  0.251040000000
 HGR51     OB     1  0.245727684437  0.251040000000
 HGR51    OBL     1  0.245727684437  0.251040000000
 HGR51  OC2D1     1  0.245727684437  0.251040000000
 HGR51  OC2D3     1  0.245727684437  0.251040000000
 HGR51  OC2D4     1  0.245727684437  0.251040000000
 HGR51    OCA     1  0.245727684437  0.251040000000
 HGR51  OG2D1     1  0.245727684437  0.251040000000
 HGR51  OG2D3     1  0.245727684437  0.251040000000
 HGR51   OLG1     1  0.245727684437  0.251040000000
 HGR52     HP     1  0.201182748530  0.155428701597
 HGR52      N     1  0.244997147489  0.008973680271
 HGR52  NC2D1     1  0.218270185944  0.401315181871
 HGR52  NG2S0     1  0.244997147489  0.008973680271
 HGR52  NG2S1     1  0.218270185944  0.401315181871
 HGR52    NH1     1  0.218270185944  0.401315181871
 HGR52    NHL     1  0.218270185944  0.401315181871
 HGR52      O     1  0.204906705172  0.310857403193
 HGR52     OB     1  0.204906705172  0.310857403193
 HGR52    OBL     1  0.204906705172  0.310857403193
 HGR52  OC2D1     1  0.204906705172  0.310857403193
 HGR52  OC2D3     1  0.204906705172  0.310857403193
 HGR52  OC2D4     1  0.204906705172  0.310857403193
 HGR52    OCA     1  0.204906705172  0.310857403193
 HGR52  OG2D1     1  0.204906705172  0.310857403193
 HGR52  OG2D3     1  0.204906705172  0.310857403193
 HGR52   OLG1     1  0.204906705172  0.310857403193
 HGR53     HP     1  0.183364774168  0.155428701597
 HGR53      N     1  0.227179173126  0.008973680271
 HGR53  NC2D1     1  0.200452211582  0.401315181871
 HGR53  NG2S0     1  0.227179173126  0.008973680271
 HGR53  NG2S1     1  0.200452211582  0.401315181871
 HGR53    NH1     1  0.200452211582  0.401315181871
 HGR53    NHL     1  0.200452211582  0.401315181871
 HGR53      O     1  0.187088730809  0.310857403193
 HGR53     OB     1  0.187088730809  0.310857403193
 HGR53    OBL     1  0.187088730809  0.310857403193
 HGR53  OC2D1     1  0.187088730809  0.310857403193
 HGR53  OC2D3     1  0.187088730809  0.310857403193
 HGR53  OC2D4     1  0.187088730809  0.310857403193
 HGR53    OCA     1  0.187088730809  0.310857403193
 HGR53  OG2D1     1  0.187088730809  0.310857403193
 HGR53  OG2D3     1  0.187088730809  0.310857403193
 HGR53   OLG1     1  0.187088730809  0.310857403193
 HGR61     HP     1  0.242003727796  0.125520000000
 HGR61      N     1  0.285818126754  0.007246900579
 HGR61  NC2D1     1  0.259091165210  0.324091246411
 HGR61  NG2S0     1  0.285818126754  0.007246900579
 HGR61  NG2S1     1  0.259091165210  0.324091246411
 HGR61    NH1     1  0.259091165210  0.324091246411
 HGR61    NHL     1  0.259091165210  0.324091246411
 HGR61      O     1  0.245727684437  0.251040000000
 HGR61     OB     1  0.245727684437  0.251040000000
 HGR61    OBL     1  0.245727684437  0.251040000000
 HGR61  OC2D1     1  0.245727684437  0.251040000000
 HGR61  OC2D3     1  0.245727684437  0.251040000000
 HGR61  OC2D4     1  0.245727684437  0.251040000000
 HGR61    OCA     1  0.245727684437  0.251040000000
 HGR61  OG2D1     1  0.245727684437  0.251040000000
 HGR61  OG2D3     1  0.245727684437  0.251040000000
 HGR61   OLG1     1  0.245727684437  0.251040000000
 HGR62     HP     1  0.219000722893  0.155428701597
 HGR62      N     1  0.262815121851  0.008973680271
 HGR62  NC2D1     1  0.236088160307  0.401315181871
 HGR62  NG2S0     1  0.262815121851  0.008973680271
 HGR62  NG2S1     1  0.236088160307  0.401315181871
 HGR62    NH1     1  0.236088160307  0.401315181871
 HGR62    NHL     1  0.236088160307  0.401315181871
 HGR62      O     1  0.222724679535  0.310857403193
 HGR62     OB     1  0.222724679535  0.310857403193
 HGR62    OBL     1  0.222724679535  0.310857403193
 HGR62  OC2D1     1  0.222724679535  0.310857403193
 HGR62  OC2D3     1  0.222724679535  0.310857403193
 HGR62  OC2D4     1  0.222724679535  0.310857403193
 HGR62    OCA     1  0.222724679535  0.310857403193
 HGR62  OG2D1     1  0.222724679535  0.310857403193
 HGR62  OG2D3     1  0.222724679535  0.310857403193
 HGR62   OLG1     1  0.222724679535  0.310857403193
 HGR63     HP     1  0.201182748530  0.155428701597
 HGR63      N     1  0.244997147489  0.008973680271
 HGR63  NC2D1     1  0.218270185944  0.401315181871
 HGR63  NG2S0     1  0.244997147489  0.008973680271
 HGR63  NG2S1     1  0.218270185944  0.401315181871
 HGR63    NH1     1  0.218270185944  0.401315181871
 HGR63    NHL     1  0.218270185944  0.401315181871
 HGR63      O     1  0.204906705172  0.310857403193
 HGR63     OB     1  0.204906705172  0.310857403193
 HGR63    OBL     1  0.204906705172  0.310857403193
 HGR63  OC2D1     1  0.204906705172  0.310857403193
 HGR63  OC2D3     1  0.204906705172  0.310857403193
 HGR63  OC2D4     1  0.204906705172  0.310857403193
 HGR63    OCA     1  0.204906705172  0.310857403193
 HGR63  OG2D1     1  0.204906705172  0.310857403193
 HGR63  OG2D3     1  0.204906705172  0.310857403193
 HGR63   OLG1     1  0.204906705172  0.310857403193
 HGR71     HP     1  0.242003727796  0.125520000000
 HGR71      N     1  0.285818126754  0.007246900579
 HGR71  NC2D1     1  0.259091165210  0.324091246411
 HGR71  NG2S0     1  0.285818126754  0.007246900579
 HGR71  NG2S1     1  0.259091165210  0.324091246411
 HGR71    NH1     1  0.259091165210  0.324091246411
 HGR71    NHL     1  0.259091165210  0.324091246411
 HGR71      O     1  0.245727684437  0.251040000000
 HGR71     OB     1  0.245727684437  0.251040000000
 HGR71    OBL     1  0.245727684437  0.251040000000
 HGR71  OC2D1     1  0.245727684437  0.251040000000
 HGR71  OC2D3     1  0.245727684437  0.251040000000
 HGR71  OC2D4     1  0.245727684437  0.251040000000
 HGR71    OCA     1  0.245727684437  0.251040000000
 HGR71  OG2D1     1  0.245727684437  0.251040000000
 HGR71  OG2D3     1  0.245727684437  0.251040000000
 HGR71   OLG1     1  0.245727684437  0.251040000000
    HL     HP     1  0.183364774168  0.155428701597
    HL      N     1  0.227179173126  0.008973680271
    HL  NC2D1     1  0.200452211582  0.401315181871
    HL  NG2S0     1  0.227179173126  0.008973680271
    HL  NG2S1     1  0.200452211582  0.401315181871
    HL    NH1     1  0.200452211582  0.401315181871
    HL    NHL     1  0.200452211582  0.401315181871
    HL      O     1  0.187088730809  0.310857403193
    HL     OB     1  0.187088730809  0.310857403193
    HL    OBL     1  0.187088730809  0.310857403193
    HL  OC2D1     1  0.187088730809  0.310857403193
    HL  OC2D3     1  0.187088730809  0.310857403193
    HL  OC2D4     1  0.187088730809  0.310857403193
    HL    OCA     1  0.187088730809  0.310857403193
    HL  OG2D1     1  0.187088730809  0.310857403193
    HL  OG2D3     1  0.187088730809  0.310857403193
    HL   OLG1     1  0.187088730809  0.310857403193
 HLGA1     HP     1  0.240382292129  0.153729976257
 HLGA1      N     1  0.284196691087  0.008875604317
 HLGA1  NC2D1     1  0.257469729543  0.396929091904
 HLGA1  NG2S0     1  0.284196691087  0.008875604317
 HLGA1  NG2S1     1  0.257469729543  0.396929091904
 HLGA1    NH1     1  0.257469729543  0.396929091904
 HLGA1    NHL     1  0.257469729543  0.396929091904
 HLGA1      O     1  0.244106248770  0.307459952514
 HLGA1     OB     1  0.244106248770  0.307459952514
 HLGA1    OBL     1  0.244106248770  0.307459952514
 HLGA1  OC2D1     1  0.244106248770  0.307459952514
 HLGA1  OC2D3     1  0.244106248770  0.307459952514
 HLGA1  OC2D4     1  0.244106248770  0.307459952514
 HLGA1    OCA     1  0.244106248770  0.307459952514
 HLGA1  OG2D1     1  0.244106248770  0.307459952514
 HLGA1  OG2D3     1  0.244106248770  0.307459952514
 HLGA1   OLG1     1  0.244106248770  0.307459952514
 HLGA2     HP     1  0.240382292129  0.135577095411
 HLGA2      N     1  0.284196691087  0.007827547253
 HLGA2  NC2D1     1  0.257469729543  0.350058555102
 HLGA2  NG2S0     1  0.284196691087  0.007827547253
 HLGA2  NG2S1     1  0.257469729543  0.350058555102
 HLGA2    NH1     1  0.257469729543  0.350058555102
 HLGA2    NHL     1  0.257469729543  0.350058555102
 HLGA2      O     1  0.244106248770  0.271154190821
 HLGA2     OB     1  0.244106248770  0.271154190821
 HLGA2    OBL     1  0.244106248770  0.271154190821
 HLGA2  OC2D1     1  0.244106248770  0.271154190821
 HLGA2  OC2D3     1  0.244106248770  0.271154190821
 HLGA2  OC2D4     1  0.244106248770  0.271154190821
 HLGA2    OCA     1  0.244106248770  0.271154190821
 HLGA2  OG2D1     1  0.244106248770  0.271154190821
 HLGA2  OG2D3     1  0.244106248770  0.271154190821
 HLGA2   OLG1     1  0.244106248770  0.271154190821
 HLGA3     HP     1  0.240382292129  0.112268501014
 HLGA3      N     1  0.284196691087  0.006481824928
 HLGA3  NC2D1     1  0.257469729543  0.289876023155
 HLGA3  NG2S0     1  0.284196691087  0.006481824928
 HLGA3  NG2S1     1  0.257469729543  0.289876023155
 HLGA3    NH1     1  0.257469729543  0.289876023155
 HLGA3    NHL     1  0.257469729543  0.289876023155
 HLGA3      O     1  0.244106248770  0.224537002029
 HLGA3     OB     1  0.244106248770  0.224537002029
 HLGA3    OBL     1  0.244106248770  0.224537002029
 HLGA3  OC2D1     1  0.244106248770  0.224537002029
 HLGA3  OC2D3     1  0.244106248770  0.224537002029
 HLGA3  OC2D4     1  0.244106248770  0.224537002029
 HLGA3    OCA     1  0.244106248770  0.224537002029
 HLGA3  OG2D1     1  0.244106248770  0.224537002029
 HLGA3  OG2D3     1  0.244106248770  0.224537002029
 HLGA3   OLG1     1  0.244106248770  0.224537002029
 HLGA4     HP     1  0.232364203665  0.127594851307
 HLGA4      N     1  0.276178602624  0.007366692175
 HLGA4  NC2D1     1  0.249451641079  0.329448489449
 HLGA4  NG2S0     1  0.276178602624  0.007366692175
 HLGA4  NG2S1     1  0.249451641079  0.329448489449
 HLGA4    NH1     1  0.249451641079  0.329448489449
 HLGA4    NHL     1  0.249451641079  0.329448489449
 HLGA4      O     1  0.236088160307  0.255189702614
 HLGA4     OB     1  0.236088160307  0.255189702614
 HLGA4    OBL     1  0.236088160307  0.255189702614
 HLGA4  OC2D1     1  0.236088160307  0.255189702614
 HLGA4  OC2D3     1  0.236088160307  0.255189702614
 HLGA4  OC2D4     1  0.236088160307  0.255189702614
 HLGA4    OCA     1  0.236088160307  0.255189702614
 HLGA4  OG2D1     1  0.236088160307  0.255189702614
 HLGA4  OG2D3     1  0.236088160307  0.255189702614
 HLGA4   OLG1     1  0.236088160307  0.255189702614
 HLGP1     HP     1  0.141002540120  0.155428701597
 HLGP1      N     1  0.184816939078  0.008973680271
 HLGP1  NC2D1     1  0.158089977534  0.401315181871
 HLGP1  NG2S0     1  0.184816939078  0.008973680271
 HLGP1  NG2S1     1  0.158089977534  0.401315181871
 HLGP1    NH1     1  0.158089977534  0.401315181871
 HLGP1    NHL     1  0.158089977534  0.401315181871
 HLGP1      O     1  0.144726496762  0.310857403193
 HLGP1     OB     1  0.144726496762  0.310857403193
 HLGP1    OBL     1  0.144726496762  0.310857403193
 HLGP1  OC2D1     1  0.144726496762  0.310857403193
 HLGP1  OC2D3     1  0.144726496762  0.310857403193
 HLGP1  OC2D4     1  0.144726496762  0.310857403193
 HLGP1    OCA     1  0.144726496762  0.310857403193
 HLGP1  OG2D1     1  0.144726496762  0.310857403193
 HLGP1  OG2D3     1  0.144726496762  0.310857403193
 HLGP1   OLG1     1  0.144726496762  0.310857403193
HLGR52     HP     1  0.201182748530  0.155428701597
HLGR52      N     1  0.244997147489  0.008973680271
HLGR52  NC2D1     1  0.218270185944  0.401315181871
HLGR52  NG2S0     1  0.244997147489  0.008973680271
HLGR52  NG2S1     1  0.218270185944  0.401315181871
HLGR52    NH1     1  0.218270185944  0.401315181871
HLGR52    NHL     1  0.218270185944  0.401315181871
HLGR52      O     1  0.204906705172  0.310857403193
HLGR52     OB     1  0.204906705172  0.310857403193
HLGR52    OBL     1  0.204906705172  0.310857403193
HLGR52  OC2D1     1  0.204906705172  0.310857403193
HLGR52  OC2D3     1  0.204906705172  0.310857403193
HLGR52  OC2D4     1  0.204906705172  0.310857403193
HLGR52    OCA     1  0.204906705172  0.310857403193
HLGR52  OG2D1     1  0.204906705172  0.310857403193
HLGR52  OG2D3     1  0.204906705172  0.310857403193
HLGR52   OLG1     1  0.204906705172  0.310857403193
HLGR61     HP     1  0.242003727796  0.125520000000
HLGR61      N     1  0.285818126754  0.007246900579
HLGR61  NC2D1     1  0.259091165210  0.324091246411
HLGR61  NG2S0     1  0.285818126754  0.007246900579
HLGR61  NG2S1     1  0.259091165210  0.324091246411
HLGR61    NH1     1  0.259091165210  0.324091246411
HLGR61    NHL     1  0.259091165210  0.324091246411
HLGR61      O     1  0.245727684437  0.251040000000
HLGR61     OB     1  0.245727684437  0.251040000000
HLGR61    OBL     1  0.245727684437  0.251040000000
HLGR61  OC2D1     1  0.245727684437  0.251040000000
HLGR61  OC2D3     1  0.245727684437  0.251040000000
HLGR61  OC2D4     1  0.245727684437  0.251040000000
HLGR61    OCA     1  0.245727684437  0.251040000000
HLGR61  OG2D1     1  0.245727684437  0.251040000000
HLGR61  OG2D3     1  0.245727684437  0.251040000000
HLGR61   OLG1     1  0.245727684437  0.251040000000
HLGR62     HP     1  0.219000722893  0.155428701597
HLGR62      N     1  0.262815121851  0.008973680271
HLGR62  NC2D1     1  0.236088160307  0.401315181871
HLGR62  NG2S0     1  0.262815121851  0.008973680271
HLGR62  NG2S1     1  0.236088160307  0.401315181871
HLGR62    NH1     1  0.236088160307  0.401315181871
HLGR62    NHL     1  0.236088160307  0.401315181871
HLGR62      O     1  0.222724679535  0.310857403193
HLGR62     OB     1  0.222724679535  0.310857403193
HLGR62    OBL     1  0.222724679535  0.310857403193
HLGR62  OC2D1     1  0.222724679535  0.310857403193
HLGR62  OC2D3     1  0.222724679535  0.310857403193
HLGR62  OC2D4     1  0.222724679535  0.310857403193
HLGR62    OCA     1  0.222724679535  0.310857403193
HLGR62  OG2D1     1  0.222724679535  0.310857403193
HLGR62  OG2D3     1  0.222724679535  0.310857403193
HLGR62   OLG1     1  0.222724679535  0.310857403193
   HN1     HP     1  0.141002540120  0.155428701597
   HN1      N     1  0.184816939078  0.008973680271
   HN1  NC2D1     1  0.158089977534  0.401315181871
   HN1  NG2S0     1  0.184816939078  0.008973680271
   HN1  NG2S1     1  0.158089977534  0.401315181871
   HN1    NH1     1  0.158089977534  0.401315181871
   HN1    NHL     1  0.158089977534  0.401315181871
   HN1      O     1  0.144726496762  0.310857403193
   HN1     OB     1  0.144726496762  0.310857403193
   HN1    OBL     1  0.144726496762  0.310857403193
   HN1  OC2D1     1  0.144726496762  0.310857403193
   HN1  OC2D3     1  0.144726496762  0.310857403193
   HN1  OC2D4     1  0.144726496762  0.310857403193
   HN1    OCA     1  0.144726496762  0.310857403193
   HN1  OG2D1     1  0.144726496762  0.310857403193
   HN1  OG2D3     1  0.144726496762  0.310857403193
   HN1   OLG1     1  0.144726496762  0.310857403193
   HN2     HP     1  0.141002540120  0.155428701597
   HN2      N     1  0.184816939078  0.008973680271
   HN2  NC2D1     1  0.158089977534  0.401315181871
   HN2  NG2S0     1  0.184816939078  0.008973680271
   HN2  NG2S1     1  0.158089977534  0.401315181871
   HN2    NH1     1  0.158089977534  0.401315181871
   HN2    NHL     1  0.158089977534  0.401315181871
   HN2      O     1  0.144726496762  0.310857403193
   HN2     OB     1  0.144726496762  0.310857403193
   HN2    OBL     1  0.144726496762  0.310857403193
   HN2  OC2D1     1  0.144726496762  0.310857403193
   HN2  OC2D3     1  0.144726496762  0.310857403193
   HN2  OC2D4     1  0.144726496762  0.310857403193
   HN2    OCA     1  0.144726496762  0.310857403193
   HN2  OG2D1     1  0.144726496762  0.310857403193
   HN2  OG2D3     1  0.144726496762  0.310857403193
   HN2   OLG1     1  0.144726496762  0.310857403193
   HN3     HP     1  0.219000722893  0.155428701597
   HN3      N     1  0.262815121851  0.008973680271
   HN3  NC2D1     1  0.236088160307  0.401315181871
   HN3  NG2S0     1  0.262815121851  0.008973680271
   HN3  NG2S1     1  0.236088160307  0.401315181871
   HN3    NH1     1  0.236088160307  0.401315181871
   HN3    NHL     1  0.236088160307  0.401315181871
   HN3      O     1  0.222724679535  0.310857403193
   HN3     OB     1  0.222724679535  0.310857403193
   HN3    OBL     1  0.222724679535  0.310857403193
   HN3  OC2D1     1  0.222724679535  0.310857403193
   HN3  OC2D3     1  0.222724679535  0.310857403193
   HN3  OC2D4     1  0.222724679535  0.310857403193
   HN3    OCA     1  0.222724679535  0.310857403193
   HN3  OG2D1     1  0.222724679535  0.310857403193
   HN3  OG2D3     1  0.222724679535  0.310857403193
   HN3   OLG1     1  0.222724679535  0.310857403193
  HN3B     HP     1  0.201182748530  0.155428701597
  HN3B      N     1  0.244997147489  0.008973680271
  HN3B  NC2D1     1  0.218270185944  0.401315181871
  HN3B  NG2S0     1  0.244997147489  0.008973680271
  HN3B  NG2S1     1  0.218270185944  0.401315181871
  HN3B    NH1     1  0.218270185944  0.401315181871
  HN3B    NHL     1  0.218270185944  0.401315181871
  HN3B      O     1  0.204906705172  0.310857403193
  HN3B     OB     1  0.204906705172  0.310857403193
  HN3B    OBL     1  0.204906705172  0.310857403193
  HN3B  OC2D1     1  0.204906705172  0.310857403193
  HN3B  OC2D3     1  0.204906705172  0.310857403193
  HN3B  OC2D4     1  0.204906705172  0.310857403193
  HN3B    OCA     1  0.204906705172  0.310857403193
  HN3B  OG2D1     1  0.204906705172  0.310857403193
  HN3B  OG2D3     1  0.204906705172  0.310857403193
  HN3B   OLG1     1  0.204906705172  0.310857403193
   HN4     HP     1  0.141002540120  0.155428701597
   HN4      N     1  0.184816939078  0.008973680271
   HN4  NC2D1     1  0.158089977534  0.401315181871
   HN4  NG2S0     1  0.184816939078  0.008973680271
   HN4  NG2S1     1  0.158089977534  0.401315181871
   HN4    NH1     1  0.158089977534  0.401315181871
   HN4    NHL     1  0.158089977534  0.401315181871
   HN4      O     1  0.144726496762  0.310857403193
   HN4     OB     1  0.144726496762  0.310857403193
   HN4    OBL     1  0.144726496762  0.310857403193
   HN4  OC2D1     1  0.144726496762  0.310857403193
   HN4  OC2D3     1  0.144726496762  0.310857403193
   HN4  OC2D4     1  0.144726496762  0.310857403193
   HN4    OCA     1  0.144726496762  0.310857403193
   HN4  OG2D1     1  0.144726496762  0.310857403193
   HN4  OG2D3     1  0.144726496762  0.310857403193
   HN4   OLG1     1  0.144726496762  0.310857403193
   HN5     HP     1  0.141002540120  0.155428701597
   HN5      N     1  0.184816939078  0.008973680271
   HN5  NC2D1     1  0.158089977534  0.401315181871
   HN5  NG2S0     1  0.184816939078  0.008973680271
   HN5  NG2S1     1  0.158089977534  0.401315181871
   HN5    NH1     1  0.158089977534  0.401315181871
   HN5    NHL     1  0.158089977534  0.401315181871
   HN5      O     1  0.144726496762  0.310857403193
   HN5     OB     1  0.144726496762  0.310857403193
   HN5    OBL     1  0.144726496762  0.310857403193
   HN5  OC2D1     1  0.144726496762  0.310857403193
   HN5  OC2D3     1  0.144726496762  0.310857403193
   HN5  OC2D4     1  0.144726496762  0.310857403193
   HN5    OCA     1  0.144726496762  0.310857403193
   HN5  OG2D1     1  0.144726496762  0.310857403193
   HN5  OG2D3     1  0.144726496762  0.310857403193
   HN5   OLG1     1  0.144726496762  0.310857403193
   HN6     HP     1  0.238600494692  0.107488906218
   HN6      N     1  0.282414893650  0.006205874894
   HN6  NC2D1     1  0.255687932106  0.277535162457
   HN6  NG2S0     1  0.282414893650  0.006205874894
   HN6  NG2S1     1  0.255687932106  0.277535162457
   HN6    NH1     1  0.255687932106  0.277535162457
   HN6    NHL     1  0.255687932106  0.277535162457
   HN6      O     1  0.242324451334  0.214977812437
   HN6     OB     1  0.242324451334  0.214977812437
   HN6    OBL     1  0.242324451334  0.214977812437
   HN6  OC2D1     1  0.242324451334  0.214977812437
   HN6  OC2D3     1  0.242324451334  0.214977812437
   HN6  OC2D4     1  0.242324451334  0.214977812437
   HN6    OCA     1  0.242324451334  0.214977812437
   HN6  OG2D1     1  0.242324451334  0.214977812437
   HN6  OG2D3     1  0.242324451334  0.214977812437
   HN6   OLG1     1  0.242324451334  0.214977812437
   HN7     HP     1  0.238600494692  0.107488906218
   HN7      N     1  0.282414893650  0.006205874894
   HN7  NC2D1     1  0.255687932106  0.277535162457
   HN7  NG2S0     1  0.282414893650  0.006205874894
   HN7  NG2S1     1  0.255687932106  0.277535162457
   HN7    NH1     1  0.255687932106  0.277535162457
   HN7    NHL     1  0.255687932106  0.277535162457
   HN7      O     1  0.242324451334  0.214977812437
   HN7     OB     1  0.242324451334  0.214977812437
   HN7    OBL     1  0.242324451334  0.214977812437
   HN7  OC2D1     1  0.242324451334  0.214977812437
   HN7  OC2D3     1  0.242324451334  0.214977812437
   HN7  OC2D4     1  0.242324451334  0.214977812437
   HN7    OCA     1  0.242324451334  0.214977812437
   HN7  OG2D1     1  0.242324451334  0.214977812437
   HN7  OG2D3     1  0.242324451334  0.214977812437
   HN7   OLG1     1  0.242324451334  0.214977812437
   HN8     HP     1  0.240382292129  0.121263840612
   HN8      N     1  0.284196691087  0.007001171102
   HN8  NC2D1     1  0.257469729543  0.313101890125
   HN8  NG2S0     1  0.284196691087  0.007001171102
   HN8  NG2S1     1  0.257469729543  0.313101890125
   HN8    NH1     1  0.257469729543  0.313101890125
   HN8    NHL     1  0.257469729543  0.313101890125
   HN8      O     1  0.244106248770  0.242527681224
   HN8     OB     1  0.244106248770  0.242527681224
   HN8    OBL     1  0.244106248770  0.242527681224
   HN8  OC2D1     1  0.244106248770  0.242527681224
   HN8  OC2D3     1  0.244106248770  0.242527681224
   HN8  OC2D4     1  0.244106248770  0.242527681224
   HN8    OCA     1  0.244106248770  0.242527681224
   HN8  OG2D1     1  0.244106248770  0.242527681224
   HN8  OG2D3     1  0.244106248770  0.242527681224
   HN8   OLG1     1  0.244106248770  0.242527681224
   HN9     HP     1  0.240382292129  0.112268501014
   HN9      N     1  0.284196691087  0.006481824928
   HN9  NC2D1     1  0.257469729543  0.289876023155
   HN9  NG2S0     1  0.284196691087  0.006481824928
   HN9  NG2S1     1  0.257469729543  0.289876023155
   HN9    NH1     1  0.257469729543  0.289876023155
   HN9    NHL     1  0.257469729543  0.289876023155
   HN9      O     1  0.244106248770  0.224537002029
   HN9     OB     1  0.244106248770  0.224537002029
   HN9    OBL     1  0.244106248770  0.224537002029
   HN9  OC2D1     1  0.244106248770  0.224537002029
   HN9  OC2D3     1  0.244106248770  0.224537002029
   HN9  OC2D4     1  0.244106248770  0.224537002029
   HN9    OCA     1  0.244106248770  0.224537002029
   HN9  OG2D1     1  0.244106248770  0.224537002029
   HN9  OG2D3     1  0.244106248770  0.224537002029
   HN9   OLG1     1  0.244106248770  0.224537002029
  HNE1     HP     1  0.232364203665  0.127594851307
  HNE1      N     1  0.276178602624  0.007366692175
  HNE1  NC2D1     1  0.249451641079  0.329448489449
  HNE1  NG2S0     1  0.276178602624  0.007366692175
  HNE1  NG2S1     1  0.249451641079  0.329448489449
  HNE1    NH1     1  0.249451641079  0.329448489449
  HNE1    NHL     1  0.249451641079  0.329448489449
  HNE1      O     1  0.236088160307  0.255189702614
  HNE1     OB     1  0.236088160307  0.255189702614
  HNE1    OBL     1  0.236088160307  0.255189702614
  HNE1  OC2D1     1  0.236088160307  0.255189702614
  HNE1  OC2D3     1  0.236088160307  0.255189702614
  HNE1  OC2D4     1  0.236088160307  0.255189702614
  HNE1    OCA     1  0.236088160307  0.255189702614
  HNE1  OG2D1     1  0.236088160307  0.255189702614
  HNE1  OG2D3     1  0.236088160307  0.255189702614
  HNE1   OLG1     1  0.236088160307  0.255189702614
  HNE2     HP     1  0.233255102384  0.116852760686
  HNE2      N     1  0.277069501342  0.006746497284
  HNE2  NC2D1     1  0.250342539797  0.301712530731
  HNE2  NG2S0     1  0.277069501342  0.006746497284
  HNE2  NG2S1     1  0.250342539797  0.301712530731
  HNE2    NH1     1  0.250342539797  0.301712530731
  HNE2    NHL     1  0.250342539797  0.301712530731
  HNE2      O     1  0.236979059025  0.233705521373
  HNE2     OB     1  0.236979059025  0.233705521373
  HNE2    OBL     1  0.236979059025  0.233705521373
  HNE2  OC2D1     1  0.236979059025  0.233705521373
  HNE2  OC2D3     1  0.236979059025  0.233705521373
  HNE2  OC2D4     1  0.236979059025  0.233705521373
  HNE2    OCA     1  0.236979059025  0.233705521373
  HNE2  OG2D1     1  0.236979059025  0.233705521373
  HNE2  OG2D3     1  0.236979059025  0.233705521373
  HNE2   OLG1     1  0.236979059025  0.233705521373
   HNP     HP     1  0.242003727796  0.125520000000
   HNP      N     1  0.285818126754  0.007246900579
   HNP  NC2D1     1  0.259091165210  0.324091246411
   HNP  NG2S0     1  0.285818126754  0.007246900579
   HNP  NG2S1     1  0.259091165210  0.324091246411
   HNP    NH1     1  0.259091165210  0.324091246411
   HNP    NHL     1  0.259091165210  0.324091246411
   HNP      O     1  0.245727684437  0.251040000000
   HNP     OB     1  0.245727684437  0.251040000000
   HNP    OBL     1  0.245727684437  0.251040000000
   HNP  OC2D1     1  0.245727684437  0.251040000000
   HNP  OC2D3     1  0.245727684437  0.251040000000
   HNP  OC2D4     1  0.245727684437  0.251040000000
   HNP    OCA     1  0.245727684437  0.251040000000
   HNP  OG2D1     1  0.245727684437  0.251040000000
   HNP  OG2D3     1  0.245727684437  0.251040000000
   HNP   OLG1     1  0.245727684437  0.251040000000
  HO3P     HP     1  0.244899148630  0.294905226485
  HO3P      N     1  0.288713547588  0.017026361190
  HO3P  NC2D1     1  0.261986586044  0.761442020590
  HO3P  NG2S0     1  0.288713547588  0.017026361190
  HO3P  NG2S1     1  0.261986586044  0.761442020590
  HO3P    NH1     1  0.261986586044  0.761442020590
  HO3P    NHL     1  0.261986586044  0.761442020590
  HO3P      O     1  0.248623105271  0.589810452969
  HO3P     OB     1  0.248623105271  0.589810452969
  HO3P    OBL     1  0.248623105271  0.589810452969
  HO3P  OC2D1     1  0.248623105271  0.589810452969
  HO3P  OC2D3     1  0.248623105271  0.589810452969
  HO3P  OC2D4     1  0.248623105271  0.589810452969
  HO3P    OCA     1  0.248623105271  0.589810452969
  HO3P  OG2D1     1  0.248623105271  0.589810452969
  HO3P  OG2D3     1  0.248623105271  0.589810452969
  HO3P   OLG1     1  0.248623105271  0.589810452969
   HOL     HP     1  0.141002540120  0.155428701597
   HOL      N     1  0.184816939078  0.008973680271
   HOL  NC2D1     1  0.158089977534  0.401315181871
   HOL  NG2S0     1  0.184816939078  0.008973680271
   HOL  NG2S1     1  0.158089977534  0.401315181871
   HOL    NH1     1  0.158089977534  0.401315181871
   HOL    NHL     1  0.158089977534  0.401315181871
   HOL      O     1  0.144726496762  0.310857403193
   HOL     OB     1  0.144726496762  0.310857403193
   HOL    OBL     1  0.144726496762  0.310857403193
   HOL  OC2D1     1  0.144726496762  0.310857403193
   HOL  OC2D3     1  0.144726496762  0.310857403193
   HOL  OC2D4     1  0.144726496762  0.310857403193
   HOL    OCA     1  0.144726496762  0.310857403193
   HOL  OG2D1     1  0.144726496762  0.310857403193
   HOL  OG2D3     1  0.144726496762  0.310857403193
   HOL   OLG1     1  0.144726496762  0.310857403193
    HP     HP     1  0.242003727796  0.125520000000
    HP   HPER     1  0.141002540120  0.155428701597
    HP    HR1     1  0.201182748530  0.155428701597
    HP    HR2     1  0.183364774168  0.155428701597
    HP    HR3     1  0.251785795721  0.064002892935
    HP   HRA3     1  0.240382292129  0.112268501014
    HP   HRM1     1  0.198955501735  0.068750135418
    HP   HRM2     1  0.198955501735  0.072469005789
    HP   HRP2     1  0.141002540120  0.155428701597
    HP     HS     1  0.161092306214  0.229167118060
    HP   HSIA     1  0.238600494692  0.107488906218
    HP   HSIO     1  0.141002540120  0.155428701597
    HP     HT     1  0.141002540120  0.155428701597
    HP     HX     1  0.141002540120  0.155428701597
    HP   IGR1     1  0.320563176761  0.522581432506
    HP   IN3P     1  0.198180419850  0.278133740607
    HP   LA3P     1  0.278931479663  0.315552386979
    HP    LIT     1  0.236595972577  0.034980842391
    HP    LPH     1  0.121001863898  0.000000000000
    HP   LU3P     1  0.241380098693  0.288786942198
    HP     MG     1  0.226573361997  0.088756043175
    HP   MN2P     1  0.228239342600  0.297476221033
    HP   MN3P     1  0.155248010623  0.256421518473
    HP      N     1  0.285818126754  0.007246900579
    HP     NC     1  0.285818126754  0.561342505072
    HP    NC2     1  0.285818126754  0.324091246411
    HP  NC2D1     1  0.259091165210  0.324091246411
    HP  NC311     1  0.299181607526  0.153729976257
    HP   ND3P     1  0.265318547249  0.306775947323
    HP     NE     1  0.257309367773  0.212520842460
    HP  NG1T1     1  0.280472734445  0.307459952514
    HP  NG2D1     1  0.285818126754  0.324091246411
    HP  NG2O1     1  0.285818126754  0.324091246411
    HP  NG2P1     1  0.285818126754  0.324091246411
    HP NG2R43     1  0.285818126754  0.324091246411
    HP NG2R50     1  0.285818126754  0.324091246411
    HP NG2R51     1  0.285818126754  0.324091246411
    HP NG2R52     1  0.285818126754  0.324091246411
    HP NG2R53     1  0.285818126754  0.324091246411
    HP NG2R57     1  0.285818126754  0.324091246411
    HP NG2R60     1  0.289381721626  0.177512086349
    HP NG2R61     1  0.285818126754  0.324091246411
    HP NG2R62     1  0.304526999835  0.162045623205
    HP NG2R67     1  0.285818126754  0.324091246411
    HP NG2RC0     1  0.285818126754  0.324091246411
    HP  NG2S0     1  0.285818126754  0.007246900579
    HP  NG2S1     1  0.259091165210  0.324091246411
    HP  NG2S2     1  0.285818126754  0.324091246411
    HP  NG2S3     1  0.285818126754  0.324091246411
    HP  NG301     1  0.299181607526  0.135577095411
    HP  NG311     1  0.299181607526  0.153729976257
    HP  NG321     1  0.298290708808  0.177512086349
    HP  NG331     1  0.297399810090  0.191734967077
    HP NG3C51     1  0.285818126754  0.324091246411
    HP  NG3N1     1  0.303636101117  0.177512086349
    HP  NG3P0     1  0.285818126754  0.324091246411
    HP  NG3P1     1  0.285818126754  0.324091246411
    HP  NG3P2     1  0.285818126754  0.324091246411
    HP  NG3P3     1  0.285818126754  0.324091246411
    HP    NH1     1  0.259091165210  0.324091246411
    HP    NH2     1  0.285818126754  0.324091246411
    HP    NH3     1  0.285818126754  0.324091246411
    HP   NH3L     1  0.285818126754  0.324091246411
    HP    NHL     1  0.259091165210  0.324091246411
    HP     NI     1  0.234680540333  1.722568602988
    HP   NI2P     1  0.190518690874  0.274427025841
    HP    NN1     1  0.285818126754  0.324091246411
    HP   NN1C     1  0.285818126754  0.324091246411
    HP    NN2     1  0.285818126754  0.324091246411
    HP   NN2B     1  0.285818126754  0.324091246411
    HP   NN2C     1  0.285818126754  0.324091246411
    HP   NN2G     1  0.285818126754  0.324091246411
    HP   NN2U     1  0.285818126754  0.324091246411
    HP    NN3     1  0.285818126754  0.324091246411
    HP   NN3A     1  0.285818126754  0.324091246411
    HP   NN3G     1  0.285818126754  0.324091246411
    HP   NN3I     1  0.285818126754  0.324091246411
    HP    NN4     1  0.285818126754  0.324091246411
    HP    NN6     1  0.285818126754  0.324091246411
    HP    NNG     1  0.285818126754  0.324091246411
    HP     NP     1  0.285818126754  0.324091246411
    HP    NPH     1  0.285818126754  0.324091246411
    HP    NR1     1  0.285818126754  0.324091246411
    HP    NR2     1  0.285818126754  0.324091246411
    HP    NR3     1  0.285818126754  0.324091246411
    HP   NRC4     1  0.285818126754  0.324091246411
    HP   NRN1     1  0.299181607526  0.486136869616
    HP   NRN2     1  0.298290708808  0.177512086349
    HP    NS1     1  0.285818126754  0.324091246411
    HP    NS2     1  0.285818126754  0.324091246411
    HP    NTL     1  0.285818126754  0.324091246411
    HP     NY     1  0.285818126754  0.324091246411
    HP      O     1  0.245727684437  0.251040000000
    HP    O2L     1  0.272454645982  0.251040000000
    HP    OAL     1  0.278690937009  0.282629122576
    HP     OB     1  0.245727684437  0.251040000000
    HP    OBL     1  0.245727684437  0.251040000000
    HP     OC     1  0.272454645982  0.251040000000
    HP  OC2D1     1  0.245727684437  0.251040000000
    HP  OC2D2     1  0.272454645982  0.251040000000
    HP  OC2D3     1  0.245727684437  0.251040000000
    HP  OC2D4     1  0.245727684437  0.251040000000
    HP  OC2DP     1  0.272454645982  0.251040000000
    HP  OC301     1  0.268000152391  0.229167118060
    HP  OC302     1  0.268000152391  0.229167118060
    HP  OC303     1  0.268000152391  0.229167118060
    HP OC305A     1  0.268000152391  0.229167118060
    HP  OC30A     1  0.268000152391  0.229167118060
    HP  OC30P     1  0.278690937009  0.282629122576
    HP  OC311     1  0.278245487650  0.317625956320
    HP OC311M     1  0.278245487650  0.317625956320
    HP  OC312     1  0.278690937009  0.282629122576
    HP OC3C51     1  0.268000152391  0.229167118060
    HP OC3C5M     1  0.268000152391  0.229167118060
    HP OC3C61     1  0.268000152391  0.229167118060
    HP    OCA     1  0.245727684437  0.251040000000
    HP    OCL     1  0.272454645982  0.251040000000
    HP  OG2D1     1  0.245727684437  0.251040000000
    HP  OG2D2     1  0.272454645982  0.251040000000
    HP  OG2D3     1  0.245727684437  0.251040000000
    HP  OG2D4     1  0.272454645982  0.251040000000
    HP  OG2D5     1  0.271741927007  0.294370493087
    HP  OG2N1     1  0.272454645982  0.251040000000
    HP  OG2P1     1  0.272454645982  0.251040000000
    HP OG2R50     1  0.272454645982  0.251040000000
    HP  OG2S1     1  0.270637212597  0.273372455204
    HP  OG301     1  0.268000152391  0.229167118060
    HP  OG302     1  0.268000152391  0.229167118060
    HP  OG303     1  0.268000152391  0.229167118060
    HP  OG304     1  0.268000152391  0.229167118060
    HP  OG311     1  0.278245487650  0.317625956320
    HP  OG312     1  0.276909139572  0.251040000000
    HP OG3C31     1  0.268000152391  0.229167118060
    HP OG3C51     1  0.268000152391  0.229167118060
    HP OG3C61     1  0.268000152391  0.229167118060
    HP OG3R60     1  0.268000152391  0.229167118060
    HP    OH1     1  0.278690937009  0.282629122576
    HP    OHL     1  0.278690937009  0.282629122576
    HP   OLG1     1  0.245727684437  0.251040000000
    HP   OLG2     1  0.272454645982  0.251040000000
    HP   OLG3     1  0.272454645982  0.251040000000
    HP   OLG4     1  0.268000152391  0.229167118060
    HP   OLG5     1  0.268000152391  0.229167118060
    HP   OLG6     1  0.278245487650  0.317625956320
    HP   OLG7     1  0.268000152391  0.229167118060
    HP   OLG8     1  0.268000152391  0.229167118060
    HP     OM     1  0.272454645982  0.251040000000
    HP    ON1     1  0.272454645982  0.251040000000
    HP   ON1C     1  0.272454645982  0.251040000000
    HP    ON2     1  0.278690937009  0.282629122576
    HP   ON2B     1  0.278690937009  0.282629122576
    HP   ON2M     1  0.268000152391  0.229167118060
    HP    ON3     1  0.272454645982  0.251040000000
    HP    ON4     1  0.278690937009  0.282629122576
    HP    ON5     1  0.278690937009  0.282629122576
    HP    ON6     1  0.278690937009  0.282629122576
    HP   ON6B     1  0.278690937009  0.282629122576
    HP   OPER     1  0.270158799985  0.327187729922
    HP     OS     1  0.278690937009  0.282629122576
    HP   OSIA     1  0.278690937009  0.282629122576
    HP   OSIE     1  0.278690937009  0.282629122576
    HP   OSIH     1  0.278690937009  0.282629122576
    HP    OSL     1  0.268000152391  0.229167118060
    HP   OSLP     1  0.268000152391  0.229167118060
    HP    OST     1  0.271741927007  0.294370493087
    HP     OT     1  0.278530575239  0.282629122576
    HP     OX     1  0.272454645982  0.251040000000
    HP      P     1  0.312545088298  0.554281311971
    HP     P2     1  0.312545088298  0.554281311971
    HP     P3     1  0.312545088298  0.554281311971
    HP     P4     1  0.312545088298  0.554281311971
    HP     PB     1  0.279804560406  1.240469565286
    HP   PB2P     1  0.277621858547  0.354580114772
    HP     PC     1  0.312545088298  0.554281311971
    HP     PD     1  0.246574038220  1.797172899862
    HP   PD2P     1  0.203597084057  0.302465871556
    HP    PG0     1  0.312545088298  0.554281311971
    HP    PG1     1  0.312545088298  0.554281311971
    HP    PG2     1  0.312545088298  0.554281311971
    HP     PL     1  0.312545088298  0.554281311971
    HP   PM3P     1  0.268641599468  0.305317348344
    HP    POT     1  0.278134125310  0.213752857665
    HP   PR3P     1  0.268810870224  0.309418044826
    HP     PT     1  0.247732206553  2.023949185133
    HP   PT2P     1  0.192015400721  0.292670725232
    HP   PU3P     1  0.269755222866  0.310941863840
    HP   RA2P     1  0.307190787002  0.398184050148
    HP   RH3P     1  0.162099021766  0.259778896141
    HP    RUB     1  0.290272620344  0.280671252536
    HP      S     1  0.299181607526  0.486136869616
    HP     SC     1  0.308090594707  0.496822472922
    HP   SC3P     1  0.218724544291  0.272120875495
    HP  SEGD1     1  0.314772335093  0.572000392168
    HP  SG2D1     1  0.303636101117  0.544724021134
    HP  SG2P1     1  0.307529328515  0.575569994826
    HP  SG2P2     1  0.304045914527  0.570575502481
    HP SG2R50     1  0.299181607526  0.486136869616
    HP  SG301     1  0.296954360731  0.446728954065
    HP  SG302     1  0.316999581889  0.496822472922
    HP  SG311     1  0.299181607526  0.486136869616
    HP  SG3O1     1  0.308090594707  0.496822472922
    HP  SG3O2     1  0.299181607526  0.428732420048
    HP  SG3O3     1  0.299181607526  0.428732420048
    HP     SI     1  0.316999581889  0.561342505072
    HP   SIH3     1  0.316999581889  0.561342505072
    HP     SL     1  0.308090594707  0.496822472922
    HP     SM     1  0.296954360731  0.446728954065
    HP   SM2P     1  0.286397210921  0.358556838540
    HP   SM3P     1  0.260578966069  0.303765315624
    HP   SN2P     1  0.268712871365  0.314134541673
    HP    SOD     1  0.246685400559  0.156941834423
    HP     SP     1  0.316999581889  0.486136869616
    HP   SR2P     1  0.286343756997  0.346641306806
    HP     SS     1  0.316999581889  0.496822472922
    HP   TB3P     1  0.252409424824  0.298181559832
    HP   TI1P     1  0.293007679409  0.462156844649
    HP   TI3P     1  0.194848458644  0.259778896141
    HP   TL3P     1  0.198447689466  0.292491227684
    HP   TM3P     1  0.241148465026  0.291682121770
    HP    U3P     1  0.272561553828  0.315552386979
    HP    V2P     1  0.219330355419  0.290690156201
    HP    V3P     1  0.175720863166  0.254777773850
    HP    Y3P     1  0.246921488720  0.294905226485
    HP   YB2P     1  0.264347467647  0.328437337512
    HP   YB3P     1  0.236391065871  0.290238142001
    HP     ZN     1  0.218109824175  0.362345028943
  HPER      N     1  0.184816939078  0.008973680271
  HPER  NC2D1     1  0.158089977534  0.401315181871
  HPER  NG2S0     1  0.184816939078  0.008973680271
  HPER  NG2S1     1  0.158089977534  0.401315181871
  HPER    NH1     1  0.158089977534  0.401315181871
  HPER    NHL     1  0.158089977534  0.401315181871
  HPER      O     1  0.144726496762  0.310857403193
  HPER     OB     1  0.144726496762  0.310857403193
  HPER    OBL     1  0.144726496762  0.310857403193
  HPER  OC2D1     1  0.144726496762  0.310857403193
  HPER  OC2D3     1  0.144726496762  0.310857403193
  HPER  OC2D4     1  0.144726496762  0.310857403193
  HPER    OCA     1  0.144726496762  0.310857403193
  HPER  OG2D1     1  0.144726496762  0.310857403193
  HPER  OG2D3     1  0.144726496762  0.310857403193
  HPER   OLG1     1  0.144726496762  0.310857403193
   HR1      N     1  0.244997147489  0.008973680271
   HR1  NC2D1     1  0.218270185944  0.401315181871
   HR1  NG2S0     1  0.244997147489  0.008973680271
   HR1  NG2S1     1  0.218270185944  0.401315181871
   HR1    NH1     1  0.218270185944  0.401315181871
   HR1    NHL     1  0.218270185944  0.401315181871
   HR1      O     1  0.204906705172  0.310857403193
   HR1     OB     1  0.204906705172  0.310857403193
   HR1    OBL     1  0.204906705172  0.310857403193
   HR1  OC2D1     1  0.204906705172  0.310857403193
   HR1  OC2D3     1  0.204906705172  0.310857403193
   HR1  OC2D4     1  0.204906705172  0.310857403193
   HR1    OCA     1  0.204906705172  0.310857403193
   HR1  OG2D1     1  0.204906705172  0.310857403193
   HR1  OG2D3     1  0.204906705172  0.310857403193
   HR1   OLG1     1  0.204906705172  0.310857403193
   HR2      N     1  0.227179173126  0.008973680271
   HR2  NC2D1     1  0.200452211582  0.401315181871
   HR2  NG2S0     1  0.227179173126  0.008973680271
   HR2  NG2S1     1  0.200452211582  0.401315181871
   HR2    NH1     1  0.200452211582  0.401315181871
   HR2    NHL     1  0.200452211582  0.401315181871
   HR2      O     1  0.187088730809  0.310857403193
   HR2     OB     1  0.187088730809  0.310857403193
   HR2    OBL     1  0.187088730809  0.310857403193
   HR2  OC2D1     1  0.187088730809  0.310857403193
   HR2  OC2D3     1  0.187088730809  0.310857403193
   HR2  OC2D4     1  0.187088730809  0.310857403193
   HR2    OCA     1  0.187088730809  0.310857403193
   HR2  OG2D1     1  0.187088730809  0.310857403193
   HR2  OG2D3     1  0.187088730809  0.310857403193
   HR2   OLG1     1  0.187088730809  0.310857403193
   HR3      N     1  0.295600194679  0.003695208746
   HR3  NC2D1     1  0.268873233135  0.165254758963
   HR3  NG2S0     1  0.295600194679  0.003695208746
   HR3  NG2S1     1  0.268873233135  0.165254758963
   HR3    NH1     1  0.268873233135  0.165254758963
   HR3    NHL     1  0.268873233135  0.165254758963
   HR3      O     1  0.255509752363  0.128005785869
   HR3     OB     1  0.255509752363  0.128005785869
   HR3    OBL     1  0.255509752363  0.128005785869
   HR3  OC2D1     1  0.255509752363  0.128005785869
   HR3  OC2D3     1  0.255509752363  0.128005785869
   HR3  OC2D4     1  0.255509752363  0.128005785869
   HR3    OCA     1  0.255509752363  0.128005785869
   HR3  OG2D1     1  0.255509752363  0.128005785869
   HR3  OG2D3     1  0.255509752363  0.128005785869
   HR3   OLG1     1  0.255509752363  0.128005785869
  HRA3      N     1  0.284196691087  0.006481824928
  HRA3  NC2D1     1  0.257469729543  0.289876023155
  HRA3  NG2S0     1  0.284196691087  0.006481824928
  HRA3  NG2S1     1  0.257469729543  0.289876023155
  HRA3    NH1     1  0.257469729543  0.289876023155
  HRA3    NHL     1  0.257469729543  0.289876023155
  HRA3      O     1  0.244106248770  0.224537002029
  HRA3     OB     1  0.244106248770  0.224537002029
  HRA3    OBL     1  0.244106248770  0.224537002029
  HRA3  OC2D1     1  0.244106248770  0.224537002029
  HRA3  OC2D3     1  0.244106248770  0.224537002029
  HRA3  OC2D4     1  0.244106248770  0.224537002029
  HRA3    OCA     1  0.244106248770  0.224537002029
  HRA3  OG2D1     1  0.244106248770  0.224537002029
  HRA3  OG2D3     1  0.244106248770  0.224537002029
  HRA3   OLG1     1  0.244106248770  0.224537002029
  HRM1      N     1  0.242769900693  0.003969290919
  HRM1  NC2D1     1  0.216042939149  0.177512086349
  HRM1  NG2S0     1  0.242769900693  0.003969290919
  HRM1  NG2S1     1  0.216042939149  0.177512086349
  HRM1    NH1     1  0.216042939149  0.177512086349
  HRM1    NHL     1  0.216042939149  0.177512086349
  HRM1      O     1  0.202679458377  0.137500270836
  HRM1     OB     1  0.202679458377  0.137500270836
  HRM1    OBL     1  0.202679458377  0.137500270836
  HRM1  OC2D1     1  0.202679458377  0.137500270836
  HRM1  OC2D3     1  0.202679458377  0.137500270836
  HRM1  OC2D4     1  0.202679458377  0.137500270836
  HRM1    OCA     1  0.202679458377  0.137500270836
  HRM1  OG2D1     1  0.202679458377  0.137500270836
  HRM1  OG2D3     1  0.202679458377  0.137500270836
  HRM1   OLG1     1  0.202679458377  0.137500270836
  HRM2      N     1  0.242769900693  0.004184000000
  HRM2  NC2D1     1  0.216042939149  0.187114168357
  HRM2  NG2S0     1  0.242769900693  0.004184000000
  HRM2  NG2S1     1  0.216042939149  0.187114168357
  HRM2    NH1     1  0.216042939149  0.187114168357
  HRM2    NHL     1  0.216042939149  0.187114168357
  HRM2      O     1  0.202679458377  0.144938011577
  HRM2     OB     1  0.202679458377  0.144938011577
  HRM2    OBL     1  0.202679458377  0.144938011577
  HRM2  OC2D1     1  0.202679458377  0.144938011577
  HRM2  OC2D3     1  0.202679458377  0.144938011577
  HRM2  OC2D4     1  0.202679458377  0.144938011577
  HRM2    OCA     1  0.202679458377  0.144938011577
  HRM2  OG2D1     1  0.202679458377  0.144938011577
  HRM2  OG2D3     1  0.202679458377  0.144938011577
  HRM2   OLG1     1  0.202679458377  0.144938011577
  HRP2      N     1  0.184816939078  0.008973680271
  HRP2  NC2D1     1  0.158089977534  0.401315181871
  HRP2  NG2S0     1  0.184816939078  0.008973680271
  HRP2  NG2S1     1  0.158089977534  0.401315181871
  HRP2    NH1     1  0.158089977534  0.401315181871
  HRP2    NHL     1  0.158089977534  0.401315181871
  HRP2      O     1  0.144726496762  0.310857403193
  HRP2     OB     1  0.144726496762  0.310857403193
  HRP2    OBL     1  0.144726496762  0.310857403193
  HRP2  OC2D1     1  0.144726496762  0.310857403193
  HRP2  OC2D3     1  0.144726496762  0.310857403193
  HRP2  OC2D4     1  0.144726496762  0.310857403193
  HRP2    OCA     1  0.144726496762  0.310857403193
  HRP2  OG2D1     1  0.144726496762  0.310857403193
  HRP2  OG2D3     1  0.144726496762  0.310857403193
  HRP2   OLG1     1  0.144726496762  0.310857403193
    HS      N     1  0.204906705172  0.013230969730
    HS  NC2D1     1  0.178179743628  0.591706954497
    HS  NG2S0     1  0.204906705172  0.013230969730
    HS  NG2S1     1  0.178179743628  0.591706954497
    HS    NH1     1  0.178179743628  0.591706954497
    HS    NHL     1  0.178179743628  0.591706954497
    HS      O     1  0.164816262856  0.458334236120
    HS     OB     1  0.164816262856  0.458334236120
    HS    OBL     1  0.164816262856  0.458334236120
    HS  OC2D1     1  0.164816262856  0.458334236120
    HS  OC2D3     1  0.164816262856  0.458334236120
    HS  OC2D4     1  0.164816262856  0.458334236120
    HS    OCA     1  0.164816262856  0.458334236120
    HS  OG2D1     1  0.164816262856  0.458334236120
    HS  OG2D3     1  0.164816262856  0.458334236120
    HS   OLG1     1  0.164816262856  0.458334236120
  HSIA      N     1  0.282414893650  0.006205874894
  HSIA  NC2D1     1  0.255687932106  0.277535162457
  HSIA  NG2S0     1  0.282414893650  0.006205874894
  HSIA  NG2S1     1  0.255687932106  0.277535162457
  HSIA    NH1     1  0.255687932106  0.277535162457
  HSIA    NHL     1  0.255687932106  0.277535162457
  HSIA      O     1  0.242324451334  0.214977812437
  HSIA     OB     1  0.242324451334  0.214977812437
  HSIA    OBL     1  0.242324451334  0.214977812437
  HSIA  OC2D1     1  0.242324451334  0.214977812437
  HSIA  OC2D3     1  0.242324451334  0.214977812437
  HSIA  OC2D4     1  0.242324451334  0.214977812437
  HSIA    OCA     1  0.242324451334  0.214977812437
  HSIA  OG2D1     1  0.242324451334  0.214977812437
  HSIA  OG2D3     1  0.242324451334  0.214977812437
  HSIA   OLG1     1  0.242324451334  0.214977812437
  HSIO      N     1  0.184816939078  0.008973680271
  HSIO  NC2D1     1  0.158089977534  0.401315181871
  HSIO  NG2S0     1  0.184816939078  0.008973680271
  HSIO  NG2S1     1  0.158089977534  0.401315181871
  HSIO    NH1     1  0.158089977534  0.401315181871
  HSIO    NHL     1  0.158089977534  0.401315181871
  HSIO      O     1  0.144726496762  0.310857403193
  HSIO     OB     1  0.144726496762  0.310857403193
  HSIO    OBL     1  0.144726496762  0.310857403193
  HSIO  OC2D1     1  0.144726496762  0.310857403193
  HSIO  OC2D3     1  0.144726496762  0.310857403193
  HSIO  OC2D4     1  0.144726496762  0.310857403193
  HSIO    OCA     1  0.144726496762  0.310857403193
  HSIO  OG2D1     1  0.144726496762  0.310857403193
  HSIO  OG2D3     1  0.144726496762  0.310857403193
  HSIO   OLG1     1  0.144726496762  0.310857403193
    HT      N     1  0.184816939078  0.008973680271
    HT  NC2D1     1  0.158089977534  0.401315181871
    HT  NG2S0     1  0.184816939078  0.008973680271
    HT  NG2S1     1  0.158089977534  0.401315181871
    HT    NH1     1  0.158089977534  0.401315181871
    HT    NHL     1  0.158089977534  0.401315181871
    HT      O     1  0.144726496762  0.310857403193
    HT     OB     1  0.144726496762  0.310857403193
    HT    OBL     1  0.144726496762  0.310857403193
    HT  OC2D1     1  0.144726496762  0.310857403193
    HT  OC2D3     1  0.144726496762  0.310857403193
    HT  OC2D4     1  0.144726496762  0.310857403193
    HT    OCA     1  0.144726496762  0.310857403193
    HT  OG2D1     1  0.144726496762  0.310857403193
    HT  OG2D3     1  0.144726496762  0.310857403193
    HT   OLG1     1  0.144726496762  0.310857403193
    HX      N     1  0.184816939078  0.008973680271
    HX  NC2D1     1  0.158089977534  0.401315181871
    HX  NG2S0     1  0.184816939078  0.008973680271
    HX  NG2S1     1  0.158089977534  0.401315181871
    HX    NH1     1  0.158089977534  0.401315181871
    HX    NHL     1  0.158089977534  0.401315181871
    HX      O     1  0.144726496762  0.310857403193
    HX     OB     1  0.144726496762  0.310857403193
    HX    OBL     1  0.144726496762  0.310857403193
    HX  OC2D1     1  0.144726496762  0.310857403193
    HX  OC2D3     1  0.144726496762  0.310857403193
    HX  OC2D4     1  0.144726496762  0.310857403193
    HX    OCA     1  0.144726496762  0.310857403193
    HX  OG2D1     1  0.144726496762  0.310857403193
    HX  OG2D3     1  0.144726496762  0.310857403193
    HX   OLG1     1  0.144726496762  0.310857403193
  IGR1      N     1  0.364377575719  0.030171253073
  IGR1  NC2D1     1  0.337650614175  1.349299456755
  IGR1  NG2S0     1  0.364377575719  0.030171253073
  IGR1  NG2S1     1  0.337650614175  1.349299456755
  IGR1    NH1     1  0.337650614175  1.349299456755
  IGR1    NHL     1  0.337650614175  1.349299456755
  IGR1      O     1  0.324287133403  1.045162865012
  IGR1     OB     1  0.324287133403  1.045162865012
  IGR1    OBL     1  0.324287133403  1.045162865012
  IGR1  OC2D1     1  0.324287133403  1.045162865012
  IGR1  OC2D3     1  0.324287133403  1.045162865012
  IGR1  OC2D4     1  0.324287133403  1.045162865012
  IGR1    OCA     1  0.324287133403  1.045162865012
  IGR1  OG2D1     1  0.324287133403  1.045162865012
  IGR1  OG2D3     1  0.324287133403  1.045162865012
  IGR1   OLG1     1  0.324287133403  1.045162865012
  IN3P      N     1  0.241994818808  0.016058059001
  IN3P  NC2D1     1  0.215267857264  0.718138230259
  IN3P  NG2S0     1  0.241994818808  0.016058059001
  IN3P  NG2S1     1  0.215267857264  0.718138230259
  IN3P    NH1     1  0.215267857264  0.718138230259
  IN3P    NHL     1  0.215267857264  0.718138230259
  IN3P      O     1  0.201904376492  0.556267481214
  IN3P     OB     1  0.201904376492  0.556267481214
  IN3P    OBL     1  0.201904376492  0.556267481214
  IN3P  OC2D1     1  0.201904376492  0.556267481214
  IN3P  OC2D3     1  0.201904376492  0.556267481214
  IN3P  OC2D4     1  0.201904376492  0.556267481214
  IN3P    OCA     1  0.201904376492  0.556267481214
  IN3P  OG2D1     1  0.201904376492  0.556267481214
  IN3P  OG2D3     1  0.201904376492  0.556267481214
  IN3P   OLG1     1  0.201904376492  0.556267481214
  LA3P      N     1  0.322745878621  0.018218425557
  LA3P  NC2D1     1  0.296018917076  0.814752759750
  LA3P  NG2S0     1  0.322745878621  0.018218425557
  LA3P  NG2S1     1  0.296018917076  0.814752759750
  LA3P    NH1     1  0.296018917076  0.814752759750
  LA3P    NHL     1  0.296018917076  0.814752759750
  LA3P      O     1  0.282655436304  0.631104773958
  LA3P     OB     1  0.282655436304  0.631104773958
  LA3P    OBL     1  0.282655436304  0.631104773958
  LA3P  OC2D1     1  0.282655436304  0.631104773958
  LA3P  OC2D3     1  0.282655436304  0.631104773958
  LA3P  OC2D4     1  0.282655436304  0.631104773958
  LA3P    OCA     1  0.282655436304  0.631104773958
  LA3P  OG2D1     1  0.282655436304  0.631104773958
  LA3P  OG2D3     1  0.282655436304  0.631104773958
  LA3P   OLG1     1  0.282655436304  0.631104773958
   LIT      N     1  0.280410371535  0.002019619877
   LIT  NC2D1     1  0.253683409990  0.090320146678
   LIT  NG2S0     1  0.280410371535  0.002019619877
   LIT  NG2S1     1  0.253683409990  0.090320146678
   LIT    NH1     1  0.253683409990  0.090320146678
   LIT    NHL     1  0.253683409990  0.090320146678
   LIT      O     1  0.240319929218  0.069961684782
   LIT     OB     1  0.240319929218  0.069961684782
   LIT    OBL     1  0.240319929218  0.069961684782
   LIT  OC2D1     1  0.240319929218  0.069961684782
   LIT  OC2D3     1  0.240319929218  0.069961684782
   LIT  OC2D4     1  0.240319929218  0.069961684782
   LIT    OCA     1  0.240319929218  0.069961684782
   LIT  OG2D1     1  0.240319929218  0.069961684782
   LIT  OG2D3     1  0.240319929218  0.069961684782
   LIT   OLG1     1  0.240319929218  0.069961684782
   LIT    ON3     1  0.283083067689  0.069872800000
   LPH      N     1  0.164816262856  0.000000000000
   LPH  NC2D1     1  0.138089301312  0.000000000000
   LPH  NG2S0     1  0.164816262856  0.000000000000
   LPH  NG2S1     1  0.138089301312  0.000000000000
   LPH    NH1     1  0.138089301312  0.000000000000
   LPH    NHL     1  0.138089301312  0.000000000000
   LPH      O     1  0.124725820540  0.000000000000
   LPH     OB     1  0.124725820540  0.000000000000
   LPH    OBL     1  0.124725820540  0.000000000000
   LPH  OC2D1     1  0.124725820540  0.000000000000
   LPH  OC2D3     1  0.124725820540  0.000000000000
   LPH  OC2D4     1  0.124725820540  0.000000000000
   LPH    OCA     1  0.124725820540  0.000000000000
   LPH  OG2D1     1  0.124725820540  0.000000000000
   LPH  OG2D3     1  0.124725820540  0.000000000000
   LPH   OLG1     1  0.124725820540  0.000000000000
  LU3P      N     1  0.285194497651  0.016673121882
  LU3P  NC2D1     1  0.258467536107  0.745644678490
  LU3P  NG2S0     1  0.285194497651  0.016673121882
  LU3P  NG2S1     1  0.258467536107  0.745644678490
  LU3P    NH1     1  0.258467536107  0.745644678490
  LU3P    NHL     1  0.258467536107  0.745644678490
  LU3P      O     1  0.245104055335  0.577573884396
  LU3P     OB     1  0.245104055335  0.577573884396
  LU3P    OBL     1  0.245104055335  0.577573884396
  LU3P  OC2D1     1  0.245104055335  0.577573884396
  LU3P  OC2D3     1  0.245104055335  0.577573884396
  LU3P  OC2D4     1  0.245104055335  0.577573884396
  LU3P    OCA     1  0.245104055335  0.577573884396
  LU3P  OG2D1     1  0.245104055335  0.577573884396
  LU3P  OG2D3     1  0.245104055335  0.577573884396
  LU3P   OLG1     1  0.245104055335  0.577573884396
    MG      N     1  0.270387760956  0.005124332542
    MG  NC2D1     1  0.243660799411  0.229167118060
    MG  NG2S0     1  0.270387760956  0.005124332542
    MG  NG2S1     1  0.243660799411  0.229167118060
    MG    NH1     1  0.243660799411  0.229167118060
    MG    NHL     1  0.243660799411  0.229167118060
    MG      O     1  0.230297318639  0.177512086349
    MG     OB     1  0.230297318639  0.177512086349
    MG    OBL     1  0.230297318639  0.177512086349
    MG  OC2D1     1  0.230297318639  0.177512086349
    MG  OC2D3     1  0.230297318639  0.177512086349
    MG  OC2D4     1  0.230297318639  0.177512086349
    MG    OCA     1  0.230297318639  0.177512086349
    MG  OG2D1     1  0.230297318639  0.177512086349
    MG  OG2D3     1  0.230297318639  0.177512086349
    MG   OLG1     1  0.230297318639  0.177512086349
  MN2P      N     1  0.272053741559  0.017174797629
  MN2P  NC2D1     1  0.245326780014  0.768080299969
  MN2P  NG2S0     1  0.272053741559  0.017174797629
  MN2P  NG2S1     1  0.245326780014  0.768080299969
  MN2P    NH1     1  0.245326780014  0.768080299969
  MN2P    NHL     1  0.245326780014  0.768080299969
  MN2P      O     1  0.231963299242  0.594952442066
  MN2P     OB     1  0.231963299242  0.594952442066
  MN2P    OBL     1  0.231963299242  0.594952442066
  MN2P  OC2D1     1  0.231963299242  0.594952442066
  MN2P  OC2D3     1  0.231963299242  0.594952442066
  MN2P  OC2D4     1  0.231963299242  0.594952442066
  MN2P    OCA     1  0.231963299242  0.594952442066
  MN2P  OG2D1     1  0.231963299242  0.594952442066
  MN2P  OG2D3     1  0.231963299242  0.594952442066
  MN2P   OLG1     1  0.231963299242  0.594952442066
  MN3P      N     1  0.199062409581  0.014804503272
  MN3P  NC2D1     1  0.172335448037  0.662077513770
  MN3P  NG2S0     1  0.199062409581  0.014804503272
  MN3P  NG2S1     1  0.172335448037  0.662077513770
  MN3P    NH1     1  0.172335448037  0.662077513770
  MN3P    NHL     1  0.172335448037  0.662077513770
  MN3P      O     1  0.158971967265  0.512843036946
  MN3P     OB     1  0.158971967265  0.512843036946
  MN3P    OBL     1  0.158971967265  0.512843036946
  MN3P  OC2D1     1  0.158971967265  0.512843036946
  MN3P  OC2D3     1  0.158971967265  0.512843036946
  MN3P  OC2D4     1  0.158971967265  0.512843036946
  MN3P    OCA     1  0.158971967265  0.512843036946
  MN3P  OG2D1     1  0.158971967265  0.512843036946
  MN3P  OG2D3     1  0.158971967265  0.512843036946
  MN3P   OLG1     1  0.158971967265  0.512843036946
     N      N     1  0.329632525712  0.000418400000
     N     NC     1  0.329632525712  0.032409124641
     N    NC2     1  0.329632525712  0.018711416836
     N  NC2D1     1  0.302905564168  0.018711416836
     N  NC311     1  0.342996006484  0.008875604317
     N   ND3P     1  0.309132946208  0.017711717577
     N     NE     1  0.301123766731  0.012269896560
     N  NG1T1     1  0.324287133403  0.017751208635
     N  NG2D1     1  0.329632525712  0.018711416836
     N  NG2O1     1  0.329632525712  0.018711416836
     N  NG2P1     1  0.329632525712  0.018711416836
     N NG2R43     1  0.329632525712  0.018711416836
     N NG2R50     1  0.329632525712  0.018711416836
     N NG2R51     1  0.329632525712  0.018711416836
     N NG2R52     1  0.329632525712  0.018711416836
     N NG2R53     1  0.329632525712  0.018711416836
     N NG2R57     1  0.329632525712  0.018711416836
     N NG2R60     1  0.333196120584  0.010248665084
     N NG2R61     1  0.329632525712  0.018711416836
     N NG2R62     1  0.348341398793  0.009355708418
     N NG2R67     1  0.329632525712  0.018711416836
     N NG2RC0     1  0.329632525712  0.018711416836
     N  NG2S0     1  0.329632525712  0.000418400000
     N  NG2S1     1  0.302905564168  0.018711416836
     N  NG2S2     1  0.329632525712  0.018711416836
     N  NG2S3     1  0.329632525712  0.018711416836
     N  NG301     1  0.342996006484  0.007827547253
     N  NG311     1  0.342996006484  0.008875604317
     N  NG321     1  0.342105107766  0.010248665084
     N  NG331     1  0.341214209048  0.011069823485
     N NG3C51     1  0.329632525712  0.018711416836
     N  NG3N1     1  0.347450500075  0.010248665084
     N  NG3P0     1  0.329632525712  0.018711416836
     N  NG3P1     1  0.329632525712  0.018711416836
     N  NG3P2     1  0.329632525712  0.018711416836
     N  NG3P3     1  0.329632525712  0.018711416836
     N    NH1     1  0.302905564168  0.018711416836
     N    NH2     1  0.329632525712  0.018711416836
     N    NH3     1  0.329632525712  0.018711416836
     N   NH3L     1  0.329632525712  0.018711416836
     N    NHL     1  0.302905564168  0.018711416836
     N     NI     1  0.278494939291  0.099452544663
     N   NI2P     1  0.234333089832  0.015844051724
     N    NN1     1  0.329632525712  0.018711416836
     N   NN1C     1  0.329632525712  0.018711416836
     N    NN2     1  0.329632525712  0.018711416836
     N   NN2B     1  0.329632525712  0.018711416836
     N   NN2C     1  0.329632525712  0.018711416836
     N   NN2G     1  0.329632525712  0.018711416836
     N   NN2U     1  0.329632525712  0.018711416836
     N    NN3     1  0.329632525712  0.018711416836
     N   NN3A     1  0.329632525712  0.018711416836
     N   NN3G     1  0.329632525712  0.018711416836
     N   NN3I     1  0.329632525712  0.018711416836
     N    NN4     1  0.329632525712  0.018711416836
     N    NN6     1  0.329632525712  0.018711416836
     N    NNG     1  0.329632525712  0.018711416836
     N     NP     1  0.329632525712  0.018711416836
     N    NPH     1  0.329632525712  0.018711416836
     N    NR1     1  0.329632525712  0.018711416836
     N    NR2     1  0.329632525712  0.018711416836
     N    NR3     1  0.329632525712  0.018711416836
     N   NRC4     1  0.329632525712  0.018711416836
     N   NRN1     1  0.342996006484  0.028067125254
     N   NRN2     1  0.342105107766  0.010248665084
     N    NS1     1  0.329632525712  0.018711416836
     N    NS2     1  0.329632525712  0.018711416836
     N    NTL     1  0.329632525712  0.018711416836
     N     NY     1  0.329632525712  0.018711416836
     N      O     1  0.289542083396  0.014493801158
     N    O2L     1  0.316269044940  0.014493801158
     N    OAL     1  0.322505335967  0.016317600000
     N     OB     1  0.289542083396  0.014493801158
     N    OBL     1  0.289542083396  0.014493801158
     N     OC     1  0.316269044940  0.014493801158
     N  OC2D1     1  0.289542083396  0.014493801158
     N  OC2D2     1  0.316269044940  0.014493801158
     N  OC2D3     1  0.289542083396  0.014493801158
     N  OC2D4     1  0.289542083396  0.014493801158
     N  OC2DP     1  0.316269044940  0.014493801158
     N  OC301     1  0.311814551349  0.013230969730
     N  OC302     1  0.311814551349  0.013230969730
     N  OC303     1  0.311814551349  0.013230969730
     N OC305A     1  0.311814551349  0.013230969730
     N  OC30A     1  0.311814551349  0.013230969730
     N  OC30P     1  0.322505335967  0.016317600000
     N  OC311     1  0.322059886608  0.018338143138
     N OC311M     1  0.322059886608  0.018338143138
     N  OC312     1  0.322505335967  0.016317600000
     N OC3C51     1  0.311814551349  0.013230969730
     N OC3C5M     1  0.311814551349  0.013230969730
     N OC3C61     1  0.311814551349  0.013230969730
     N    OCA     1  0.289542083396  0.014493801158
     N    OCL     1  0.316269044940  0.014493801158
     N  OG2D1     1  0.289542083396  0.014493801158
     N  OG2D2     1  0.316269044940  0.014493801158
     N  OG2D3     1  0.289542083396  0.014493801158
     N  OG2D4     1  0.316269044940  0.014493801158
     N  OG2D5     1  0.315556325965  0.016995488342
     N  OG2N1     1  0.316269044940  0.014493801158
     N  OG2P1     1  0.316269044940  0.014493801158
     N OG2R50     1  0.316269044940  0.014493801158
     N  OG2S1     1  0.314451611555  0.015783166060
     N  OG301     1  0.311814551349  0.013230969730
     N  OG302     1  0.311814551349  0.013230969730
     N  OG303     1  0.311814551349  0.013230969730
     N  OG304     1  0.311814551349  0.013230969730
     N  OG311     1  0.322059886608  0.018338143138
     N  OG312     1  0.320723538531  0.014493801158
     N OG3C31     1  0.311814551349  0.013230969730
     N OG3C51     1  0.311814551349  0.013230969730
     N OG3C61     1  0.311814551349  0.013230969730
     N OG3R60     1  0.311814551349  0.013230969730
     N    OH1     1  0.322505335967  0.016317600000
     N    OHL     1  0.322505335967  0.016317600000
     N   OLG1     1  0.289542083396  0.014493801158
     N   OLG2     1  0.316269044940  0.014493801158
     N   OLG3     1  0.316269044940  0.014493801158
     N   OLG4     1  0.311814551349  0.013230969730
     N   OLG5     1  0.311814551349  0.013230969730
     N   OLG6     1  0.322059886608  0.018338143138
     N   OLG7     1  0.311814551349  0.013230969730
     N   OLG8     1  0.311814551349  0.013230969730
     N     OM     1  0.316269044940  0.014493801158
     N    ON1     1  0.316269044940  0.014493801158
     N   ON1C     1  0.316269044940  0.014493801158
     N    ON2     1  0.322505335967  0.016317600000
     N   ON2B     1  0.322505335967  0.016317600000
     N   ON2M     1  0.311814551349  0.013230969730
     N    ON3     1  0.316269044940  0.014493801158
     N    ON4     1  0.322505335967  0.016317600000
     N    ON5     1  0.322505335967  0.016317600000
     N    ON6     1  0.322505335967  0.016317600000
     N   ON6B     1  0.322505335967  0.016317600000
     N   OPER     1  0.313973198943  0.018890192395
     N     OS     1  0.322505335967  0.016317600000
     N   OSIA     1  0.322505335967  0.016317600000
     N   OSIE     1  0.322505335967  0.016317600000
     N   OSIH     1  0.322505335967  0.016317600000
     N    OSL     1  0.311814551349  0.013230969730
     N   OSLP     1  0.311814551349  0.013230969730
     N    OST     1  0.315556325965  0.016995488342
     N     OT     1  0.322344974198  0.016317600000
     N     OX     1  0.316269044940  0.014493801158
     N      P     1  0.356359487256  0.032001446467
     N     P2     1  0.356359487256  0.032001446467
     N     P3     1  0.356359487256  0.032001446467
     N     P4     1  0.356359487256  0.032001446467
     N     PB     1  0.323618959364  0.071618543744
     N   PB2P     1  0.321436257505  0.020471692471
     N     PC     1  0.356359487256  0.032001446467
     N     PD     1  0.290388437178  0.103759825752
     N   PD2P     1  0.247411483015  0.017462875236
     N    PG0     1  0.356359487256  0.032001446467
     N    PG1     1  0.356359487256  0.032001446467
     N    PG2     1  0.356359487256  0.032001446467
     N     PL     1  0.356359487256  0.032001446467
     N   PM3P     1  0.312455998426  0.017627505325
     N    POT     1  0.321948524268  0.012341026991
     N   PR3P     1  0.312625269183  0.017864259147
     N     PT     1  0.291546605511  0.116852760686
     N   PT2P     1  0.235829799679  0.016897352200
     N   PU3P     1  0.313569621824  0.017952236879
     N   RA2P     1  0.351005185960  0.022989166854
     N   RH3P     1  0.205913420724  0.014998341562
     N    RUB     1  0.334087019303  0.016204562321
     N      S     1  0.342996006484  0.028067125254
     N     SC     1  0.351904993665  0.028684058848
     N   SC3P     1  0.262538943249  0.015710906072
     N  SEGD1     1  0.358586734051  0.033024458039
     N  SG2D1     1  0.347450500075  0.031449656024
     N  SG2P1     1  0.351343727473  0.033230549145
     N  SG2P2     1  0.347860313485  0.032942191995
     N SG2R50     1  0.342996006484  0.028067125254
     N  SG301     1  0.340768759689  0.025791908188
     N  SG302     1  0.360813980847  0.028684058848
     N  SG311     1  0.342996006484  0.028067125254
     N  SG3O1     1  0.351904993665  0.028684058848
     N  SG3O2     1  0.342996006484  0.024752877812
     N  SG3O3     1  0.342996006484  0.024752877812
     N     SI     1  0.360813980847  0.032409124641
     N   SIH3     1  0.360813980847  0.032409124641
     N     SL     1  0.351904993665  0.028684058848
     N     SM     1  0.340768759689  0.025791908188
     N   SM2P     1  0.330211609879  0.020701288725
     N   SM3P     1  0.304393365027  0.017537898675
     N   SN2P     1  0.312527270324  0.018136566220
     N    SOD     1  0.290499799518  0.009061041035
     N     SP     1  0.360813980847  0.028067125254
     N   SR2P     1  0.330158155956  0.020013345180
     N     SS     1  0.360813980847  0.028684058848
     N   TB3P     1  0.296223823782  0.017215520384
     N   TI1P     1  0.336822078367  0.026682637867
     N   TI3P     1  0.238662857603  0.014998341562
     N   TL3P     1  0.242262088424  0.016886988904
     N   TM3P     1  0.284962863984  0.016840275152
     N    U3P     1  0.316375952786  0.018218425557
     N    V2P     1  0.263144754377  0.016783003993
     N    V3P     1  0.219535262124  0.014709601632
     N    Y3P     1  0.290735887678  0.017026361190
     N   YB2P     1  0.308161866605  0.018962338522
     N   YB3P     1  0.280205464829  0.016756906941
     N     ZN     1  0.261924223133  0.020920000000
    NC  NC2D1     1  0.302905564168  1.449380115774
    NC  NG2S0     1  0.329632525712  0.032409124641
    NC  NG2S1     1  0.302905564168  1.449380115774
    NC    NH1     1  0.302905564168  1.449380115774
    NC    NHL     1  0.302905564168  1.449380115774
    NC      O     1  0.289542083396  1.122685010143
    NC     OB     1  0.289542083396  1.122685010143
    NC    OBL     1  0.289542083396  1.122685010143
    NC  OC2D1     1  0.289542083396  1.122685010143
    NC  OC2D3     1  0.289542083396  1.122685010143
    NC  OC2D4     1  0.289542083396  1.122685010143
    NC    OCA     1  0.289542083396  1.122685010143
    NC  OG2D1     1  0.289542083396  1.122685010143
    NC  OG2D3     1  0.289542083396  1.122685010143
    NC   OLG1     1  0.289542083396  1.122685010143
   NC2  NC2D1     1  0.302905564168  0.836800000000
   NC2  NG2S0     1  0.329632525712  0.018711416836
   NC2  NG2S1     1  0.302905564168  0.836800000000
   NC2    NH1     1  0.302905564168  0.836800000000
   NC2    NHL     1  0.302905564168  0.836800000000
   NC2      O     1  0.289542083396  0.648182492821
   NC2     OB     1  0.289542083396  0.648182492821
   NC2    OBL     1  0.289542083396  0.648182492821
   NC2     OC     1  0.324019863788  0.648181096000
   NC2  OC2D1     1  0.289542083396  0.648182492821
   NC2  OC2D3     1  0.289542083396  0.648182492821
   NC2  OC2D4     1  0.289542083396  0.648182492821
   NC2    OCA     1  0.289542083396  0.648182492821
   NC2  OG2D1     1  0.289542083396  0.648182492821
   NC2  OG2D3     1  0.289542083396  0.648182492821
   NC2   OLG1     1  0.289542083396  0.648182492821
 NC2D1  NC2D1     1  0.276178602624  0.836800000000
 NC2D1  NC311     1  0.316269044940  0.396929091904
 NC2D1   ND3P     1  0.282405984663  0.792092090000
 NC2D1     NE     1  0.274396805187  0.548726455714
 NC2D1  NG1T1     1  0.297560171859  0.793858183809
 NC2D1  NG2D1     1  0.302905564168  0.836800000000
 NC2D1  NG2O1     1  0.302905564168  0.836800000000
 NC2D1  NG2P1     1  0.302905564168  0.836800000000
 NC2D1 NG2R43     1  0.302905564168  0.836800000000
 NC2D1 NG2R50     1  0.302905564168  0.836800000000
 NC2D1 NG2R51     1  0.302905564168  0.836800000000
 NC2D1 NG2R52     1  0.302905564168  0.836800000000
 NC2D1 NG2R53     1  0.302905564168  0.836800000000
 NC2D1 NG2R57     1  0.302905564168  0.836800000000
 NC2D1 NG2R60     1  0.306469159040  0.458334236120
 NC2D1 NG2R61     1  0.302905564168  0.836800000000
 NC2D1 NG2R62     1  0.321614437249  0.418400000000
 NC2D1 NG2R67     1  0.302905564168  0.836800000000
 NC2D1 NG2RC0     1  0.302905564168  0.836800000000
 NC2D1  NG2S0     1  0.302905564168  0.018711416836
 NC2D1  NG2S1     1  0.276178602624  0.836800000000
 NC2D1  NG2S2     1  0.302905564168  0.836800000000
 NC2D1  NG2S3     1  0.302905564168  0.836800000000
 NC2D1  NG301     1  0.316269044940  0.350058555102
 NC2D1  NG311     1  0.316269044940  0.396929091904
 NC2D1  NG321     1  0.315378146222  0.458334236120
 NC2D1  NG331     1  0.314487247504  0.495057556250
 NC2D1 NG3C51     1  0.302905564168  0.836800000000
 NC2D1  NG3N1     1  0.320723538531  0.458334236120
 NC2D1  NG3P0     1  0.302905564168  0.836800000000
 NC2D1  NG3P1     1  0.302905564168  0.836800000000
 NC2D1  NG3P2     1  0.302905564168  0.836800000000
 NC2D1  NG3P3     1  0.302905564168  0.836800000000
 NC2D1    NH1     1  0.276178602624  0.836800000000
 NC2D1    NH2     1  0.302905564168  0.836800000000
 NC2D1    NH3     1  0.302905564168  0.836800000000
 NC2D1   NH3L     1  0.302905564168  0.836800000000
 NC2D1    NHL     1  0.276178602624  0.836800000000
 NC2D1     NI     1  0.251767977746  4.447653008048
 NC2D1   NI2P     1  0.207606128288  0.708567533888
 NC2D1    NN1     1  0.302905564168  0.836800000000
 NC2D1   NN1C     1  0.302905564168  0.836800000000
 NC2D1    NN2     1  0.302905564168  0.836800000000
 NC2D1   NN2B     1  0.302905564168  0.836800000000
 NC2D1   NN2C     1  0.302905564168  0.836800000000
 NC2D1   NN2G     1  0.302905564168  0.836800000000
 NC2D1   NN2U     1  0.302905564168  0.836800000000
 NC2D1    NN3     1  0.302905564168  0.836800000000
 NC2D1   NN3A     1  0.302905564168  0.836800000000
 NC2D1   NN3G     1  0.302905564168  0.836800000000
 NC2D1   NN3I     1  0.302905564168  0.836800000000
 NC2D1    NN4     1  0.302905564168  0.836800000000
 NC2D1    NN6     1  0.302905564168  0.836800000000
 NC2D1    NNG     1  0.302905564168  0.836800000000
 NC2D1     NP     1  0.302905564168  0.836800000000
 NC2D1    NPH     1  0.302905564168  0.836800000000
 NC2D1    NR1     1  0.302905564168  0.836800000000
 NC2D1    NR2     1  0.302905564168  0.836800000000
 NC2D1    NR3     1  0.302905564168  0.836800000000
 NC2D1   NRC4     1  0.302905564168  0.836800000000
 NC2D1   NRN1     1  0.316269044940  1.255200000000
 NC2D1   NRN2     1  0.315378146222  0.458334236120
 NC2D1    NS1     1  0.302905564168  0.836800000000
 NC2D1    NS2     1  0.302905564168  0.836800000000
 NC2D1    NTL     1  0.302905564168  0.836800000000
 NC2D1     NY     1  0.302905564168  0.836800000000
 NC2D1      O     1  0.262815121851  0.648182492821
 NC2D1    O2L     1  0.289542083396  0.648182492821
 NC2D1    OAL     1  0.295778374423  0.729745256593
 NC2D1     OB     1  0.262815121851  0.648182492821
 NC2D1    OBL     1  0.262815121851  0.648182492821
 NC2D1     OC     1  0.289542083396  0.648182492821
 NC2D1  OC2D1     1  0.262815121851  0.648182492821
 NC2D1  OC2D2     1  0.289542083396  0.648182492821
 NC2D1  OC2D3     1  0.262815121851  0.648182492821
 NC2D1  OC2D4     1  0.262815121851  0.648182492821
 NC2D1  OC2DP     1  0.289542083396  0.648182492821
 NC2D1  OC301     1  0.285087589805  0.591706954497
 NC2D1  OC302     1  0.285087589805  0.591706954497
 NC2D1  OC303     1  0.285087589805  0.591706954497
 NC2D1 OC305A     1  0.285087589805  0.591706954497
 NC2D1  OC30A     1  0.285087589805  0.591706954497
 NC2D1  OC30P     1  0.295778374423  0.729745256593
 NC2D1  OC311     1  0.295332925064  0.820106692766
 NC2D1 OC311M     1  0.295332925064  0.820106692766
 NC2D1  OC312     1  0.295778374423  0.729745256593
 NC2D1 OC3C51     1  0.285087589805  0.591706954497
 NC2D1 OC3C5M     1  0.285087589805  0.591706954497
 NC2D1 OC3C61     1  0.285087589805  0.591706954497
 NC2D1    OCA     1  0.262815121851  0.648182492821
 NC2D1    OCL     1  0.289542083396  0.648182492821
 NC2D1  OG2D1     1  0.262815121851  0.648182492821
 NC2D1  OG2D2     1  0.289542083396  0.648182492821
 NC2D1  OG2D3     1  0.262815121851  0.648182492821
 NC2D1  OG2D4     1  0.289542083396  0.648182492821
 NC2D1  OG2D5     1  0.288829364421  0.760061344893
 NC2D1  OG2N1     1  0.289542083396  0.648182492821
 NC2D1  OG2P1     1  0.289542083396  0.648182492821
 NC2D1 OG2R50     1  0.289542083396  0.648182492821
 NC2D1  OG2S1     1  0.287724650011  0.705844644210
 NC2D1  OG301     1  0.285087589805  0.591706954497
 NC2D1  OG302     1  0.285087589805  0.591706954497
 NC2D1  OG303     1  0.285087589805  0.591706954497
 NC2D1  OG304     1  0.285087589805  0.591706954497
 NC2D1  OG311     1  0.295332925064  0.820106692766
 NC2D1  OG312     1  0.293996576986  0.648182492821
 NC2D1 OG3C31     1  0.285087589805  0.591706954497
 NC2D1 OG3C51     1  0.285087589805  0.591706954497
 NC2D1 OG3C61     1  0.285087589805  0.591706954497
 NC2D1 OG3R60     1  0.285087589805  0.591706954497
 NC2D1    OH1     1  0.295778374423  0.729745256593
 NC2D1    OHL     1  0.295778374423  0.729745256593
 NC2D1   OLG1     1  0.262815121851  0.648182492821
 NC2D1   OLG2     1  0.289542083396  0.648182492821
 NC2D1   OLG3     1  0.289542083396  0.648182492821
 NC2D1   OLG4     1  0.285087589805  0.591706954497
 NC2D1   OLG5     1  0.285087589805  0.591706954497
 NC2D1   OLG6     1  0.295332925064  0.820106692766
 NC2D1   OLG7     1  0.285087589805  0.591706954497
 NC2D1   OLG8     1  0.285087589805  0.591706954497
 NC2D1     OM     1  0.289542083396  0.648182492821
 NC2D1    ON1     1  0.289542083396  0.648182492821
 NC2D1   ON1C     1  0.289542083396  0.648182492821
 NC2D1    ON2     1  0.295778374423  0.729745256593
 NC2D1   ON2B     1  0.295778374423  0.729745256593
 NC2D1   ON2M     1  0.285087589805  0.591706954497
 NC2D1    ON3     1  0.289542083396  0.648182492821
 NC2D1    ON4     1  0.295778374423  0.729745256593
 NC2D1    ON5     1  0.295778374423  0.729745256593
 NC2D1    ON6     1  0.295778374423  0.729745256593
 NC2D1   ON6B     1  0.295778374423  0.729745256593
 NC2D1   OPER     1  0.287246237399  0.844795086046
 NC2D1     OS     1  0.295778374423  0.729745256593
 NC2D1   OSIA     1  0.295778374423  0.729745256593
 NC2D1   OSIE     1  0.295778374423  0.729745256593
 NC2D1   OSIH     1  0.295778374423  0.729745256593
 NC2D1    OSL     1  0.285087589805  0.591706954497
 NC2D1   OSLP     1  0.285087589805  0.591706954497
 NC2D1    OST     1  0.288829364421  0.760061344893
 NC2D1     OT     1  0.295618012653  0.729745256593
 NC2D1     OX     1  0.289542083396  0.648182492821
 NC2D1      P     1  0.329632525712  1.431148193584
 NC2D1     P2     1  0.329632525712  1.431148193584
 NC2D1     P3     1  0.329632525712  1.431148193584
 NC2D1     P4     1  0.329632525712  1.431148193584
 NC2D1     PB     1  0.296891997820  3.202878645219
 NC2D1   PB2P     1  0.294709295961  0.915521919607
 NC2D1     PC     1  0.329632525712  1.431148193584
 NC2D1     PD     1  0.263661475634  4.640280474282
 NC2D1   PD2P     1  0.220684521471  0.780963522221
 NC2D1    PG0     1  0.329632525712  1.431148193584
 NC2D1    PG1     1  0.329632525712  1.431148193584
 NC2D1    PG2     1  0.329632525712  1.431148193584
 NC2D1     PL     1  0.329632525712  1.431148193584
 NC2D1   PM3P     1  0.285729036882  0.788326003630
 NC2D1    POT     1  0.295221562724  0.551907505294
 NC2D1   PR3P     1  0.285898307638  0.798913956418
 NC2D1     PT     1  0.264819643967  5.225814325060
 NC2D1   PT2P     1  0.209102838135  0.755672563165
 NC2D1   PU3P     1  0.286842660280  0.802848440193
 NC2D1   RA2P     1  0.324278224416  1.028106796632
 NC2D1   RH3P     1  0.179186459180  0.670746225632
 NC2D1    RUB     1  0.307360057758  0.724690057887
 NC2D1      S     1  0.316269044940  1.255200000000
 NC2D1     SC     1  0.325178032121  1.282790109098
 NC2D1   SC3P     1  0.235811981705  0.702613079298
 NC2D1  SEGD1     1  0.331859772507  1.476898661926
 NC2D1  SG2D1     1  0.320723538531  1.406471374753
 NC2D1  SG2P1     1  0.324616765929  1.486115336359
 NC2D1  SG2P2     1  0.321133351941  1.473219612576
 NC2D1 SG2R50     1  0.316269044940  1.255200000000
 NC2D1  SG301     1  0.314041798144  1.153449199575
 NC2D1  SG302     1  0.334087019303  1.282790109098
 NC2D1  SG311     1  0.316269044940  1.255200000000
 NC2D1  SG3O1     1  0.325178032121  1.282790109098
 NC2D1  SG3O2     1  0.316269044940  1.106982348549
 NC2D1  SG3O3     1  0.316269044940  1.106982348549
 NC2D1     SI     1  0.334087019303  1.449380115774
 NC2D1   SIH3     1  0.334087019303  1.449380115774
 NC2D1     SL     1  0.325178032121  1.282790109098
 NC2D1     SM     1  0.314041798144  1.153449199575
 NC2D1   SM2P     1  0.303484648335  0.925789776224
 NC2D1   SM3P     1  0.277666403483  0.784318672377
 NC2D1   SN2P     1  0.285800308779  0.811091898912
 NC2D1    SOD     1  0.263772837973  0.405222074029
 NC2D1     SP     1  0.334087019303  1.255200000000
 NC2D1   SR2P     1  0.303431194411  0.895024005578
 NC2D1     SS     1  0.334087019303  1.282790109098
 NC2D1   TB3P     1  0.269496862237  0.769901476918
 NC2D1   TI1P     1  0.310095116823  1.193283841774
 NC2D1   TI3P     1  0.211935896058  0.670746225632
 NC2D1   TL3P     1  0.215535126880  0.755209102488
 NC2D1   TM3P     1  0.258235902440  0.753120000000
 NC2D1    U3P     1  0.289648991242  0.814752759750
 NC2D1    V2P     1  0.236417792833  0.750558755915
 NC2D1    V3P     1  0.192808300580  0.657833383403
 NC2D1    Y3P     1  0.264008926134  0.761442020590
 NC2D1   YB2P     1  0.281434905061  0.848021558971
 NC2D1   YB3P     1  0.253478503285  0.749391660269
 NC2D1     ZN     1  0.235197261589  0.935570841786
 NC311  NG2S0     1  0.342996006484  0.008875604317
 NC311  NG2S1     1  0.316269044940  0.396929091904
 NC311    NH1     1  0.316269044940  0.396929091904
 NC311    NHL     1  0.316269044940  0.396929091904
 NC311      O     1  0.302905564168  0.307459952514
 NC311     OB     1  0.302905564168  0.307459952514
 NC311    OBL     1  0.302905564168  0.307459952514
 NC311  OC2D1     1  0.302905564168  0.307459952514
 NC311  OC2D3     1  0.302905564168  0.307459952514
 NC311  OC2D4     1  0.302905564168  0.307459952514
 NC311    OCA     1  0.302905564168  0.307459952514
 NC311  OG2D1     1  0.302905564168  0.307459952514
 NC311  OG2D3     1  0.302905564168  0.307459952514
 NC311   OLG1     1  0.302905564168  0.307459952514
  ND3P  NG2S0     1  0.309132946208  0.017711717577
  ND3P  NG2S1     1  0.282405984663  0.792092090000
  ND3P    NH1     1  0.282405984663  0.792092090000
  ND3P    NHL     1  0.282405984663  0.792092090000
  ND3P      O     1  0.269042503891  0.613551894646
  ND3P     OB     1  0.269042503891  0.613551894646
  ND3P    OBL     1  0.269042503891  0.613551894646
  ND3P  OC2D1     1  0.269042503891  0.613551894646
  ND3P  OC2D3     1  0.269042503891  0.613551894646
  ND3P  OC2D4     1  0.269042503891  0.613551894646
  ND3P    OCA     1  0.269042503891  0.613551894646
  ND3P  OG2D1     1  0.269042503891  0.613551894646
  ND3P  OG2D3     1  0.269042503891  0.613551894646
  ND3P   OLG1     1  0.269042503891  0.613551894646
    NE  NG2S0     1  0.301123766731  0.012269896560
    NE  NG2S1     1  0.274396805187  0.548726455714
    NE    NH1     1  0.274396805187  0.548726455714
    NE    NHL     1  0.274396805187  0.548726455714
    NE      O     1  0.261033324415  0.425041684920
    NE     OB     1  0.261033324415  0.425041684920
    NE    OBL     1  0.261033324415  0.425041684920
    NE  OC2D1     1  0.261033324415  0.425041684920
    NE  OC2D3     1  0.261033324415  0.425041684920
    NE  OC2D4     1  0.261033324415  0.425041684920
    NE    OCA     1  0.261033324415  0.425041684920
    NE  OG2D1     1  0.261033324415  0.425041684920
    NE  OG2D3     1  0.261033324415  0.425041684920
    NE   OLG1     1  0.261033324415  0.425041684920
 NG1T1  NG2S0     1  0.324287133403  0.017751208635
 NG1T1  NG2S1     1  0.297560171859  0.793858183809
 NG1T1    NH1     1  0.297560171859  0.793858183809
 NG1T1    NHL     1  0.297560171859  0.793858183809
 NG1T1      O     1  0.284196691087  0.614919905028
 NG1T1     OB     1  0.284196691087  0.614919905028
 NG1T1    OBL     1  0.284196691087  0.614919905028
 NG1T1  OC2D1     1  0.284196691087  0.614919905028
 NG1T1  OC2D3     1  0.284196691087  0.614919905028
 NG1T1  OC2D4     1  0.284196691087  0.614919905028
 NG1T1    OCA     1  0.284196691087  0.614919905028
 NG1T1  OG2D1     1  0.284196691087  0.614919905028
 NG1T1  OG2D3     1  0.284196691087  0.614919905028
 NG1T1   OLG1     1  0.284196691087  0.614919905028
 NG2D1  NG2S0     1  0.329632525712  0.018711416836
 NG2D1  NG2S1     1  0.302905564168  0.836800000000
 NG2D1    NH1     1  0.302905564168  0.836800000000
 NG2D1    NHL     1  0.302905564168  0.836800000000
 NG2D1      O     1  0.289542083396  0.648182492821
 NG2D1     OB     1  0.289542083396  0.648182492821
 NG2D1    OBL     1  0.289542083396  0.648182492821
 NG2D1  OC2D1     1  0.289542083396  0.648182492821
 NG2D1  OC2D3     1  0.289542083396  0.648182492821
 NG2D1  OC2D4     1  0.289542083396  0.648182492821
 NG2D1    OCA     1  0.289542083396  0.648182492821
 NG2D1  OG2D1     1  0.289542083396  0.648182492821
 NG2D1  OG2D3     1  0.289542083396  0.648182492821
 NG2D1   OLG1     1  0.289542083396  0.648182492821
 NG2O1  NG2S0     1  0.329632525712  0.018711416836
 NG2O1  NG2S1     1  0.302905564168  0.836800000000
 NG2O1    NH1     1  0.302905564168  0.836800000000
 NG2O1    NHL     1  0.302905564168  0.836800000000
 NG2O1      O     1  0.289542083396  0.648182492821
 NG2O1     OB     1  0.289542083396  0.648182492821
 NG2O1    OBL     1  0.289542083396  0.648182492821
 NG2O1  OC2D1     1  0.289542083396  0.648182492821
 NG2O1  OC2D3     1  0.289542083396  0.648182492821
 NG2O1  OC2D4     1  0.289542083396  0.648182492821
 NG2O1    OCA     1  0.289542083396  0.648182492821
 NG2O1  OG2D1     1  0.289542083396  0.648182492821
 NG2O1  OG2D3     1  0.289542083396  0.648182492821
 NG2O1   OLG1     1  0.289542083396  0.648182492821
 NG2P1  NG2S0     1  0.329632525712  0.018711416836
 NG2P1  NG2S1     1  0.302905564168  0.836800000000
 NG2P1    NH1     1  0.302905564168  0.836800000000
 NG2P1    NHL     1  0.302905564168  0.836800000000
 NG2P1      O     1  0.289542083396  0.648182492821
 NG2P1     OB     1  0.289542083396  0.648182492821
 NG2P1    OBL     1  0.289542083396  0.648182492821
 NG2P1  OC2D1     1  0.289542083396  0.648182492821
 NG2P1  OC2D3     1  0.289542083396  0.648182492821
 NG2P1  OC2D4     1  0.289542083396  0.648182492821
 NG2P1    OCA     1  0.289542083396  0.648182492821
 NG2P1  OG2D1     1  0.289542083396  0.648182492821
 NG2P1  OG2D3     1  0.289542083396  0.648182492821
 NG2P1   OLG1     1  0.289542083396  0.648182492821
NG2R43  NG2S0     1  0.329632525712  0.018711416836
NG2R43  NG2S1     1  0.302905564168  0.836800000000
NG2R43    NH1     1  0.302905564168  0.836800000000
NG2R43    NHL     1  0.302905564168  0.836800000000
NG2R43      O     1  0.289542083396  0.648182492821
NG2R43     OB     1  0.289542083396  0.648182492821
NG2R43    OBL     1  0.289542083396  0.648182492821
NG2R43  OC2D1     1  0.289542083396  0.648182492821
NG2R43  OC2D3     1  0.289542083396  0.648182492821
NG2R43  OC2D4     1  0.289542083396  0.648182492821
NG2R43    OCA     1  0.289542083396  0.648182492821
NG2R43  OG2D1     1  0.289542083396  0.648182492821
NG2R43  OG2D3     1  0.289542083396  0.648182492821
NG2R43   OLG1     1  0.289542083396  0.648182492821
NG2R50  NG2S0     1  0.329632525712  0.018711416836
NG2R50  NG2S1     1  0.302905564168  0.836800000000
NG2R50    NH1     1  0.302905564168  0.836800000000
NG2R50    NHL     1  0.302905564168  0.836800000000
NG2R50      O     1  0.289542083396  0.648182492821
NG2R50     OB     1  0.289542083396  0.648182492821
NG2R50    OBL     1  0.289542083396  0.648182492821
NG2R50  OC2D1     1  0.289542083396  0.648182492821
NG2R50  OC2D3     1  0.289542083396  0.648182492821
NG2R50  OC2D4     1  0.289542083396  0.648182492821
NG2R50    OCA     1  0.289542083396  0.648182492821
NG2R50  OG2D1     1  0.289542083396  0.648182492821
NG2R50  OG2D3     1  0.289542083396  0.648182492821
NG2R50   OLG1     1  0.289542083396  0.648182492821
NG2R51  NG2S0     1  0.329632525712  0.018711416836
NG2R51  NG2S1     1  0.302905564168  0.836800000000
NG2R51    NH1     1  0.302905564168  0.836800000000
NG2R51    NHL     1  0.302905564168  0.836800000000
NG2R51      O     1  0.289542083396  0.648182492821
NG2R51     OB     1  0.289542083396  0.648182492821
NG2R51    OBL     1  0.289542083396  0.648182492821
NG2R51  OC2D1     1  0.289542083396  0.648182492821
NG2R51  OC2D3     1  0.289542083396  0.648182492821
NG2R51  OC2D4     1  0.289542083396  0.648182492821
NG2R51    OCA     1  0.289542083396  0.648182492821
NG2R51  OG2D1     1  0.289542083396  0.648182492821
NG2R51  OG2D3     1  0.289542083396  0.648182492821
NG2R51   OLG1     1  0.289542083396  0.648182492821
NG2R52  NG2S0     1  0.329632525712  0.018711416836
NG2R52  NG2S1     1  0.302905564168  0.836800000000
NG2R52    NH1     1  0.302905564168  0.836800000000
NG2R52    NHL     1  0.302905564168  0.836800000000
NG2R52      O     1  0.289542083396  0.648182492821
NG2R52     OB     1  0.289542083396  0.648182492821
NG2R52    OBL     1  0.289542083396  0.648182492821
NG2R52  OC2D1     1  0.289542083396  0.648182492821
NG2R52  OC2D3     1  0.289542083396  0.648182492821
NG2R52  OC2D4     1  0.289542083396  0.648182492821
NG2R52    OCA     1  0.289542083396  0.648182492821
NG2R52  OG2D1     1  0.289542083396  0.648182492821
NG2R52  OG2D3     1  0.289542083396  0.648182492821
NG2R52   OLG1     1  0.289542083396  0.648182492821
NG2R53  NG2S0     1  0.329632525712  0.018711416836
NG2R53  NG2S1     1  0.302905564168  0.836800000000
NG2R53    NH1     1  0.302905564168  0.836800000000
NG2R53    NHL     1  0.302905564168  0.836800000000
NG2R53      O     1  0.289542083396  0.648182492821
NG2R53     OB     1  0.289542083396  0.648182492821
NG2R53    OBL     1  0.289542083396  0.648182492821
NG2R53  OC2D1     1  0.289542083396  0.648182492821
NG2R53  OC2D3     1  0.289542083396  0.648182492821
NG2R53  OC2D4     1  0.289542083396  0.648182492821
NG2R53    OCA     1  0.289542083396  0.648182492821
NG2R53  OG2D1     1  0.289542083396  0.648182492821
NG2R53  OG2D3     1  0.289542083396  0.648182492821
NG2R53   OLG1     1  0.289542083396  0.648182492821
NG2R57  NG2S0     1  0.329632525712  0.018711416836
NG2R57  NG2S1     1  0.302905564168  0.836800000000
NG2R57    NH1     1  0.302905564168  0.836800000000
NG2R57    NHL     1  0.302905564168  0.836800000000
NG2R57      O     1  0.289542083396  0.648182492821
NG2R57     OB     1  0.289542083396  0.648182492821
NG2R57    OBL     1  0.289542083396  0.648182492821
NG2R57  OC2D1     1  0.289542083396  0.648182492821
NG2R57  OC2D3     1  0.289542083396  0.648182492821
NG2R57  OC2D4     1  0.289542083396  0.648182492821
NG2R57    OCA     1  0.289542083396  0.648182492821
NG2R57  OG2D1     1  0.289542083396  0.648182492821
NG2R57  OG2D3     1  0.289542083396  0.648182492821
NG2R57   OLG1     1  0.289542083396  0.648182492821
NG2R60  NG2S0     1  0.333196120584  0.010248665084
NG2R60  NG2S1     1  0.306469159040  0.458334236120
NG2R60    NH1     1  0.306469159040  0.458334236120
NG2R60    NHL     1  0.306469159040  0.458334236120
NG2R60      O     1  0.293105678268  0.355024172698
NG2R60     OB     1  0.293105678268  0.355024172698
NG2R60    OBL     1  0.293105678268  0.355024172698
NG2R60  OC2D1     1  0.293105678268  0.355024172698
NG2R60  OC2D3     1  0.293105678268  0.355024172698
NG2R60  OC2D4     1  0.293105678268  0.355024172698
NG2R60    OCA     1  0.293105678268  0.355024172698
NG2R60  OG2D1     1  0.293105678268  0.355024172698
NG2R60  OG2D3     1  0.293105678268  0.355024172698
NG2R60   OLG1     1  0.293105678268  0.355024172698
NG2R61  NG2S0     1  0.329632525712  0.018711416836
NG2R61  NG2S1     1  0.302905564168  0.836800000000
NG2R61    NH1     1  0.302905564168  0.836800000000
NG2R61    NHL     1  0.302905564168  0.836800000000
NG2R61      O     1  0.289542083396  0.648182492821
NG2R61     OB     1  0.289542083396  0.648182492821
NG2R61    OBL     1  0.289542083396  0.648182492821
NG2R61  OC2D1     1  0.289542083396  0.648182492821
NG2R61  OC2D3     1  0.289542083396  0.648182492821
NG2R61  OC2D4     1  0.289542083396  0.648182492821
NG2R61    OCA     1  0.289542083396  0.648182492821
NG2R61  OG2D1     1  0.289542083396  0.648182492821
NG2R61  OG2D3     1  0.289542083396  0.648182492821
NG2R61   OLG1     1  0.289542083396  0.648182492821
NG2R62  NG2S0     1  0.348341398793  0.009355708418
NG2R62  NG2S1     1  0.321614437249  0.418400000000
NG2R62    NH1     1  0.321614437249  0.418400000000
NG2R62    NHL     1  0.321614437249  0.418400000000
NG2R62      O     1  0.308250956477  0.324091246411
NG2R62     OB     1  0.308250956477  0.324091246411
NG2R62    OBL     1  0.308250956477  0.324091246411
NG2R62  OC2D1     1  0.308250956477  0.324091246411
NG2R62  OC2D3     1  0.308250956477  0.324091246411
NG2R62  OC2D4     1  0.308250956477  0.324091246411
NG2R62    OCA     1  0.308250956477  0.324091246411
NG2R62  OG2D1     1  0.308250956477  0.324091246411
NG2R62  OG2D3     1  0.308250956477  0.324091246411
NG2R62   OLG1     1  0.308250956477  0.324091246411
NG2R67  NG2S0     1  0.329632525712  0.018711416836
NG2R67  NG2S1     1  0.302905564168  0.836800000000
NG2R67    NH1     1  0.302905564168  0.836800000000
NG2R67    NHL     1  0.302905564168  0.836800000000
NG2R67      O     1  0.289542083396  0.648182492821
NG2R67     OB     1  0.289542083396  0.648182492821
NG2R67    OBL     1  0.289542083396  0.648182492821
NG2R67  OC2D1     1  0.289542083396  0.648182492821
NG2R67  OC2D3     1  0.289542083396  0.648182492821
NG2R67  OC2D4     1  0.289542083396  0.648182492821
NG2R67    OCA     1  0.289542083396  0.648182492821
NG2R67  OG2D1     1  0.289542083396  0.648182492821
NG2R67  OG2D3     1  0.289542083396  0.648182492821
NG2R67   OLG1     1  0.289542083396  0.648182492821
NG2RC0  NG2S0     1  0.329632525712  0.018711416836
NG2RC0  NG2S1     1  0.302905564168  0.836800000000
NG2RC0    NH1     1  0.302905564168  0.836800000000
NG2RC0    NHL     1  0.302905564168  0.836800000000
NG2RC0      O     1  0.289542083396  0.648182492821
NG2RC0     OB     1  0.289542083396  0.648182492821
NG2RC0    OBL     1  0.289542083396  0.648182492821
NG2RC0  OC2D1     1  0.289542083396  0.648182492821
NG2RC0  OC2D3     1  0.289542083396  0.648182492821
NG2RC0  OC2D4     1  0.289542083396  0.648182492821
NG2RC0    OCA     1  0.289542083396  0.648182492821
NG2RC0  OG2D1     1  0.289542083396  0.648182492821
NG2RC0  OG2D3     1  0.289542083396  0.648182492821
NG2RC0   OLG1     1  0.289542083396  0.648182492821
 NG2S0  NG2S0     1  0.329632525712  0.000418400000
 NG2S0  NG2S1     1  0.302905564168  0.018711416836
 NG2S0  NG2S2     1  0.329632525712  0.018711416836
 NG2S0  NG2S3     1  0.329632525712  0.018711416836
 NG2S0  NG301     1  0.342996006484  0.007827547253
 NG2S0  NG311     1  0.342996006484  0.008875604317
 NG2S0  NG321     1  0.342105107766  0.010248665084
 NG2S0  NG331     1  0.341214209048  0.011069823485
 NG2S0 NG3C51     1  0.329632525712  0.018711416836
 NG2S0  NG3N1     1  0.347450500075  0.010248665084
 NG2S0  NG3P0     1  0.329632525712  0.018711416836
 NG2S0  NG3P1     1  0.329632525712  0.018711416836
 NG2S0  NG3P2     1  0.329632525712  0.018711416836
 NG2S0  NG3P3     1  0.329632525712  0.018711416836
 NG2S0    NH1     1  0.302905564168  0.018711416836
 NG2S0    NH2     1  0.329632525712  0.018711416836
 NG2S0    NH3     1  0.329632525712  0.018711416836
 NG2S0   NH3L     1  0.329632525712  0.018711416836
 NG2S0    NHL     1  0.302905564168  0.018711416836
 NG2S0     NI     1  0.278494939291  0.099452544663
 NG2S0   NI2P     1  0.234333089832  0.015844051724
 NG2S0    NN1     1  0.329632525712  0.018711416836
 NG2S0   NN1C     1  0.329632525712  0.018711416836
 NG2S0    NN2     1  0.329632525712  0.018711416836
 NG2S0   NN2B     1  0.329632525712  0.018711416836
 NG2S0   NN2C     1  0.329632525712  0.018711416836
 NG2S0   NN2G     1  0.329632525712  0.018711416836
 NG2S0   NN2U     1  0.329632525712  0.018711416836
 NG2S0    NN3     1  0.329632525712  0.018711416836
 NG2S0   NN3A     1  0.329632525712  0.018711416836
 NG2S0   NN3G     1  0.329632525712  0.018711416836
 NG2S0   NN3I     1  0.329632525712  0.018711416836
 NG2S0    NN4     1  0.329632525712  0.018711416836
 NG2S0    NN6     1  0.329632525712  0.018711416836
 NG2S0    NNG     1  0.329632525712  0.018711416836
 NG2S0     NP     1  0.329632525712  0.018711416836
 NG2S0    NPH     1  0.329632525712  0.018711416836
 NG2S0    NR1     1  0.329632525712  0.018711416836
 NG2S0    NR2     1  0.329632525712  0.018711416836
 NG2S0    NR3     1  0.329632525712  0.018711416836
 NG2S0   NRC4     1  0.329632525712  0.018711416836
 NG2S0   NRN1     1  0.342996006484  0.028067125254
 NG2S0   NRN2     1  0.342105107766  0.010248665084
 NG2S0    NS1     1  0.329632525712  0.018711416836
 NG2S0    NS2     1  0.329632525712  0.018711416836
 NG2S0    NTL     1  0.329632525712  0.018711416836
 NG2S0     NY     1  0.329632525712  0.018711416836
 NG2S0      O     1  0.289542083396  0.014493801158
 NG2S0    O2L     1  0.316269044940  0.014493801158
 NG2S0    OAL     1  0.322505335967  0.016317600000
 NG2S0     OB     1  0.289542083396  0.014493801158
 NG2S0    OBL     1  0.289542083396  0.014493801158
 NG2S0     OC     1  0.316269044940  0.014493801158
 NG2S0  OC2D1     1  0.289542083396  0.014493801158
 NG2S0  OC2D2     1  0.316269044940  0.014493801158
 NG2S0  OC2D3     1  0.289542083396  0.014493801158
 NG2S0  OC2D4     1  0.289542083396  0.014493801158
 NG2S0  OC2DP     1  0.316269044940  0.014493801158
 NG2S0  OC301     1  0.311814551349  0.013230969730
 NG2S0  OC302     1  0.311814551349  0.013230969730
 NG2S0  OC303     1  0.311814551349  0.013230969730
 NG2S0 OC305A     1  0.311814551349  0.013230969730
 NG2S0  OC30A     1  0.311814551349  0.013230969730
 NG2S0  OC30P     1  0.322505335967  0.016317600000
 NG2S0  OC311     1  0.322059886608  0.018338143138
 NG2S0 OC311M     1  0.322059886608  0.018338143138
 NG2S0  OC312     1  0.322505335967  0.016317600000
 NG2S0 OC3C51     1  0.311814551349  0.013230969730
 NG2S0 OC3C5M     1  0.311814551349  0.013230969730
 NG2S0 OC3C61     1  0.311814551349  0.013230969730
 NG2S0    OCA     1  0.289542083396  0.014493801158
 NG2S0    OCL     1  0.316269044940  0.014493801158
 NG2S0  OG2D1     1  0.289542083396  0.014493801158
 NG2S0  OG2D2     1  0.316269044940  0.014493801158
 NG2S0  OG2D3     1  0.289542083396  0.014493801158
 NG2S0  OG2D4     1  0.316269044940  0.014493801158
 NG2S0  OG2D5     1  0.315556325965  0.016995488342
 NG2S0  OG2N1     1  0.316269044940  0.014493801158
 NG2S0  OG2P1     1  0.316269044940  0.014493801158
 NG2S0 OG2R50     1  0.316269044940  0.014493801158
 NG2S0  OG2S1     1  0.314451611555  0.015783166060
 NG2S0  OG301     1  0.311814551349  0.013230969730
 NG2S0  OG302     1  0.311814551349  0.013230969730
 NG2S0  OG303     1  0.311814551349  0.013230969730
 NG2S0  OG304     1  0.311814551349  0.013230969730
 NG2S0  OG311     1  0.322059886608  0.018338143138
 NG2S0  OG312     1  0.320723538531  0.014493801158
 NG2S0 OG3C31     1  0.311814551349  0.013230969730
 NG2S0 OG3C51     1  0.311814551349  0.013230969730
 NG2S0 OG3C61     1  0.311814551349  0.013230969730
 NG2S0 OG3R60     1  0.311814551349  0.013230969730
 NG2S0    OH1     1  0.322505335967  0.016317600000
 NG2S0    OHL     1  0.322505335967  0.016317600000
 NG2S0   OLG1     1  0.289542083396  0.014493801158
 NG2S0   OLG2     1  0.316269044940  0.014493801158
 NG2S0   OLG3     1  0.316269044940  0.014493801158
 NG2S0   OLG4     1  0.311814551349  0.013230969730
 NG2S0   OLG5     1  0.311814551349  0.013230969730
 NG2S0   OLG6     1  0.322059886608  0.018338143138
 NG2S0   OLG7     1  0.311814551349  0.013230969730
 NG2S0   OLG8     1  0.311814551349  0.013230969730
 NG2S0     OM     1  0.316269044940  0.014493801158
 NG2S0    ON1     1  0.316269044940  0.014493801158
 NG2S0   ON1C     1  0.316269044940  0.014493801158
 NG2S0    ON2     1  0.322505335967  0.016317600000
 NG2S0   ON2B     1  0.322505335967  0.016317600000
 NG2S0   ON2M     1  0.311814551349  0.013230969730
 NG2S0    ON3     1  0.316269044940  0.014493801158
 NG2S0    ON4     1  0.322505335967  0.016317600000
 NG2S0    ON5     1  0.322505335967  0.016317600000
 NG2S0    ON6     1  0.322505335967  0.016317600000
 NG2S0   ON6B     1  0.322505335967  0.016317600000
 NG2S0   OPER     1  0.313973198943  0.018890192395
 NG2S0     OS     1  0.322505335967  0.016317600000
 NG2S0   OSIA     1  0.322505335967  0.016317600000
 NG2S0   OSIE     1  0.322505335967  0.016317600000
 NG2S0   OSIH     1  0.322505335967  0.016317600000
 NG2S0    OSL     1  0.311814551349  0.013230969730
 NG2S0   OSLP     1  0.311814551349  0.013230969730
 NG2S0    OST     1  0.315556325965  0.016995488342
 NG2S0     OT     1  0.322344974198  0.016317600000
 NG2S0     OX     1  0.316269044940  0.014493801158
 NG2S0      P     1  0.356359487256  0.032001446467
 NG2S0     P2     1  0.356359487256  0.032001446467
 NG2S0     P3     1  0.356359487256  0.032001446467
 NG2S0     P4     1  0.356359487256  0.032001446467
 NG2S0     PB     1  0.323618959364  0.071618543744
 NG2S0   PB2P     1  0.321436257505  0.020471692471
 NG2S0     PC     1  0.356359487256  0.032001446467
 NG2S0     PD     1  0.290388437178  0.103759825752
 NG2S0   PD2P     1  0.247411483015  0.017462875236
 NG2S0    PG0     1  0.356359487256  0.032001446467
 NG2S0    PG1     1  0.356359487256  0.032001446467
 NG2S0    PG2     1  0.356359487256  0.032001446467
 NG2S0     PL     1  0.356359487256  0.032001446467
 NG2S0   PM3P     1  0.312455998426  0.017627505325
 NG2S0    POT     1  0.321948524268  0.012341026991
 NG2S0   PR3P     1  0.312625269183  0.017864259147
 NG2S0     PT     1  0.291546605511  0.116852760686
 NG2S0   PT2P     1  0.235829799679  0.016897352200
 NG2S0   PU3P     1  0.313569621824  0.017952236879
 NG2S0   RA2P     1  0.351005185960  0.022989166854
 NG2S0   RH3P     1  0.205913420724  0.014998341562
 NG2S0    RUB     1  0.334087019303  0.016204562321
 NG2S0      S     1  0.342996006484  0.028067125254
 NG2S0     SC     1  0.351904993665  0.028684058848
 NG2S0   SC3P     1  0.262538943249  0.015710906072
 NG2S0  SEGD1     1  0.358586734051  0.033024458039
 NG2S0  SG2D1     1  0.347450500075  0.031449656024
 NG2S0  SG2P1     1  0.351343727473  0.033230549145
 NG2S0  SG2P2     1  0.347860313485  0.032942191995
 NG2S0 SG2R50     1  0.342996006484  0.028067125254
 NG2S0  SG301     1  0.340768759689  0.025791908188
 NG2S0  SG302     1  0.360813980847  0.028684058848
 NG2S0  SG311     1  0.342996006484  0.028067125254
 NG2S0  SG3O1     1  0.351904993665  0.028684058848
 NG2S0  SG3O2     1  0.342996006484  0.024752877812
 NG2S0  SG3O3     1  0.342996006484  0.024752877812
 NG2S0     SI     1  0.360813980847  0.032409124641
 NG2S0   SIH3     1  0.360813980847  0.032409124641
 NG2S0     SL     1  0.351904993665  0.028684058848
 NG2S0     SM     1  0.340768759689  0.025791908188
 NG2S0   SM2P     1  0.330211609879  0.020701288725
 NG2S0   SM3P     1  0.304393365027  0.017537898675
 NG2S0   SN2P     1  0.312527270324  0.018136566220
 NG2S0    SOD     1  0.290499799518  0.009061041035
 NG2S0     SP     1  0.360813980847  0.028067125254
 NG2S0   SR2P     1  0.330158155956  0.020013345180
 NG2S0     SS     1  0.360813980847  0.028684058848
 NG2S0   TB3P     1  0.296223823782  0.017215520384
 NG2S0   TI1P     1  0.336822078367  0.026682637867
 NG2S0   TI3P     1  0.238662857603  0.014998341562
 NG2S0   TL3P     1  0.242262088424  0.016886988904
 NG2S0   TM3P     1  0.284962863984  0.016840275152
 NG2S0    U3P     1  0.316375952786  0.018218425557
 NG2S0    V2P     1  0.263144754377  0.016783003993
 NG2S0    V3P     1  0.219535262124  0.014709601632
 NG2S0    Y3P     1  0.290735887678  0.017026361190
 NG2S0   YB2P     1  0.308161866605  0.018962338522
 NG2S0   YB3P     1  0.280205464829  0.016756906941
 NG2S0     ZN     1  0.261924223133  0.020920000000
 NG2S1  NG2S1     1  0.276178602624  0.836800000000
 NG2S1  NG2S2     1  0.302905564168  0.836800000000
 NG2S1  NG2S3     1  0.302905564168  0.836800000000
 NG2S1  NG301     1  0.316269044940  0.350058555102
 NG2S1  NG311     1  0.316269044940  0.396929091904
 NG2S1  NG321     1  0.315378146222  0.458334236120
 NG2S1  NG331     1  0.314487247504  0.495057556250
 NG2S1 NG3C51     1  0.302905564168  0.836800000000
 NG2S1  NG3N1     1  0.320723538531  0.458334236120
 NG2S1  NG3P0     1  0.302905564168  0.836800000000
 NG2S1  NG3P1     1  0.302905564168  0.836800000000
 NG2S1  NG3P2     1  0.302905564168  0.836800000000
 NG2S1  NG3P3     1  0.302905564168  0.836800000000
 NG2S1    NH1     1  0.276178602624  0.836800000000
 NG2S1    NH2     1  0.302905564168  0.836800000000
 NG2S1    NH3     1  0.302905564168  0.836800000000
 NG2S1   NH3L     1  0.302905564168  0.836800000000
 NG2S1    NHL     1  0.276178602624  0.836800000000
 NG2S1     NI     1  0.251767977746  4.447653008048
 NG2S1   NI2P     1  0.207606128288  0.708567533888
 NG2S1    NN1     1  0.302905564168  0.836800000000
 NG2S1   NN1C     1  0.302905564168  0.836800000000
 NG2S1    NN2     1  0.302905564168  0.836800000000
 NG2S1   NN2B     1  0.302905564168  0.836800000000
 NG2S1   NN2C     1  0.302905564168  0.836800000000
 NG2S1   NN2G     1  0.302905564168  0.836800000000
 NG2S1   NN2U     1  0.302905564168  0.836800000000
 NG2S1    NN3     1  0.302905564168  0.836800000000
 NG2S1   NN3A     1  0.302905564168  0.836800000000
 NG2S1   NN3G     1  0.302905564168  0.836800000000
 NG2S1   NN3I     1  0.302905564168  0.836800000000
 NG2S1    NN4     1  0.302905564168  0.836800000000
 NG2S1    NN6     1  0.302905564168  0.836800000000
 NG2S1    NNG     1  0.302905564168  0.836800000000
 NG2S1     NP     1  0.302905564168  0.836800000000
 NG2S1    NPH     1  0.302905564168  0.836800000000
 NG2S1    NR1     1  0.302905564168  0.836800000000
 NG2S1    NR2     1  0.302905564168  0.836800000000
 NG2S1    NR3     1  0.302905564168  0.836800000000
 NG2S1   NRC4     1  0.302905564168  0.836800000000
 NG2S1   NRN1     1  0.316269044940  1.255200000000
 NG2S1   NRN2     1  0.315378146222  0.458334236120
 NG2S1    NS1     1  0.302905564168  0.836800000000
 NG2S1    NS2     1  0.302905564168  0.836800000000
 NG2S1    NTL     1  0.302905564168  0.836800000000
 NG2S1     NY     1  0.302905564168  0.836800000000
 NG2S1      O     1  0.262815121851  0.648182492821
 NG2S1    O2L     1  0.289542083396  0.648182492821
 NG2S1    OAL     1  0.295778374423  0.729745256593
 NG2S1     OB     1  0.262815121851  0.648182492821
 NG2S1    OBL     1  0.262815121851  0.648182492821
 NG2S1     OC     1  0.289542083396  0.648182492821
 NG2S1  OC2D1     1  0.262815121851  0.648182492821
 NG2S1  OC2D2     1  0.289542083396  0.648182492821
 NG2S1  OC2D3     1  0.262815121851  0.648182492821
 NG2S1  OC2D4     1  0.262815121851  0.648182492821
 NG2S1  OC2DP     1  0.289542083396  0.648182492821
 NG2S1  OC301     1  0.285087589805  0.591706954497
 NG2S1  OC302     1  0.285087589805  0.591706954497
 NG2S1  OC303     1  0.285087589805  0.591706954497
 NG2S1 OC305A     1  0.285087589805  0.591706954497
 NG2S1  OC30A     1  0.285087589805  0.591706954497
 NG2S1  OC30P     1  0.295778374423  0.729745256593
 NG2S1  OC311     1  0.295332925064  0.820106692766
 NG2S1 OC311M     1  0.295332925064  0.820106692766
 NG2S1  OC312     1  0.295778374423  0.729745256593
 NG2S1 OC3C51     1  0.285087589805  0.591706954497
 NG2S1 OC3C5M     1  0.285087589805  0.591706954497
 NG2S1 OC3C61     1  0.285087589805  0.591706954497
 NG2S1    OCA     1  0.262815121851  0.648182492821
 NG2S1    OCL     1  0.289542083396  0.648182492821
 NG2S1  OG2D1     1  0.262815121851  0.648182492821
 NG2S1  OG2D2     1  0.289542083396  0.648182492821
 NG2S1  OG2D3     1  0.262815121851  0.648182492821
 NG2S1  OG2D4     1  0.289542083396  0.648182492821
 NG2S1  OG2D5     1  0.288829364421  0.760061344893
 NG2S1  OG2N1     1  0.289542083396  0.648182492821
 NG2S1  OG2P1     1  0.289542083396  0.648182492821
 NG2S1 OG2R50     1  0.289542083396  0.648182492821
 NG2S1  OG2S1     1  0.287724650011  0.705844644210
 NG2S1  OG301     1  0.285087589805  0.591706954497
 NG2S1  OG302     1  0.285087589805  0.591706954497
 NG2S1  OG303     1  0.285087589805  0.591706954497
 NG2S1  OG304     1  0.285087589805  0.591706954497
 NG2S1  OG311     1  0.295332925064  0.820106692766
 NG2S1  OG312     1  0.293996576986  0.648182492821
 NG2S1 OG3C31     1  0.285087589805  0.591706954497
 NG2S1 OG3C51     1  0.285087589805  0.591706954497
 NG2S1 OG3C61     1  0.285087589805  0.591706954497
 NG2S1 OG3R60     1  0.285087589805  0.591706954497
 NG2S1    OH1     1  0.295778374423  0.729745256593
 NG2S1    OHL     1  0.295778374423  0.729745256593
 NG2S1   OLG1     1  0.262815121851  0.648182492821
 NG2S1   OLG2     1  0.289542083396  0.648182492821
 NG2S1   OLG3     1  0.289542083396  0.648182492821
 NG2S1   OLG4     1  0.285087589805  0.591706954497
 NG2S1   OLG5     1  0.285087589805  0.591706954497
 NG2S1   OLG6     1  0.295332925064  0.820106692766
 NG2S1   OLG7     1  0.285087589805  0.591706954497
 NG2S1   OLG8     1  0.285087589805  0.591706954497
 NG2S1     OM     1  0.289542083396  0.648182492821
 NG2S1    ON1     1  0.289542083396  0.648182492821
 NG2S1   ON1C     1  0.289542083396  0.648182492821
 NG2S1    ON2     1  0.295778374423  0.729745256593
 NG2S1   ON2B     1  0.295778374423  0.729745256593
 NG2S1   ON2M     1  0.285087589805  0.591706954497
 NG2S1    ON3     1  0.289542083396  0.648182492821
 NG2S1    ON4     1  0.295778374423  0.729745256593
 NG2S1    ON5     1  0.295778374423  0.729745256593
 NG2S1    ON6     1  0.295778374423  0.729745256593
 NG2S1   ON6B     1  0.295778374423  0.729745256593
 NG2S1   OPER     1  0.287246237399  0.844795086046
 NG2S1     OS     1  0.295778374423  0.729745256593
 NG2S1   OSIA     1  0.295778374423  0.729745256593
 NG2S1   OSIE     1  0.295778374423  0.729745256593
 NG2S1   OSIH     1  0.295778374423  0.729745256593
 NG2S1    OSL     1  0.285087589805  0.591706954497
 NG2S1   OSLP     1  0.285087589805  0.591706954497
 NG2S1    OST     1  0.288829364421  0.760061344893
 NG2S1     OT     1  0.295618012653  0.729745256593
 NG2S1     OX     1  0.289542083396  0.648182492821
 NG2S1      P     1  0.329632525712  1.431148193584
 NG2S1     P2     1  0.329632525712  1.431148193584
 NG2S1     P3     1  0.329632525712  1.431148193584
 NG2S1     P4     1  0.329632525712  1.431148193584
 NG2S1     PB     1  0.296891997820  3.202878645219
 NG2S1   PB2P     1  0.294709295961  0.915521919607
 NG2S1     PC     1  0.329632525712  1.431148193584
 NG2S1     PD     1  0.263661475634  4.640280474282
 NG2S1   PD2P     1  0.220684521471  0.780963522221
 NG2S1    PG0     1  0.329632525712  1.431148193584
 NG2S1    PG1     1  0.329632525712  1.431148193584
 NG2S1    PG2     1  0.329632525712  1.431148193584
 NG2S1     PL     1  0.329632525712  1.431148193584
 NG2S1   PM3P     1  0.285729036882  0.788326003630
 NG2S1    POT     1  0.295221562724  0.551907505294
 NG2S1   PR3P     1  0.285898307638  0.798913956418
 NG2S1     PT     1  0.264819643967  5.225814325060
 NG2S1   PT2P     1  0.209102838135  0.755672563165
 NG2S1   PU3P     1  0.286842660280  0.802848440193
 NG2S1   RA2P     1  0.324278224416  1.028106796632
 NG2S1   RH3P     1  0.179186459180  0.670746225632
 NG2S1    RUB     1  0.307360057758  0.724690057887
 NG2S1      S     1  0.316269044940  1.255200000000
 NG2S1     SC     1  0.325178032121  1.282790109098
 NG2S1   SC3P     1  0.235811981705  0.702613079298
 NG2S1  SEGD1     1  0.331859772507  1.476898661926
 NG2S1  SG2D1     1  0.320723538531  1.406471374753
 NG2S1  SG2P1     1  0.324616765929  1.486115336359
 NG2S1  SG2P2     1  0.321133351941  1.473219612576
 NG2S1 SG2R50     1  0.316269044940  1.255200000000
 NG2S1  SG301     1  0.314041798144  1.153449199575
 NG2S1  SG302     1  0.334087019303  1.282790109098
 NG2S1  SG311     1  0.316269044940  1.255200000000
 NG2S1  SG3O1     1  0.325178032121  1.282790109098
 NG2S1  SG3O2     1  0.316269044940  1.106982348549
 NG2S1  SG3O3     1  0.316269044940  1.106982348549
 NG2S1     SI     1  0.334087019303  1.449380115774
 NG2S1   SIH3     1  0.334087019303  1.449380115774
 NG2S1     SL     1  0.325178032121  1.282790109098
 NG2S1     SM     1  0.314041798144  1.153449199575
 NG2S1   SM2P     1  0.303484648335  0.925789776224
 NG2S1   SM3P     1  0.277666403483  0.784318672377
 NG2S1   SN2P     1  0.285800308779  0.811091898912
 NG2S1    SOD     1  0.263772837973  0.405222074029
 NG2S1     SP     1  0.334087019303  1.255200000000
 NG2S1   SR2P     1  0.303431194411  0.895024005578
 NG2S1     SS     1  0.334087019303  1.282790109098
 NG2S1   TB3P     1  0.269496862237  0.769901476918
 NG2S1   TI1P     1  0.310095116823  1.193283841774
 NG2S1   TI3P     1  0.211935896058  0.670746225632
 NG2S1   TL3P     1  0.215535126880  0.755209102488
 NG2S1   TM3P     1  0.258235902440  0.753120000000
 NG2S1    U3P     1  0.289648991242  0.814752759750
 NG2S1    V2P     1  0.236417792833  0.750558755915
 NG2S1    V3P     1  0.192808300580  0.657833383403
 NG2S1    Y3P     1  0.264008926134  0.761442020590
 NG2S1   YB2P     1  0.281434905061  0.848021558971
 NG2S1   YB3P     1  0.253478503285  0.749391660269
 NG2S1     ZN     1  0.235197261589  0.935570841786
 NG2S2    NH1     1  0.302905564168  0.836800000000
 NG2S2    NHL     1  0.302905564168  0.836800000000
 NG2S2      O     1  0.289542083396  0.648182492821
 NG2S2     OB     1  0.289542083396  0.648182492821
 NG2S2    OBL     1  0.289542083396  0.648182492821
 NG2S2  OC2D1     1  0.289542083396  0.648182492821
 NG2S2  OC2D3     1  0.289542083396  0.648182492821
 NG2S2  OC2D4     1  0.289542083396  0.648182492821
 NG2S2    OCA     1  0.289542083396  0.648182492821
 NG2S2  OG2D1     1  0.289542083396  0.648182492821
 NG2S2  OG2D3     1  0.289542083396  0.648182492821
 NG2S2   OLG1     1  0.289542083396  0.648182492821
 NG2S3    NH1     1  0.302905564168  0.836800000000
 NG2S3    NHL     1  0.302905564168  0.836800000000
 NG2S3      O     1  0.289542083396  0.648182492821
 NG2S3     OB     1  0.289542083396  0.648182492821
 NG2S3    OBL     1  0.289542083396  0.648182492821
 NG2S3  OC2D1     1  0.289542083396  0.648182492821
 NG2S3  OC2D3     1  0.289542083396  0.648182492821
 NG2S3  OC2D4     1  0.289542083396  0.648182492821
 NG2S3    OCA     1  0.289542083396  0.648182492821
 NG2S3  OG2D1     1  0.289542083396  0.648182492821
 NG2S3  OG2D3     1  0.289542083396  0.648182492821
 NG2S3   OLG1     1  0.289542083396  0.648182492821
 NG301    NH1     1  0.316269044940  0.350058555102
 NG301    NHL     1  0.316269044940  0.350058555102
 NG301      O     1  0.302905564168  0.271154190821
 NG301     OB     1  0.302905564168  0.271154190821
 NG301    OBL     1  0.302905564168  0.271154190821
 NG301  OC2D1     1  0.302905564168  0.271154190821
 NG301  OC2D3     1  0.302905564168  0.271154190821
 NG301  OC2D4     1  0.302905564168  0.271154190821
 NG301    OCA     1  0.302905564168  0.271154190821
 NG301  OG2D1     1  0.302905564168  0.271154190821
 NG301  OG2D3     1  0.302905564168  0.271154190821
 NG301   OLG1     1  0.302905564168  0.271154190821
 NG311    NH1     1  0.316269044940  0.396929091904
 NG311    NHL     1  0.316269044940  0.396929091904
 NG311      O     1  0.302905564168  0.307459952514
 NG311     OB     1  0.302905564168  0.307459952514
 NG311    OBL     1  0.302905564168  0.307459952514
 NG311  OC2D1     1  0.302905564168  0.307459952514
 NG311  OC2D3     1  0.302905564168  0.307459952514
 NG311  OC2D4     1  0.302905564168  0.307459952514
 NG311    OCA     1  0.302905564168  0.307459952514
 NG311  OG2D1     1  0.302905564168  0.307459952514
 NG311  OG2D3     1  0.302905564168  0.307459952514
 NG311   OLG1     1  0.302905564168  0.307459952514
 NG321    NH1     1  0.315378146222  0.458334236120
 NG321    NHL     1  0.315378146222  0.458334236120
 NG321      O     1  0.302014665450  0.355024172698
 NG321     OB     1  0.302014665450  0.355024172698
 NG321    OBL     1  0.302014665450  0.355024172698
 NG321  OC2D1     1  0.302014665450  0.355024172698
 NG321  OC2D3     1  0.302014665450  0.355024172698
 NG321  OC2D4     1  0.302014665450  0.355024172698
 NG321    OCA     1  0.302014665450  0.355024172698
 NG321  OG2D1     1  0.302014665450  0.355024172698
 NG321  OG2D3     1  0.302014665450  0.355024172698
 NG321   OLG1     1  0.302014665450  0.355024172698
 NG331    NH1     1  0.314487247504  0.495057556250
 NG331    NHL     1  0.314487247504  0.495057556250
 NG331      O     1  0.301123766731  0.383469934154
 NG331     OB     1  0.301123766731  0.383469934154
 NG331    OBL     1  0.301123766731  0.383469934154
 NG331  OC2D1     1  0.301123766731  0.383469934154
 NG331  OC2D3     1  0.301123766731  0.383469934154
 NG331  OC2D4     1  0.301123766731  0.383469934154
 NG331    OCA     1  0.301123766731  0.383469934154
 NG331  OG2D1     1  0.301123766731  0.383469934154
 NG331  OG2D3     1  0.301123766731  0.383469934154
 NG331   OLG1     1  0.301123766731  0.383469934154
NG3C51    NH1     1  0.302905564168  0.836800000000
NG3C51    NHL     1  0.302905564168  0.836800000000
NG3C51      O     1  0.289542083396  0.648182492821
NG3C51     OB     1  0.289542083396  0.648182492821
NG3C51    OBL     1  0.289542083396  0.648182492821
NG3C51  OC2D1     1  0.289542083396  0.648182492821
NG3C51  OC2D3     1  0.289542083396  0.648182492821
NG3C51  OC2D4     1  0.289542083396  0.648182492821
NG3C51    OCA     1  0.289542083396  0.648182492821
NG3C51  OG2D1     1  0.289542083396  0.648182492821
NG3C51  OG2D3     1  0.289542083396  0.648182492821
NG3C51   OLG1     1  0.289542083396  0.648182492821
 NG3N1    NH1     1  0.320723538531  0.458334236120
 NG3N1    NHL     1  0.320723538531  0.458334236120
 NG3N1      O     1  0.307360057758  0.355024172698
 NG3N1     OB     1  0.307360057758  0.355024172698
 NG3N1    OBL     1  0.307360057758  0.355024172698
 NG3N1  OC2D1     1  0.307360057758  0.355024172698
 NG3N1  OC2D3     1  0.307360057758  0.355024172698
 NG3N1  OC2D4     1  0.307360057758  0.355024172698
 NG3N1    OCA     1  0.307360057758  0.355024172698
 NG3N1  OG2D1     1  0.307360057758  0.355024172698
 NG3N1  OG2D3     1  0.307360057758  0.355024172698
 NG3N1   OLG1     1  0.307360057758  0.355024172698
 NG3P0    NH1     1  0.302905564168  0.836800000000
 NG3P0    NHL     1  0.302905564168  0.836800000000
 NG3P0      O     1  0.289542083396  0.648182492821
 NG3P0     OB     1  0.289542083396  0.648182492821
 NG3P0    OBL     1  0.289542083396  0.648182492821
 NG3P0  OC2D1     1  0.289542083396  0.648182492821
 NG3P0  OC2D3     1  0.289542083396  0.648182492821
 NG3P0  OC2D4     1  0.289542083396  0.648182492821
 NG3P0    OCA     1  0.289542083396  0.648182492821
 NG3P0  OG2D1     1  0.289542083396  0.648182492821
 NG3P0  OG2D3     1  0.289542083396  0.648182492821
 NG3P0   OLG1     1  0.289542083396  0.648182492821
 NG3P1    NH1     1  0.302905564168  0.836800000000
 NG3P1    NHL     1  0.302905564168  0.836800000000
 NG3P1      O     1  0.289542083396  0.648182492821
 NG3P1     OB     1  0.289542083396  0.648182492821
 NG3P1    OBL     1  0.289542083396  0.648182492821
 NG3P1  OC2D1     1  0.289542083396  0.648182492821
 NG3P1  OC2D3     1  0.289542083396  0.648182492821
 NG3P1  OC2D4     1  0.289542083396  0.648182492821
 NG3P1    OCA     1  0.289542083396  0.648182492821
 NG3P1  OG2D1     1  0.289542083396  0.648182492821
 NG3P1  OG2D3     1  0.289542083396  0.648182492821
 NG3P1   OLG1     1  0.289542083396  0.648182492821
 NG3P2    NH1     1  0.302905564168  0.836800000000
 NG3P2    NHL     1  0.302905564168  0.836800000000
 NG3P2      O     1  0.289542083396  0.648182492821
 NG3P2     OB     1  0.289542083396  0.648182492821
 NG3P2    OBL     1  0.289542083396  0.648182492821
 NG3P2  OC2D1     1  0.289542083396  0.648182492821
 NG3P2  OC2D3     1  0.289542083396  0.648182492821
 NG3P2  OC2D4     1  0.289542083396  0.648182492821
 NG3P2    OCA     1  0.289542083396  0.648182492821
 NG3P2  OG2D1     1  0.289542083396  0.648182492821
 NG3P2  OG2D3     1  0.289542083396  0.648182492821
 NG3P2   OLG1     1  0.289542083396  0.648182492821
 NG3P3    NH1     1  0.302905564168  0.836800000000
 NG3P3    NHL     1  0.302905564168  0.836800000000
 NG3P3      O     1  0.289542083396  0.648182492821
 NG3P3     OB     1  0.289542083396  0.648182492821
 NG3P3    OBL     1  0.289542083396  0.648182492821
 NG3P3  OC2D1     1  0.289542083396  0.648182492821
 NG3P3  OC2D3     1  0.289542083396  0.648182492821
 NG3P3  OC2D4     1  0.289542083396  0.648182492821
 NG3P3    OCA     1  0.289542083396  0.648182492821
 NG3P3  OG2D1     1  0.289542083396  0.648182492821
 NG3P3  OG2D3     1  0.289542083396  0.648182492821
 NG3P3   OLG1     1  0.289542083396  0.648182492821
   NH1    NH1     1  0.276178602624  0.836800000000
   NH1    NH2     1  0.302905564168  0.836800000000
   NH1    NH3     1  0.302905564168  0.836800000000
   NH1   NH3L     1  0.302905564168  0.836800000000
   NH1    NHL     1  0.276178602624  0.836800000000
   NH1     NI     1  0.251767977746  4.447653008048
   NH1   NI2P     1  0.207606128288  0.708567533888
   NH1    NN1     1  0.302905564168  0.836800000000
   NH1   NN1C     1  0.302905564168  0.836800000000
   NH1    NN2     1  0.302905564168  0.836800000000
   NH1   NN2B     1  0.302905564168  0.836800000000
   NH1   NN2C     1  0.302905564168  0.836800000000
   NH1   NN2G     1  0.302905564168  0.836800000000
   NH1   NN2U     1  0.302905564168  0.836800000000
   NH1    NN3     1  0.302905564168  0.836800000000
   NH1   NN3A     1  0.302905564168  0.836800000000
   NH1   NN3G     1  0.302905564168  0.836800000000
   NH1   NN3I     1  0.302905564168  0.836800000000
   NH1    NN4     1  0.302905564168  0.836800000000
   NH1    NN6     1  0.302905564168  0.836800000000
   NH1    NNG     1  0.302905564168  0.836800000000
   NH1     NP     1  0.302905564168  0.836800000000
   NH1    NPH     1  0.302905564168  0.836800000000
   NH1    NR1     1  0.302905564168  0.836800000000
   NH1    NR2     1  0.302905564168  0.836800000000
   NH1    NR3     1  0.302905564168  0.836800000000
   NH1   NRC4     1  0.302905564168  0.836800000000
   NH1   NRN1     1  0.316269044940  1.255200000000
   NH1   NRN2     1  0.315378146222  0.458334236120
   NH1    NS1     1  0.302905564168  0.836800000000
   NH1    NS2     1  0.302905564168  0.836800000000
   NH1    NTL     1  0.302905564168  0.836800000000
   NH1     NY     1  0.302905564168  0.836800000000
   NH1      O     1  0.262815121851  0.648182492821
   NH1    O2L     1  0.289542083396  0.648182492821
   NH1    OAL     1  0.295778374423  0.729745256593
   NH1     OB     1  0.262815121851  0.648182492821
   NH1    OBL     1  0.262815121851  0.648182492821
   NH1     OC     1  0.289542083396  0.648182492821
   NH1  OC2D1     1  0.262815121851  0.648182492821
   NH1  OC2D2     1  0.289542083396  0.648182492821
   NH1  OC2D3     1  0.262815121851  0.648182492821
   NH1  OC2D4     1  0.262815121851  0.648182492821
   NH1  OC2DP     1  0.289542083396  0.648182492821
   NH1  OC301     1  0.285087589805  0.591706954497
   NH1  OC302     1  0.285087589805  0.591706954497
   NH1  OC303     1  0.285087589805  0.591706954497
   NH1 OC305A     1  0.285087589805  0.591706954497
   NH1  OC30A     1  0.285087589805  0.591706954497
   NH1  OC30P     1  0.295778374423  0.729745256593
   NH1  OC311     1  0.295332925064  0.820106692766
   NH1 OC311M     1  0.295332925064  0.820106692766
   NH1  OC312     1  0.295778374423  0.729745256593
   NH1 OC3C51     1  0.285087589805  0.591706954497
   NH1 OC3C5M     1  0.285087589805  0.591706954497
   NH1 OC3C61     1  0.285087589805  0.591706954497
   NH1    OCA     1  0.262815121851  0.648182492821
   NH1    OCL     1  0.289542083396  0.648182492821
   NH1  OG2D1     1  0.262815121851  0.648182492821
   NH1  OG2D2     1  0.289542083396  0.648182492821
   NH1  OG2D3     1  0.262815121851  0.648182492821
   NH1  OG2D4     1  0.289542083396  0.648182492821
   NH1  OG2D5     1  0.288829364421  0.760061344893
   NH1  OG2N1     1  0.289542083396  0.648182492821
   NH1  OG2P1     1  0.289542083396  0.648182492821
   NH1 OG2R50     1  0.289542083396  0.648182492821
   NH1  OG2S1     1  0.287724650011  0.705844644210
   NH1  OG301     1  0.285087589805  0.591706954497
   NH1  OG302     1  0.285087589805  0.591706954497
   NH1  OG303     1  0.285087589805  0.591706954497
   NH1  OG304     1  0.285087589805  0.591706954497
   NH1  OG311     1  0.295332925064  0.820106692766
   NH1  OG312     1  0.293996576986  0.648182492821
   NH1 OG3C31     1  0.285087589805  0.591706954497
   NH1 OG3C51     1  0.285087589805  0.591706954497
   NH1 OG3C61     1  0.285087589805  0.591706954497
   NH1 OG3R60     1  0.285087589805  0.591706954497
   NH1    OH1     1  0.295778374423  0.729745256593
   NH1    OHL     1  0.295778374423  0.729745256593
   NH1   OLG1     1  0.262815121851  0.648182492821
   NH1   OLG2     1  0.289542083396  0.648182492821
   NH1   OLG3     1  0.289542083396  0.648182492821
   NH1   OLG4     1  0.285087589805  0.591706954497
   NH1   OLG5     1  0.285087589805  0.591706954497
   NH1   OLG6     1  0.295332925064  0.820106692766
   NH1   OLG7     1  0.285087589805  0.591706954497
   NH1   OLG8     1  0.285087589805  0.591706954497
   NH1     OM     1  0.289542083396  0.648182492821
   NH1    ON1     1  0.289542083396  0.648182492821
   NH1   ON1C     1  0.289542083396  0.648182492821
   NH1    ON2     1  0.295778374423  0.729745256593
   NH1   ON2B     1  0.295778374423  0.729745256593
   NH1   ON2M     1  0.285087589805  0.591706954497
   NH1    ON3     1  0.289542083396  0.648182492821
   NH1    ON4     1  0.295778374423  0.729745256593
   NH1    ON5     1  0.295778374423  0.729745256593
   NH1    ON6     1  0.295778374423  0.729745256593
   NH1   ON6B     1  0.295778374423  0.729745256593
   NH1   OPER     1  0.287246237399  0.844795086046
   NH1     OS     1  0.295778374423  0.729745256593
   NH1   OSIA     1  0.295778374423  0.729745256593
   NH1   OSIE     1  0.295778374423  0.729745256593
   NH1   OSIH     1  0.295778374423  0.729745256593
   NH1    OSL     1  0.285087589805  0.591706954497
   NH1   OSLP     1  0.285087589805  0.591706954497
   NH1    OST     1  0.288829364421  0.760061344893
   NH1     OT     1  0.295618012653  0.729745256593
   NH1     OX     1  0.289542083396  0.648182492821
   NH1      P     1  0.329632525712  1.431148193584
   NH1     P2     1  0.329632525712  1.431148193584
   NH1     P3     1  0.329632525712  1.431148193584
   NH1     P4     1  0.329632525712  1.431148193584
   NH1     PB     1  0.296891997820  3.202878645219
   NH1   PB2P     1  0.294709295961  0.915521919607
   NH1     PC     1  0.329632525712  1.431148193584
   NH1     PD     1  0.263661475634  4.640280474282
   NH1   PD2P     1  0.220684521471  0.780963522221
   NH1    PG0     1  0.329632525712  1.431148193584
   NH1    PG1     1  0.329632525712  1.431148193584
   NH1    PG2     1  0.329632525712  1.431148193584
   NH1     PL     1  0.329632525712  1.431148193584
   NH1   PM3P     1  0.285729036882  0.788326003630
   NH1    POT     1  0.295221562724  0.551907505294
   NH1   PR3P     1  0.285898307638  0.798913956418
   NH1     PT     1  0.264819643967  5.225814325060
   NH1   PT2P     1  0.209102838135  0.755672563165
   NH1   PU3P     1  0.286842660280  0.802848440193
   NH1   RA2P     1  0.324278224416  1.028106796632
   NH1   RH3P     1  0.179186459180  0.670746225632
   NH1    RUB     1  0.307360057758  0.724690057887
   NH1      S     1  0.316269044940  1.255200000000
   NH1     SC     1  0.325178032121  1.282790109098
   NH1   SC3P     1  0.235811981705  0.702613079298
   NH1  SEGD1     1  0.331859772507  1.476898661926
   NH1  SG2D1     1  0.320723538531  1.406471374753
   NH1  SG2P1     1  0.324616765929  1.486115336359
   NH1  SG2P2     1  0.321133351941  1.473219612576
   NH1 SG2R50     1  0.316269044940  1.255200000000
   NH1  SG301     1  0.314041798144  1.153449199575
   NH1  SG302     1  0.334087019303  1.282790109098
   NH1  SG311     1  0.316269044940  1.255200000000
   NH1  SG3O1     1  0.325178032121  1.282790109098
   NH1  SG3O2     1  0.316269044940  1.106982348549
   NH1  SG3O3     1  0.316269044940  1.106982348549
   NH1     SI     1  0.334087019303  1.449380115774
   NH1   SIH3     1  0.334087019303  1.449380115774
   NH1     SL     1  0.325178032121  1.282790109098
   NH1     SM     1  0.314041798144  1.153449199575
   NH1   SM2P     1  0.303484648335  0.925789776224
   NH1   SM3P     1  0.277666403483  0.784318672377
   NH1   SN2P     1  0.285800308779  0.811091898912
   NH1    SOD     1  0.263772837973  0.405222074029
   NH1     SP     1  0.334087019303  1.255200000000
   NH1   SR2P     1  0.303431194411  0.895024005578
   NH1     SS     1  0.334087019303  1.282790109098
   NH1   TB3P     1  0.269496862237  0.769901476918
   NH1   TI1P     1  0.310095116823  1.193283841774
   NH1   TI3P     1  0.211935896058  0.670746225632
   NH1   TL3P     1  0.215535126880  0.755209102488
   NH1   TM3P     1  0.258235902440  0.753120000000
   NH1    U3P     1  0.289648991242  0.814752759750
   NH1    V2P     1  0.236417792833  0.750558755915
   NH1    V3P     1  0.192808300580  0.657833383403
   NH1    Y3P     1  0.264008926134  0.761442020590
   NH1   YB2P     1  0.281434905061  0.848021558971
   NH1   YB3P     1  0.253478503285  0.749391660269
   NH1     ZN     1  0.235197261589  0.935570841786
   NH2    NHL     1  0.302905564168  0.836800000000
   NH2      O     1  0.289542083396  0.648182492821
   NH2     OB     1  0.289542083396  0.648182492821
   NH2    OBL     1  0.289542083396  0.648182492821
   NH2  OC2D1     1  0.289542083396  0.648182492821
   NH2  OC2D3     1  0.289542083396  0.648182492821
   NH2  OC2D4     1  0.289542083396  0.648182492821
   NH2    OCA     1  0.289542083396  0.648182492821
   NH2  OG2D1     1  0.289542083396  0.648182492821
   NH2  OG2D3     1  0.289542083396  0.648182492821
   NH2   OLG1     1  0.289542083396  0.648182492821
   NH3    NHL     1  0.302905564168  0.836800000000
   NH3      O     1  0.289542083396  0.648182492821
   NH3     OB     1  0.289542083396  0.648182492821
   NH3    OBL     1  0.289542083396  0.648182492821
   NH3  OC2D1     1  0.289542083396  0.648182492821
   NH3  OC2D3     1  0.289542083396  0.648182492821
   NH3  OC2D4     1  0.289542083396  0.648182492821
   NH3    OCA     1  0.289542083396  0.648182492821
   NH3  OG2D1     1  0.289542083396  0.648182492821
   NH3  OG2D3     1  0.289542083396  0.648182492821
   NH3   OLG1     1  0.289542083396  0.648182492821
  NH3L    NHL     1  0.302905564168  0.836800000000
  NH3L      O     1  0.289542083396  0.648182492821
  NH3L     OB     1  0.289542083396  0.648182492821
  NH3L    OBL     1  0.289542083396  0.648182492821
  NH3L  OC2D1     1  0.289542083396  0.648182492821
  NH3L  OC2D3     1  0.289542083396  0.648182492821
  NH3L  OC2D4     1  0.289542083396  0.648182492821
  NH3L    OCA     1  0.289542083396  0.648182492821
  NH3L  OG2D1     1  0.289542083396  0.648182492821
  NH3L  OG2D3     1  0.289542083396  0.648182492821
  NH3L   OLG1     1  0.289542083396  0.648182492821
   NHL    NHL     1  0.276178602624  0.836800000000
   NHL     NI     1  0.251767977746  4.447653008048
   NHL   NI2P     1  0.207606128288  0.708567533888
   NHL    NN1     1  0.302905564168  0.836800000000
   NHL   NN1C     1  0.302905564168  0.836800000000
   NHL    NN2     1  0.302905564168  0.836800000000
   NHL   NN2B     1  0.302905564168  0.836800000000
   NHL   NN2C     1  0.302905564168  0.836800000000
   NHL   NN2G     1  0.302905564168  0.836800000000
   NHL   NN2U     1  0.302905564168  0.836800000000
   NHL    NN3     1  0.302905564168  0.836800000000
   NHL   NN3A     1  0.302905564168  0.836800000000
   NHL   NN3G     1  0.302905564168  0.836800000000
   NHL   NN3I     1  0.302905564168  0.836800000000
   NHL    NN4     1  0.302905564168  0.836800000000
   NHL    NN6     1  0.302905564168  0.836800000000
   NHL    NNG     1  0.302905564168  0.836800000000
   NHL     NP     1  0.302905564168  0.836800000000
   NHL    NPH     1  0.302905564168  0.836800000000
   NHL    NR1     1  0.302905564168  0.836800000000
   NHL    NR2     1  0.302905564168  0.836800000000
   NHL    NR3     1  0.302905564168  0.836800000000
   NHL   NRC4     1  0.302905564168  0.836800000000
   NHL   NRN1     1  0.316269044940  1.255200000000
   NHL   NRN2     1  0.315378146222  0.458334236120
   NHL    NS1     1  0.302905564168  0.836800000000
   NHL    NS2     1  0.302905564168  0.836800000000
   NHL    NTL     1  0.302905564168  0.836800000000
   NHL     NY     1  0.302905564168  0.836800000000
   NHL      O     1  0.262815121851  0.648182492821
   NHL    O2L     1  0.289542083396  0.648182492821
   NHL    OAL     1  0.295778374423  0.729745256593
   NHL     OB     1  0.262815121851  0.648182492821
   NHL    OBL     1  0.262815121851  0.648182492821
   NHL     OC     1  0.289542083396  0.648182492821
   NHL  OC2D1     1  0.262815121851  0.648182492821
   NHL  OC2D2     1  0.289542083396  0.648182492821
   NHL  OC2D3     1  0.262815121851  0.648182492821
   NHL  OC2D4     1  0.262815121851  0.648182492821
   NHL  OC2DP     1  0.289542083396  0.648182492821
   NHL  OC301     1  0.285087589805  0.591706954497
   NHL  OC302     1  0.285087589805  0.591706954497
   NHL  OC303     1  0.285087589805  0.591706954497
   NHL OC305A     1  0.285087589805  0.591706954497
   NHL  OC30A     1  0.285087589805  0.591706954497
   NHL  OC30P     1  0.295778374423  0.729745256593
   NHL  OC311     1  0.295332925064  0.820106692766
   NHL OC311M     1  0.295332925064  0.820106692766
   NHL  OC312     1  0.295778374423  0.729745256593
   NHL OC3C51     1  0.285087589805  0.591706954497
   NHL OC3C5M     1  0.285087589805  0.591706954497
   NHL OC3C61     1  0.285087589805  0.591706954497
   NHL    OCA     1  0.262815121851  0.648182492821
   NHL    OCL     1  0.289542083396  0.648182492821
   NHL  OG2D1     1  0.262815121851  0.648182492821
   NHL  OG2D2     1  0.289542083396  0.648182492821
   NHL  OG2D3     1  0.262815121851  0.648182492821
   NHL  OG2D4     1  0.289542083396  0.648182492821
   NHL  OG2D5     1  0.288829364421  0.760061344893
   NHL  OG2N1     1  0.289542083396  0.648182492821
   NHL  OG2P1     1  0.289542083396  0.648182492821
   NHL OG2R50     1  0.289542083396  0.648182492821
   NHL  OG2S1     1  0.287724650011  0.705844644210
   NHL  OG301     1  0.285087589805  0.591706954497
   NHL  OG302     1  0.285087589805  0.591706954497
   NHL  OG303     1  0.285087589805  0.591706954497
   NHL  OG304     1  0.285087589805  0.591706954497
   NHL  OG311     1  0.295332925064  0.820106692766
   NHL  OG312     1  0.293996576986  0.648182492821
   NHL OG3C31     1  0.285087589805  0.591706954497
   NHL OG3C51     1  0.285087589805  0.591706954497
   NHL OG3C61     1  0.285087589805  0.591706954497
   NHL OG3R60     1  0.285087589805  0.591706954497
   NHL    OH1     1  0.295778374423  0.729745256593
   NHL    OHL     1  0.295778374423  0.729745256593
   NHL   OLG1     1  0.262815121851  0.648182492821
   NHL   OLG2     1  0.289542083396  0.648182492821
   NHL   OLG3     1  0.289542083396  0.648182492821
   NHL   OLG4     1  0.285087589805  0.591706954497
   NHL   OLG5     1  0.285087589805  0.591706954497
   NHL   OLG6     1  0.295332925064  0.820106692766
   NHL   OLG7     1  0.285087589805  0.591706954497
   NHL   OLG8     1  0.285087589805  0.591706954497
   NHL     OM     1  0.289542083396  0.648182492821
   NHL    ON1     1  0.289542083396  0.648182492821
   NHL   ON1C     1  0.289542083396  0.648182492821
   NHL    ON2     1  0.295778374423  0.729745256593
   NHL   ON2B     1  0.295778374423  0.729745256593
   NHL   ON2M     1  0.285087589805  0.591706954497
   NHL    ON3     1  0.289542083396  0.648182492821
   NHL    ON4     1  0.295778374423  0.729745256593
   NHL    ON5     1  0.295778374423  0.729745256593
   NHL    ON6     1  0.295778374423  0.729745256593
   NHL   ON6B     1  0.295778374423  0.729745256593
   NHL   OPER     1  0.287246237399  0.844795086046
   NHL     OS     1  0.295778374423  0.729745256593
   NHL   OSIA     1  0.295778374423  0.729745256593
   NHL   OSIE     1  0.295778374423  0.729745256593
   NHL   OSIH     1  0.295778374423  0.729745256593
   NHL    OSL     1  0.285087589805  0.591706954497
   NHL   OSLP     1  0.285087589805  0.591706954497
   NHL    OST     1  0.288829364421  0.760061344893
   NHL     OT     1  0.295618012653  0.729745256593
   NHL     OX     1  0.289542083396  0.648182492821
   NHL      P     1  0.329632525712  1.431148193584
   NHL     P2     1  0.329632525712  1.431148193584
   NHL     P3     1  0.329632525712  1.431148193584
   NHL     P4     1  0.329632525712  1.431148193584
   NHL     PB     1  0.296891997820  3.202878645219
   NHL   PB2P     1  0.294709295961  0.915521919607
   NHL     PC     1  0.329632525712  1.431148193584
   NHL     PD     1  0.263661475634  4.640280474282
   NHL   PD2P     1  0.220684521471  0.780963522221
   NHL    PG0     1  0.329632525712  1.431148193584
   NHL    PG1     1  0.329632525712  1.431148193584
   NHL    PG2     1  0.329632525712  1.431148193584
   NHL     PL     1  0.329632525712  1.431148193584
   NHL   PM3P     1  0.285729036882  0.788326003630
   NHL    POT     1  0.295221562724  0.551907505294
   NHL   PR3P     1  0.285898307638  0.798913956418
   NHL     PT     1  0.264819643967  5.225814325060
   NHL   PT2P     1  0.209102838135  0.755672563165
   NHL   PU3P     1  0.286842660280  0.802848440193
   NHL   RA2P     1  0.324278224416  1.028106796632
   NHL   RH3P     1  0.179186459180  0.670746225632
   NHL    RUB     1  0.307360057758  0.724690057887
   NHL      S     1  0.316269044940  1.255200000000
   NHL     SC     1  0.325178032121  1.282790109098
   NHL   SC3P     1  0.235811981705  0.702613079298
   NHL  SEGD1     1  0.331859772507  1.476898661926
   NHL  SG2D1     1  0.320723538531  1.406471374753
   NHL  SG2P1     1  0.324616765929  1.486115336359
   NHL  SG2P2     1  0.321133351941  1.473219612576
   NHL SG2R50     1  0.316269044940  1.255200000000
   NHL  SG301     1  0.314041798144  1.153449199575
   NHL  SG302     1  0.334087019303  1.282790109098
   NHL  SG311     1  0.316269044940  1.255200000000
   NHL  SG3O1     1  0.325178032121  1.282790109098
   NHL  SG3O2     1  0.316269044940  1.106982348549
   NHL  SG3O3     1  0.316269044940  1.106982348549
   NHL     SI     1  0.334087019303  1.449380115774
   NHL   SIH3     1  0.334087019303  1.449380115774
   NHL     SL     1  0.325178032121  1.282790109098
   NHL     SM     1  0.314041798144  1.153449199575
   NHL   SM2P     1  0.303484648335  0.925789776224
   NHL   SM3P     1  0.277666403483  0.784318672377
   NHL   SN2P     1  0.285800308779  0.811091898912
   NHL    SOD     1  0.263772837973  0.405222074029
   NHL     SP     1  0.334087019303  1.255200000000
   NHL   SR2P     1  0.303431194411  0.895024005578
   NHL     SS     1  0.334087019303  1.282790109098
   NHL   TB3P     1  0.269496862237  0.769901476918
   NHL   TI1P     1  0.310095116823  1.193283841774
   NHL   TI3P     1  0.211935896058  0.670746225632
   NHL   TL3P     1  0.215535126880  0.755209102488
   NHL   TM3P     1  0.258235902440  0.753120000000
   NHL    U3P     1  0.289648991242  0.814752759750
   NHL    V2P     1  0.236417792833  0.750558755915
   NHL    V3P     1  0.192808300580  0.657833383403
   NHL    Y3P     1  0.264008926134  0.761442020590
   NHL   YB2P     1  0.281434905061  0.848021558971
   NHL   YB3P     1  0.253478503285  0.749391660269
   NHL     ZN     1  0.235197261589  0.935570841786
    NI      O     1  0.238404496974  3.445137205976
    NI     OB     1  0.238404496974  3.445137205976
    NI    OBL     1  0.238404496974  3.445137205976
    NI  OC2D1     1  0.238404496974  3.445137205976
    NI  OC2D3     1  0.238404496974  3.445137205976
    NI  OC2D4     1  0.238404496974  3.445137205976
    NI    OCA     1  0.238404496974  3.445137205976
    NI  OG2D1     1  0.238404496974  3.445137205976
    NI  OG2D3     1  0.238404496974  3.445137205976
    NI   OLG1     1  0.238404496974  3.445137205976
  NI2P      O     1  0.194242647516  0.548854051682
  NI2P     OB     1  0.194242647516  0.548854051682
  NI2P    OBL     1  0.194242647516  0.548854051682
  NI2P  OC2D1     1  0.194242647516  0.548854051682
  NI2P  OC2D3     1  0.194242647516  0.548854051682
  NI2P  OC2D4     1  0.194242647516  0.548854051682
  NI2P    OCA     1  0.194242647516  0.548854051682
  NI2P  OG2D1     1  0.194242647516  0.548854051682
  NI2P  OG2D3     1  0.194242647516  0.548854051682
  NI2P   OLG1     1  0.194242647516  0.548854051682
   NN1      O     1  0.289542083396  0.648182492821
   NN1     OB     1  0.289542083396  0.648182492821
   NN1    OBL     1  0.289542083396  0.648182492821
   NN1  OC2D1     1  0.289542083396  0.648182492821
   NN1  OC2D3     1  0.289542083396  0.648182492821
   NN1  OC2D4     1  0.289542083396  0.648182492821
   NN1    OCA     1  0.289542083396  0.648182492821
   NN1  OG2D1     1  0.289542083396  0.648182492821
   NN1  OG2D3     1  0.289542083396  0.648182492821
   NN1   OLG1     1  0.289542083396  0.648182492821
  NN1C      O     1  0.289542083396  0.648182492821
  NN1C     OB     1  0.289542083396  0.648182492821
  NN1C    OBL     1  0.289542083396  0.648182492821
  NN1C  OC2D1     1  0.289542083396  0.648182492821
  NN1C  OC2D3     1  0.289542083396  0.648182492821
  NN1C  OC2D4     1  0.289542083396  0.648182492821
  NN1C    OCA     1  0.289542083396  0.648182492821
  NN1C  OG2D1     1  0.289542083396  0.648182492821
  NN1C  OG2D3     1  0.289542083396  0.648182492821
  NN1C   OLG1     1  0.289542083396  0.648182492821
   NN2      O     1  0.289542083396  0.648182492821
   NN2     OB     1  0.289542083396  0.648182492821
   NN2    OBL     1  0.289542083396  0.648182492821
   NN2  OC2D1     1  0.289542083396  0.648182492821
   NN2  OC2D3     1  0.289542083396  0.648182492821
   NN2  OC2D4     1  0.289542083396  0.648182492821
   NN2    OCA     1  0.289542083396  0.648182492821
   NN2  OG2D1     1  0.289542083396  0.648182492821
   NN2  OG2D3     1  0.289542083396  0.648182492821
   NN2   OLG1     1  0.289542083396  0.648182492821
  NN2B      O     1  0.289542083396  0.648182492821
  NN2B     OB     1  0.289542083396  0.648182492821
  NN2B    OBL     1  0.289542083396  0.648182492821
  NN2B  OC2D1     1  0.289542083396  0.648182492821
  NN2B  OC2D3     1  0.289542083396  0.648182492821
  NN2B  OC2D4     1  0.289542083396  0.648182492821
  NN2B    OCA     1  0.289542083396  0.648182492821
  NN2B  OG2D1     1  0.289542083396  0.648182492821
  NN2B  OG2D3     1  0.289542083396  0.648182492821
  NN2B   OLG1     1  0.289542083396  0.648182492821
  NN2C      O     1  0.289542083396  0.648182492821
  NN2C     OB     1  0.289542083396  0.648182492821
  NN2C    OBL     1  0.289542083396  0.648182492821
  NN2C  OC2D1     1  0.289542083396  0.648182492821
  NN2C  OC2D3     1  0.289542083396  0.648182492821
  NN2C  OC2D4     1  0.289542083396  0.648182492821
  NN2C    OCA     1  0.289542083396  0.648182492821
  NN2C  OG2D1     1  0.289542083396  0.648182492821
  NN2C  OG2D3     1  0.289542083396  0.648182492821
  NN2C   OLG1     1  0.289542083396  0.648182492821
  NN2G      O     1  0.289542083396  0.648182492821
  NN2G     OB     1  0.289542083396  0.648182492821
  NN2G    OBL     1  0.289542083396  0.648182492821
  NN2G  OC2D1     1  0.289542083396  0.648182492821
  NN2G  OC2D3     1  0.289542083396  0.648182492821
  NN2G  OC2D4     1  0.289542083396  0.648182492821
  NN2G    OCA     1  0.289542083396  0.648182492821
  NN2G  OG2D1     1  0.289542083396  0.648182492821
  NN2G  OG2D3     1  0.289542083396  0.648182492821
  NN2G   OLG1     1  0.289542083396  0.648182492821
  NN2U      O     1  0.289542083396  0.648182492821
  NN2U     OB     1  0.289542083396  0.648182492821
  NN2U    OBL     1  0.289542083396  0.648182492821
  NN2U  OC2D1     1  0.289542083396  0.648182492821
  NN2U  OC2D3     1  0.289542083396  0.648182492821
  NN2U  OC2D4     1  0.289542083396  0.648182492821
  NN2U    OCA     1  0.289542083396  0.648182492821
  NN2U  OG2D1     1  0.289542083396  0.648182492821
  NN2U  OG2D3     1  0.289542083396  0.648182492821
  NN2U   OLG1     1  0.289542083396  0.648182492821
   NN3      O     1  0.289542083396  0.648182492821
   NN3     OB     1  0.289542083396  0.648182492821
   NN3    OBL     1  0.289542083396  0.648182492821
   NN3  OC2D1     1  0.289542083396  0.648182492821
   NN3  OC2D3     1  0.289542083396  0.648182492821
   NN3  OC2D4     1  0.289542083396  0.648182492821
   NN3    OCA     1  0.289542083396  0.648182492821
   NN3  OG2D1     1  0.289542083396  0.648182492821
   NN3  OG2D3     1  0.289542083396  0.648182492821
   NN3   OLG1     1  0.289542083396  0.648182492821
  NN3A      O     1  0.289542083396  0.648182492821
  NN3A     OB     1  0.289542083396  0.648182492821
  NN3A    OBL     1  0.289542083396  0.648182492821
  NN3A  OC2D1     1  0.289542083396  0.648182492821
  NN3A  OC2D3     1  0.289542083396  0.648182492821
  NN3A  OC2D4     1  0.289542083396  0.648182492821
  NN3A    OCA     1  0.289542083396  0.648182492821
  NN3A  OG2D1     1  0.289542083396  0.648182492821
  NN3A  OG2D3     1  0.289542083396  0.648182492821
  NN3A   OLG1     1  0.289542083396  0.648182492821
  NN3G      O     1  0.289542083396  0.648182492821
  NN3G     OB     1  0.289542083396  0.648182492821
  NN3G    OBL     1  0.289542083396  0.648182492821
  NN3G  OC2D1     1  0.289542083396  0.648182492821
  NN3G  OC2D3     1  0.289542083396  0.648182492821
  NN3G  OC2D4     1  0.289542083396  0.648182492821
  NN3G    OCA     1  0.289542083396  0.648182492821
  NN3G  OG2D1     1  0.289542083396  0.648182492821
  NN3G  OG2D3     1  0.289542083396  0.648182492821
  NN3G   OLG1     1  0.289542083396  0.648182492821
  NN3I      O     1  0.289542083396  0.648182492821
  NN3I     OB     1  0.289542083396  0.648182492821
  NN3I    OBL     1  0.289542083396  0.648182492821
  NN3I  OC2D1     1  0.289542083396  0.648182492821
  NN3I  OC2D3     1  0.289542083396  0.648182492821
  NN3I  OC2D4     1  0.289542083396  0.648182492821
  NN3I    OCA     1  0.289542083396  0.648182492821
  NN3I  OG2D1     1  0.289542083396  0.648182492821
  NN3I  OG2D3     1  0.289542083396  0.648182492821
  NN3I   OLG1     1  0.289542083396  0.648182492821
   NN4      O     1  0.289542083396  0.648182492821
   NN4     OB     1  0.289542083396  0.648182492821
   NN4    OBL     1  0.289542083396  0.648182492821
   NN4  OC2D1     1  0.289542083396  0.648182492821
   NN4  OC2D3     1  0.289542083396  0.648182492821
   NN4  OC2D4     1  0.289542083396  0.648182492821
   NN4    OCA     1  0.289542083396  0.648182492821
   NN4  OG2D1     1  0.289542083396  0.648182492821
   NN4  OG2D3     1  0.289542083396  0.648182492821
   NN4   OLG1     1  0.289542083396  0.648182492821
   NN6      O     1  0.289542083396  0.648182492821
   NN6     OB     1  0.289542083396  0.648182492821
   NN6    OBL     1  0.289542083396  0.648182492821
   NN6  OC2D1     1  0.289542083396  0.648182492821
   NN6  OC2D3     1  0.289542083396  0.648182492821
   NN6  OC2D4     1  0.289542083396  0.648182492821
   NN6    OCA     1  0.289542083396  0.648182492821
   NN6  OG2D1     1  0.289542083396  0.648182492821
   NN6  OG2D3     1  0.289542083396  0.648182492821
   NN6   OLG1     1  0.289542083396  0.648182492821
   NNG      O     1  0.289542083396  0.648182492821
   NNG     OB     1  0.289542083396  0.648182492821
   NNG    OBL     1  0.289542083396  0.648182492821
   NNG  OC2D1     1  0.289542083396  0.648182492821
   NNG  OC2D3     1  0.289542083396  0.648182492821
   NNG  OC2D4     1  0.289542083396  0.648182492821
   NNG    OCA     1  0.289542083396  0.648182492821
   NNG  OG2D1     1  0.289542083396  0.648182492821
   NNG  OG2D3     1  0.289542083396  0.648182492821
   NNG   OLG1     1  0.289542083396  0.648182492821
    NP      O     1  0.289542083396  0.648182492821
    NP     OB     1  0.289542083396  0.648182492821
    NP    OBL     1  0.289542083396  0.648182492821
    NP  OC2D1     1  0.289542083396  0.648182492821
    NP  OC2D3     1  0.289542083396  0.648182492821
    NP  OC2D4     1  0.289542083396  0.648182492821
    NP    OCA     1  0.289542083396  0.648182492821
    NP  OG2D1     1  0.289542083396  0.648182492821
    NP  OG2D3     1  0.289542083396  0.648182492821
    NP   OLG1     1  0.289542083396  0.648182492821
   NPH      O     1  0.289542083396  0.648182492821
   NPH     OB     1  0.289542083396  0.648182492821
   NPH    OBL     1  0.289542083396  0.648182492821
   NPH  OC2D1     1  0.289542083396  0.648182492821
   NPH  OC2D3     1  0.289542083396  0.648182492821
   NPH  OC2D4     1  0.289542083396  0.648182492821
   NPH    OCA     1  0.289542083396  0.648182492821
   NPH  OG2D1     1  0.289542083396  0.648182492821
   NPH  OG2D3     1  0.289542083396  0.648182492821
   NPH   OLG1     1  0.289542083396  0.648182492821
   NR1      O     1  0.289542083396  0.648182492821
   NR1     OB     1  0.289542083396  0.648182492821
   NR1    OBL     1  0.289542083396  0.648182492821
   NR1  OC2D1     1  0.289542083396  0.648182492821
   NR1  OC2D3     1  0.289542083396  0.648182492821
   NR1  OC2D4     1  0.289542083396  0.648182492821
   NR1    OCA     1  0.289542083396  0.648182492821
   NR1  OG2D1     1  0.289542083396  0.648182492821
   NR1  OG2D3     1  0.289542083396  0.648182492821
   NR1   OLG1     1  0.289542083396  0.648182492821
   NR2      O     1  0.289542083396  0.648182492821
   NR2     OB     1  0.289542083396  0.648182492821
   NR2    OBL     1  0.289542083396  0.648182492821
   NR2  OC2D1     1  0.289542083396  0.648182492821
   NR2  OC2D3     1  0.289542083396  0.648182492821
   NR2  OC2D4     1  0.289542083396  0.648182492821
   NR2    OCA     1  0.289542083396  0.648182492821
   NR2  OG2D1     1  0.289542083396  0.648182492821
   NR2  OG2D3     1  0.289542083396  0.648182492821
   NR2   OLG1     1  0.289542083396  0.648182492821
   NR3      O     1  0.289542083396  0.648182492821
   NR3     OB     1  0.289542083396  0.648182492821
   NR3    OBL     1  0.289542083396  0.648182492821
   NR3  OC2D1     1  0.289542083396  0.648182492821
   NR3  OC2D3     1  0.289542083396  0.648182492821
   NR3  OC2D4     1  0.289542083396  0.648182492821
   NR3    OCA     1  0.289542083396  0.648182492821
   NR3  OG2D1     1  0.289542083396  0.648182492821
   NR3  OG2D3     1  0.289542083396  0.648182492821
   NR3   OLG1     1  0.289542083396  0.648182492821
  NRC4      O     1  0.289542083396  0.648182492821
  NRC4     OB     1  0.289542083396  0.648182492821
  NRC4    OBL     1  0.289542083396  0.648182492821
  NRC4  OC2D1     1  0.289542083396  0.648182492821
  NRC4  OC2D3     1  0.289542083396  0.648182492821
  NRC4  OC2D4     1  0.289542083396  0.648182492821
  NRC4    OCA     1  0.289542083396  0.648182492821
  NRC4  OG2D1     1  0.289542083396  0.648182492821
  NRC4  OG2D3     1  0.289542083396  0.648182492821
  NRC4   OLG1     1  0.289542083396  0.648182492821
  NRN1      O     1  0.302905564168  0.972273739232
  NRN1     OB     1  0.302905564168  0.972273739232
  NRN1    OBL     1  0.302905564168  0.972273739232
  NRN1  OC2D1     1  0.302905564168  0.972273739232
  NRN1  OC2D3     1  0.302905564168  0.972273739232
  NRN1  OC2D4     1  0.302905564168  0.972273739232
  NRN1    OCA     1  0.302905564168  0.972273739232
  NRN1  OG2D1     1  0.302905564168  0.972273739232
  NRN1  OG2D3     1  0.302905564168  0.972273739232
  NRN1   OLG1     1  0.302905564168  0.972273739232
  NRN2      O     1  0.302014665450  0.355024172698
  NRN2     OB     1  0.302014665450  0.355024172698
  NRN2    OBL     1  0.302014665450  0.355024172698
  NRN2  OC2D1     1  0.302014665450  0.355024172698
  NRN2  OC2D3     1  0.302014665450  0.355024172698
  NRN2  OC2D4     1  0.302014665450  0.355024172698
  NRN2    OCA     1  0.302014665450  0.355024172698
  NRN2  OG2D1     1  0.302014665450  0.355024172698
  NRN2  OG2D3     1  0.302014665450  0.355024172698
  NRN2   OLG1     1  0.302014665450  0.355024172698
   NS1      O     1  0.289542083396  0.648182492821
   NS1     OB     1  0.289542083396  0.648182492821
   NS1    OBL     1  0.289542083396  0.648182492821
   NS1  OC2D1     1  0.289542083396  0.648182492821
   NS1  OC2D3     1  0.289542083396  0.648182492821
   NS1  OC2D4     1  0.289542083396  0.648182492821
   NS1    OCA     1  0.289542083396  0.648182492821
   NS1  OG2D1     1  0.289542083396  0.648182492821
   NS1  OG2D3     1  0.289542083396  0.648182492821
   NS1   OLG1     1  0.289542083396  0.648182492821
   NS2      O     1  0.289542083396  0.648182492821
   NS2     OB     1  0.289542083396  0.648182492821
   NS2    OBL     1  0.289542083396  0.648182492821
   NS2  OC2D1     1  0.289542083396  0.648182492821
   NS2  OC2D3     1  0.289542083396  0.648182492821
   NS2  OC2D4     1  0.289542083396  0.648182492821
   NS2    OCA     1  0.289542083396  0.648182492821
   NS2  OG2D1     1  0.289542083396  0.648182492821
   NS2  OG2D3     1  0.289542083396  0.648182492821
   NS2   OLG1     1  0.289542083396  0.648182492821
   NTL      O     1  0.289542083396  0.648182492821
   NTL     OB     1  0.289542083396  0.648182492821
   NTL    OBL     1  0.289542083396  0.648182492821
   NTL  OC2D1     1  0.289542083396  0.648182492821
   NTL  OC2D3     1  0.289542083396  0.648182492821
   NTL  OC2D4     1  0.289542083396  0.648182492821
   NTL    OCA     1  0.289542083396  0.648182492821
   NTL  OG2D1     1  0.289542083396  0.648182492821
   NTL  OG2D3     1  0.289542083396  0.648182492821
   NTL   OLG1     1  0.289542083396  0.648182492821
    NY      O     1  0.289542083396  0.648182492821
    NY     OB     1  0.289542083396  0.648182492821
    NY    OBL     1  0.289542083396  0.648182492821
    NY  OC2D1     1  0.289542083396  0.648182492821
    NY  OC2D3     1  0.289542083396  0.648182492821
    NY  OC2D4     1  0.289542083396  0.648182492821
    NY    OCA     1  0.289542083396  0.648182492821
    NY  OG2D1     1  0.289542083396  0.648182492821
    NY  OG2D3     1  0.289542083396  0.648182492821
    NY   OLG1     1  0.289542083396  0.648182492821
     O      O     1  0.249451641079  0.502080000000
     O    O2L     1  0.276178602624  0.502080000000
     O    OAL     1  0.282414893650  0.565258245152
     O     OB     1  0.249451641079  0.502080000000
     O    OBL     1  0.249451641079  0.502080000000
     O     OC     1  0.276178602624  0.502080000000
     O  OC2D1     1  0.249451641079  0.502080000000
     O  OC2D2     1  0.276178602624  0.502080000000
     O  OC2D3     1  0.249451641079  0.502080000000
     O  OC2D4     1  0.249451641079  0.502080000000
     O  OC2DP     1  0.276178602624  0.502080000000
     O  OC301     1  0.271724109033  0.458334236120
     O  OC302     1  0.271724109033  0.458334236120
     O  OC303     1  0.271724109033  0.458334236120
     O OC305A     1  0.271724109033  0.458334236120
     O  OC30A     1  0.271724109033  0.458334236120
     O  OC30P     1  0.282414893650  0.565258245152
     O  OC311     1  0.281969444291  0.635251912639
     O OC311M     1  0.281969444291  0.635251912639
     O  OC312     1  0.282414893650  0.565258245152
     O OC3C51     1  0.271724109033  0.458334236120
     O OC3C5M     1  0.271724109033  0.458334236120
     O OC3C61     1  0.271724109033  0.458334236120
     O    OCA     1  0.249451641079  0.502080000000
     O    OCL     1  0.276178602624  0.502080000000
     O  OG2D1     1  0.249451641079  0.502080000000
     O  OG2D2     1  0.276178602624  0.502080000000
     O  OG2D3     1  0.249451641079  0.502080000000
     O  OG2D4     1  0.276178602624  0.502080000000
     O  OG2D5     1  0.275465883649  0.588740986173
     O  OG2N1     1  0.276178602624  0.502080000000
     O  OG2P1     1  0.276178602624  0.502080000000
     O OG2R50     1  0.276178602624  0.502080000000
     O  OG2S1     1  0.274361169238  0.546744910407
     O  OG301     1  0.271724109033  0.458334236120
     O  OG302     1  0.271724109033  0.458334236120
     O  OG303     1  0.271724109033  0.458334236120
     O  OG304     1  0.271724109033  0.458334236120
     O  OG311     1  0.281969444291  0.635251912639
     O  OG312     1  0.280633096214  0.502080000000
     O OG3C31     1  0.271724109033  0.458334236120
     O OG3C51     1  0.271724109033  0.458334236120
     O OG3C61     1  0.271724109033  0.458334236120
     O OG3R60     1  0.271724109033  0.458334236120
     O    OH1     1  0.282414893650  0.565258245152
     O    OHL     1  0.282414893650  0.565258245152
     O   OLG1     1  0.249451641079  0.502080000000
     O   OLG2     1  0.276178602624  0.502080000000
     O   OLG3     1  0.276178602624  0.502080000000
     O   OLG4     1  0.271724109033  0.458334236120
     O   OLG5     1  0.271724109033  0.458334236120
     O   OLG6     1  0.281969444291  0.635251912639
     O   OLG7     1  0.271724109033  0.458334236120
     O   OLG8     1  0.271724109033  0.458334236120
     O     OM     1  0.276178602624  0.502080000000
     O    ON1     1  0.276178602624  0.502080000000
     O   ON1C     1  0.276178602624  0.502080000000
     O    ON2     1  0.282414893650  0.565258245152
     O   ON2B     1  0.282414893650  0.565258245152
     O   ON2M     1  0.271724109033  0.458334236120
     O    ON3     1  0.276178602624  0.502080000000
     O    ON4     1  0.282414893650  0.565258245152
     O    ON5     1  0.282414893650  0.565258245152
     O    ON6     1  0.282414893650  0.565258245152
     O   ON6B     1  0.282414893650  0.565258245152
     O   OPER     1  0.273882756627  0.654375459843
     O     OS     1  0.282414893650  0.565258245152
     O   OSIA     1  0.282414893650  0.565258245152
     O   OSIE     1  0.282414893650  0.565258245152
     O   OSIH     1  0.282414893650  0.565258245152
     O    OSL     1  0.271724109033  0.458334236120
     O   OSLP     1  0.271724109033  0.458334236120
     O    OST     1  0.275465883649  0.588740986173
     O     OT     1  0.282254531881  0.565258245152
     O     OX     1  0.276178602624  0.502080000000
     O      P     1  0.316269044940  1.108562623941
     O     P2     1  0.316269044940  1.108562623941
     O     P3     1  0.316269044940  1.108562623941
     O     P4     1  0.316269044940  1.108562623941
     O     PB     1  0.283528517048  2.480939130571
     O   PB2P     1  0.281345815189  0.709160229545
     O     PC     1  0.316269044940  1.108562623941
     O     PD     1  0.250297994862  3.594345799725
     O   PD2P     1  0.207321040698  0.604931743112
     O    PG0     1  0.316269044940  1.108562623941
     O    PG1     1  0.316269044940  1.108562623941
     O    PG2     1  0.316269044940  1.108562623941
     O     PL     1  0.316269044940  1.108562623941
     O   PM3P     1  0.272365556110  0.610634696689
     O    POT     1  0.281858081952  0.427505715330
     O   PR3P     1  0.272534826866  0.618836089652
     O     PT     1  0.251456163195  4.047898370266
     O   PT2P     1  0.195739357363  0.585341450465
     O   PU3P     1  0.273479179508  0.621883727679
     O   RA2P     1  0.310914743644  0.796368100295
     O   RH3P     1  0.165822978407  0.519557792281
     O    RUB     1  0.293996576986  0.561342505072
     O      S     1  0.302905564168  0.972273739232
     O     SC     1  0.311814551349  0.993644945843
     O   SC3P     1  0.222448500932  0.544241750989
     O  SEGD1     1  0.318496291735  1.144000784335
     O  SG2D1     1  0.307360057758  1.089448042267
     O  SG2P1     1  0.311253285157  1.151139989652
     O  SG2P2     1  0.307769871169  1.141151004963
     O SG2R50     1  0.302905564168  0.972273739232
     O  SG301     1  0.300678317372  0.893457908130
     O  SG302     1  0.320723538531  0.993644945843
     O  SG311     1  0.302905564168  0.972273739232
     O  SG3O1     1  0.311814551349  0.993644945843
     O  SG3O2     1  0.302905564168  0.857464840095
     O  SG3O3     1  0.302905564168  0.857464840095
     O     SI     1  0.320723538531  1.122685010143
     O   SIH3     1  0.320723538531  1.122685010143
     O     SL     1  0.311814551349  0.993644945843
     O     SM     1  0.300678317372  0.893457908130
     O   SM2P     1  0.290121167562  0.717113677081
     O   SM3P     1  0.264302922711  0.607530631248
     O   SN2P     1  0.272436828007  0.628269083346
     O    SOD     1  0.250409357201  0.313883668846
     O     SP     1  0.320723538531  0.972273739232
     O   SR2P     1  0.290067713639  0.693282613612
     O     SS     1  0.320723538531  0.993644945843
     O   TB3P     1  0.256133381465  0.596363119665
     O   TI1P     1  0.296731636051  0.924313689298
     O   TI3P     1  0.198572415286  0.519557792281
     O   TL3P     1  0.202171646108  0.584982455368
     O   TM3P     1  0.244872421668  0.583364243539
     O    U3P     1  0.276285510470  0.631104773958
     O    V2P     1  0.223054312061  0.581380312401
     O    V3P     1  0.179444819808  0.509555547700
     O    Y3P     1  0.250645445362  0.589810452969
     O   YB2P     1  0.268071424288  0.656874675024
     O   YB3P     1  0.240115022513  0.580476284001
     O     ZN     1  0.221833780817  0.724690057887
   O2L     OB     1  0.276178602624  0.502080000000
   O2L    OBL     1  0.276178602624  0.502080000000
   O2L  OC2D1     1  0.276178602624  0.502080000000
   O2L  OC2D3     1  0.276178602624  0.502080000000
   O2L  OC2D4     1  0.276178602624  0.502080000000
   O2L    OCA     1  0.276178602624  0.502080000000
   O2L  OG2D1     1  0.276178602624  0.502080000000
   O2L  OG2D3     1  0.276178602624  0.502080000000
   O2L   OLG1     1  0.276178602624  0.502080000000
   O2L    SOD     1  0.281523994932  0.313883680000
   OAL     OB     1  0.282414893650  0.565258245152
   OAL    OBL     1  0.282414893650  0.565258245152
   OAL  OC2D1     1  0.282414893650  0.565258245152
   OAL  OC2D3     1  0.282414893650  0.565258245152
   OAL  OC2D4     1  0.282414893650  0.565258245152
   OAL    OCA     1  0.282414893650  0.565258245152
   OAL  OG2D1     1  0.282414893650  0.565258245152
   OAL  OG2D3     1  0.282414893650  0.565258245152
   OAL   OLG1     1  0.282414893650  0.565258245152
    OB     OB     1  0.249451641079  0.502080000000
    OB    OBL     1  0.249451641079  0.502080000000
    OB     OC     1  0.276178602624  0.502080000000
    OB  OC2D1     1  0.249451641079  0.502080000000
    OB  OC2D2     1  0.276178602624  0.502080000000
    OB  OC2D3     1  0.249451641079  0.502080000000
    OB  OC2D4     1  0.249451641079  0.502080000000
    OB  OC2DP     1  0.276178602624  0.502080000000
    OB  OC301     1  0.271724109033  0.458334236120
    OB  OC302     1  0.271724109033  0.458334236120
    OB  OC303     1  0.271724109033  0.458334236120
    OB OC305A     1  0.271724109033  0.458334236120
    OB  OC30A     1  0.271724109033  0.458334236120
    OB  OC30P     1  0.282414893650  0.565258245152
    OB  OC311     1  0.281969444291  0.635251912639
    OB OC311M     1  0.281969444291  0.635251912639
    OB  OC312     1  0.282414893650  0.565258245152
    OB OC3C51     1  0.271724109033  0.458334236120
    OB OC3C5M     1  0.271724109033  0.458334236120
    OB OC3C61     1  0.271724109033  0.458334236120
    OB    OCA     1  0.249451641079  0.502080000000
    OB    OCL     1  0.276178602624  0.502080000000
    OB  OG2D1     1  0.249451641079  0.502080000000
    OB  OG2D2     1  0.276178602624  0.502080000000
    OB  OG2D3     1  0.249451641079  0.502080000000
    OB  OG2D4     1  0.276178602624  0.502080000000
    OB  OG2D5     1  0.275465883649  0.588740986173
    OB  OG2N1     1  0.276178602624  0.502080000000
    OB  OG2P1     1  0.276178602624  0.502080000000
    OB OG2R50     1  0.276178602624  0.502080000000
    OB  OG2S1     1  0.274361169238  0.546744910407
    OB  OG301     1  0.271724109033  0.458334236120
    OB  OG302     1  0.271724109033  0.458334236120
    OB  OG303     1  0.271724109033  0.458334236120
    OB  OG304     1  0.271724109033  0.458334236120
    OB  OG311     1  0.281969444291  0.635251912639
    OB  OG312     1  0.280633096214  0.502080000000
    OB OG3C31     1  0.271724109033  0.458334236120
    OB OG3C51     1  0.271724109033  0.458334236120
    OB OG3C61     1  0.271724109033  0.458334236120
    OB OG3R60     1  0.271724109033  0.458334236120
    OB    OH1     1  0.282414893650  0.565258245152
    OB    OHL     1  0.282414893650  0.565258245152
    OB   OLG1     1  0.249451641079  0.502080000000
    OB   OLG2     1  0.276178602624  0.502080000000
    OB   OLG3     1  0.276178602624  0.502080000000
    OB   OLG4     1  0.271724109033  0.458334236120
    OB   OLG5     1  0.271724109033  0.458334236120
    OB   OLG6     1  0.281969444291  0.635251912639
    OB   OLG7     1  0.271724109033  0.458334236120
    OB   OLG8     1  0.271724109033  0.458334236120
    OB     OM     1  0.276178602624  0.502080000000
    OB    ON1     1  0.276178602624  0.502080000000
    OB   ON1C     1  0.276178602624  0.502080000000
    OB    ON2     1  0.282414893650  0.565258245152
    OB   ON2B     1  0.282414893650  0.565258245152
    OB   ON2M     1  0.271724109033  0.458334236120
    OB    ON3     1  0.276178602624  0.502080000000
    OB    ON4     1  0.282414893650  0.565258245152
    OB    ON5     1  0.282414893650  0.565258245152
    OB    ON6     1  0.282414893650  0.565258245152
    OB   ON6B     1  0.282414893650  0.565258245152
    OB   OPER     1  0.273882756627  0.654375459843
    OB     OS     1  0.282414893650  0.565258245152
    OB   OSIA     1  0.282414893650  0.565258245152
    OB   OSIE     1  0.282414893650  0.565258245152
    OB   OSIH     1  0.282414893650  0.565258245152
    OB    OSL     1  0.271724109033  0.458334236120
    OB   OSLP     1  0.271724109033  0.458334236120
    OB    OST     1  0.275465883649  0.588740986173
    OB     OT     1  0.282254531881  0.565258245152
    OB     OX     1  0.276178602624  0.502080000000
    OB      P     1  0.316269044940  1.108562623941
    OB     P2     1  0.316269044940  1.108562623941
    OB     P3     1  0.316269044940  1.108562623941
    OB     P4     1  0.316269044940  1.108562623941
    OB     PB     1  0.283528517048  2.480939130571
    OB   PB2P     1  0.281345815189  0.709160229545
    OB     PC     1  0.316269044940  1.108562623941
    OB     PD     1  0.250297994862  3.594345799725
    OB   PD2P     1  0.207321040698  0.604931743112
    OB    PG0     1  0.316269044940  1.108562623941
    OB    PG1     1  0.316269044940  1.108562623941
    OB    PG2     1  0.316269044940  1.108562623941
    OB     PL     1  0.316269044940  1.108562623941
    OB   PM3P     1  0.272365556110  0.610634696689
    OB    POT     1  0.281858081952  0.427505715330
    OB   PR3P     1  0.272534826866  0.618836089652
    OB     PT     1  0.251456163195  4.047898370266
    OB   PT2P     1  0.195739357363  0.585341450465
    OB   PU3P     1  0.273479179508  0.621883727679
    OB   RA2P     1  0.310914743644  0.796368100295
    OB   RH3P     1  0.165822978407  0.519557792281
    OB    RUB     1  0.293996576986  0.561342505072
    OB      S     1  0.302905564168  0.972273739232
    OB     SC     1  0.311814551349  0.993644945843
    OB   SC3P     1  0.222448500932  0.544241750989
    OB  SEGD1     1  0.318496291735  1.144000784335
    OB  SG2D1     1  0.307360057758  1.089448042267
    OB  SG2P1     1  0.311253285157  1.151139989652
    OB  SG2P2     1  0.307769871169  1.141151004963
    OB SG2R50     1  0.302905564168  0.972273739232
    OB  SG301     1  0.300678317372  0.893457908130
    OB  SG302     1  0.320723538531  0.993644945843
    OB  SG311     1  0.302905564168  0.972273739232
    OB  SG3O1     1  0.311814551349  0.993644945843
    OB  SG3O2     1  0.302905564168  0.857464840095
    OB  SG3O3     1  0.302905564168  0.857464840095
    OB     SI     1  0.320723538531  1.122685010143
    OB   SIH3     1  0.320723538531  1.122685010143
    OB     SL     1  0.311814551349  0.993644945843
    OB     SM     1  0.300678317372  0.893457908130
    OB   SM2P     1  0.290121167562  0.717113677081
    OB   SM3P     1  0.264302922711  0.607530631248
    OB   SN2P     1  0.272436828007  0.628269083346
    OB    SOD     1  0.250409357201  0.313883668846
    OB     SP     1  0.320723538531  0.972273739232
    OB   SR2P     1  0.290067713639  0.693282613612
    OB     SS     1  0.320723538531  0.993644945843
    OB   TB3P     1  0.256133381465  0.596363119665
    OB   TI1P     1  0.296731636051  0.924313689298
    OB   TI3P     1  0.198572415286  0.519557792281
    OB   TL3P     1  0.202171646108  0.584982455368
    OB   TM3P     1  0.244872421668  0.583364243539
    OB    U3P     1  0.276285510470  0.631104773958
    OB    V2P     1  0.223054312061  0.581380312401
    OB    V3P     1  0.179444819808  0.509555547700
    OB    Y3P     1  0.250645445362  0.589810452969
    OB   YB2P     1  0.268071424288  0.656874675024
    OB   YB3P     1  0.240115022513  0.580476284001
    OB     ZN     1  0.221833780817  0.724690057887
   OBL    OBL     1  0.249451641079  0.502080000000
   OBL     OC     1  0.276178602624  0.502080000000
   OBL  OC2D1     1  0.249451641079  0.502080000000
   OBL  OC2D2     1  0.276178602624  0.502080000000
   OBL  OC2D3     1  0.249451641079  0.502080000000
   OBL  OC2D4     1  0.249451641079  0.502080000000
   OBL  OC2DP     1  0.276178602624  0.502080000000
   OBL  OC301     1  0.271724109033  0.458334236120
   OBL  OC302     1  0.271724109033  0.458334236120
   OBL  OC303     1  0.271724109033  0.458334236120
   OBL OC305A     1  0.271724109033  0.458334236120
   OBL  OC30A     1  0.271724109033  0.458334236120
   OBL  OC30P     1  0.282414893650  0.565258245152
   OBL  OC311     1  0.281969444291  0.635251912639
   OBL OC311M     1  0.281969444291  0.635251912639
   OBL  OC312     1  0.282414893650  0.565258245152
   OBL OC3C51     1  0.271724109033  0.458334236120
   OBL OC3C5M     1  0.271724109033  0.458334236120
   OBL OC3C61     1  0.271724109033  0.458334236120
   OBL    OCA     1  0.249451641079  0.502080000000
   OBL    OCL     1  0.276178602624  0.502080000000
   OBL  OG2D1     1  0.249451641079  0.502080000000
   OBL  OG2D2     1  0.276178602624  0.502080000000
   OBL  OG2D3     1  0.249451641079  0.502080000000
   OBL  OG2D4     1  0.276178602624  0.502080000000
   OBL  OG2D5     1  0.275465883649  0.588740986173
   OBL  OG2N1     1  0.276178602624  0.502080000000
   OBL  OG2P1     1  0.276178602624  0.502080000000
   OBL OG2R50     1  0.276178602624  0.502080000000
   OBL  OG2S1     1  0.274361169238  0.546744910407
   OBL  OG301     1  0.271724109033  0.458334236120
   OBL  OG302     1  0.271724109033  0.458334236120
   OBL  OG303     1  0.271724109033  0.458334236120
   OBL  OG304     1  0.271724109033  0.458334236120
   OBL  OG311     1  0.281969444291  0.635251912639
   OBL  OG312     1  0.280633096214  0.502080000000
   OBL OG3C31     1  0.271724109033  0.458334236120
   OBL OG3C51     1  0.271724109033  0.458334236120
   OBL OG3C61     1  0.271724109033  0.458334236120
   OBL OG3R60     1  0.271724109033  0.458334236120
   OBL    OH1     1  0.282414893650  0.565258245152
   OBL    OHL     1  0.282414893650  0.565258245152
   OBL   OLG1     1  0.249451641079  0.502080000000
   OBL   OLG2     1  0.276178602624  0.502080000000
   OBL   OLG3     1  0.276178602624  0.502080000000
   OBL   OLG4     1  0.271724109033  0.458334236120
   OBL   OLG5     1  0.271724109033  0.458334236120
   OBL   OLG6     1  0.281969444291  0.635251912639
   OBL   OLG7     1  0.271724109033  0.458334236120
   OBL   OLG8     1  0.271724109033  0.458334236120
   OBL     OM     1  0.276178602624  0.502080000000
   OBL    ON1     1  0.276178602624  0.502080000000
   OBL   ON1C     1  0.276178602624  0.502080000000
   OBL    ON2     1  0.282414893650  0.565258245152
   OBL   ON2B     1  0.282414893650  0.565258245152
   OBL   ON2M     1  0.271724109033  0.458334236120
   OBL    ON3     1  0.276178602624  0.502080000000
   OBL    ON4     1  0.282414893650  0.565258245152
   OBL    ON5     1  0.282414893650  0.565258245152
   OBL    ON6     1  0.282414893650  0.565258245152
   OBL   ON6B     1  0.282414893650  0.565258245152
   OBL   OPER     1  0.273882756627  0.654375459843
   OBL     OS     1  0.282414893650  0.565258245152
   OBL   OSIA     1  0.282414893650  0.565258245152
   OBL   OSIE     1  0.282414893650  0.565258245152
   OBL   OSIH     1  0.282414893650  0.565258245152
   OBL    OSL     1  0.271724109033  0.458334236120
   OBL   OSLP     1  0.271724109033  0.458334236120
   OBL    OST     1  0.275465883649  0.588740986173
   OBL     OT     1  0.282254531881  0.565258245152
   OBL     OX     1  0.276178602624  0.502080000000
   OBL      P     1  0.316269044940  1.108562623941
   OBL     P2     1  0.316269044940  1.108562623941
   OBL     P3     1  0.316269044940  1.108562623941
   OBL     P4     1  0.316269044940  1.108562623941
   OBL     PB     1  0.283528517048  2.480939130571
   OBL   PB2P     1  0.281345815189  0.709160229545
   OBL     PC     1  0.316269044940  1.108562623941
   OBL     PD     1  0.250297994862  3.594345799725
   OBL   PD2P     1  0.207321040698  0.604931743112
   OBL    PG0     1  0.316269044940  1.108562623941
   OBL    PG1     1  0.316269044940  1.108562623941
   OBL    PG2     1  0.316269044940  1.108562623941
   OBL     PL     1  0.316269044940  1.108562623941
   OBL   PM3P     1  0.272365556110  0.610634696689
   OBL    POT     1  0.281858081952  0.427505715330
   OBL   PR3P     1  0.272534826866  0.618836089652
   OBL     PT     1  0.251456163195  4.047898370266
   OBL   PT2P     1  0.195739357363  0.585341450465
   OBL   PU3P     1  0.273479179508  0.621883727679
   OBL   RA2P     1  0.310914743644  0.796368100295
   OBL   RH3P     1  0.165822978407  0.519557792281
   OBL    RUB     1  0.293996576986  0.561342505072
   OBL      S     1  0.302905564168  0.972273739232
   OBL     SC     1  0.311814551349  0.993644945843
   OBL   SC3P     1  0.222448500932  0.544241750989
   OBL  SEGD1     1  0.318496291735  1.144000784335
   OBL  SG2D1     1  0.307360057758  1.089448042267
   OBL  SG2P1     1  0.311253285157  1.151139989652
   OBL  SG2P2     1  0.307769871169  1.141151004963
   OBL SG2R50     1  0.302905564168  0.972273739232
   OBL  SG301     1  0.300678317372  0.893457908130
   OBL  SG302     1  0.320723538531  0.993644945843
   OBL  SG311     1  0.302905564168  0.972273739232
   OBL  SG3O1     1  0.311814551349  0.993644945843
   OBL  SG3O2     1  0.302905564168  0.857464840095
   OBL  SG3O3     1  0.302905564168  0.857464840095
   OBL     SI     1  0.320723538531  1.122685010143
   OBL   SIH3     1  0.320723538531  1.122685010143
   OBL     SL     1  0.311814551349  0.993644945843
   OBL     SM     1  0.300678317372  0.893457908130
   OBL   SM2P     1  0.290121167562  0.717113677081
   OBL   SM3P     1  0.264302922711  0.607530631248
   OBL   SN2P     1  0.272436828007  0.628269083346
   OBL    SOD     1  0.278851298778  0.313883680000
   OBL     SP     1  0.320723538531  0.972273739232
   OBL   SR2P     1  0.290067713639  0.693282613612
   OBL     SS     1  0.320723538531  0.993644945843
   OBL   TB3P     1  0.256133381465  0.596363119665
   OBL   TI1P     1  0.296731636051  0.924313689298
   OBL   TI3P     1  0.198572415286  0.519557792281
   OBL   TL3P     1  0.202171646108  0.584982455368
   OBL   TM3P     1  0.244872421668  0.583364243539
   OBL    U3P     1  0.276285510470  0.631104773958
   OBL    V2P     1  0.223054312061  0.581380312401
   OBL    V3P     1  0.179444819808  0.509555547700
   OBL    Y3P     1  0.250645445362  0.589810452969
   OBL   YB2P     1  0.268071424288  0.656874675024
   OBL   YB3P     1  0.240115022513  0.580476284001
   OBL     ZN     1  0.221833780817  0.724690057887
    OC  OC2D1     1  0.276178602624  0.502080000000
    OC  OC2D3     1  0.276178602624  0.502080000000
    OC  OC2D4     1  0.276178602624  0.502080000000
    OC    OCA     1  0.276178602624  0.502080000000
    OC  OG2D1     1  0.276178602624  0.502080000000
    OC  OG2D3     1  0.276178602624  0.502080000000
    OC   OLG1     1  0.276178602624  0.502080000000
    OC    POT     1  0.313952708273  0.427604800000
    OC    SOD     1  0.287760285959  0.313883680000
 OC2D1  OC2D1     1  0.249451641079  0.502080000000
 OC2D1  OC2D2     1  0.276178602624  0.502080000000
 OC2D1  OC2D3     1  0.249451641079  0.502080000000
 OC2D1  OC2D4     1  0.249451641079  0.502080000000
 OC2D1  OC2DP     1  0.276178602624  0.502080000000
 OC2D1  OC301     1  0.271724109033  0.458334236120
 OC2D1  OC302     1  0.271724109033  0.458334236120
 OC2D1  OC303     1  0.271724109033  0.458334236120
 OC2D1 OC305A     1  0.271724109033  0.458334236120
 OC2D1  OC30A     1  0.271724109033  0.458334236120
 OC2D1  OC30P     1  0.282414893650  0.565258245152
 OC2D1  OC311     1  0.281969444291  0.635251912639
 OC2D1 OC311M     1  0.281969444291  0.635251912639
 OC2D1  OC312     1  0.282414893650  0.565258245152
 OC2D1 OC3C51     1  0.271724109033  0.458334236120
 OC2D1 OC3C5M     1  0.271724109033  0.458334236120
 OC2D1 OC3C61     1  0.271724109033  0.458334236120
 OC2D1    OCA     1  0.249451641079  0.502080000000
 OC2D1    OCL     1  0.276178602624  0.502080000000
 OC2D1  OG2D1     1  0.249451641079  0.502080000000
 OC2D1  OG2D2     1  0.276178602624  0.502080000000
 OC2D1  OG2D3     1  0.249451641079  0.502080000000
 OC2D1  OG2D4     1  0.276178602624  0.502080000000
 OC2D1  OG2D5     1  0.275465883649  0.588740986173
 OC2D1  OG2N1     1  0.276178602624  0.502080000000
 OC2D1  OG2P1     1  0.276178602624  0.502080000000
 OC2D1 OG2R50     1  0.276178602624  0.502080000000
 OC2D1  OG2S1     1  0.274361169238  0.546744910407
 OC2D1  OG301     1  0.271724109033  0.458334236120
 OC2D1  OG302     1  0.271724109033  0.458334236120
 OC2D1  OG303     1  0.271724109033  0.458334236120
 OC2D1  OG304     1  0.271724109033  0.458334236120
 OC2D1  OG311     1  0.281969444291  0.635251912639
 OC2D1  OG312     1  0.280633096214  0.502080000000
 OC2D1 OG3C31     1  0.271724109033  0.458334236120
 OC2D1 OG3C51     1  0.271724109033  0.458334236120
 OC2D1 OG3C61     1  0.271724109033  0.458334236120
 OC2D1 OG3R60     1  0.271724109033  0.458334236120
 OC2D1    OH1     1  0.282414893650  0.565258245152
 OC2D1    OHL     1  0.282414893650  0.565258245152
 OC2D1   OLG1     1  0.249451641079  0.502080000000
 OC2D1   OLG2     1  0.276178602624  0.502080000000
 OC2D1   OLG3     1  0.276178602624  0.502080000000
 OC2D1   OLG4     1  0.271724109033  0.458334236120
 OC2D1   OLG5     1  0.271724109033  0.458334236120
 OC2D1   OLG6     1  0.281969444291  0.635251912639
 OC2D1   OLG7     1  0.271724109033  0.458334236120
 OC2D1   OLG8     1  0.271724109033  0.458334236120
 OC2D1     OM     1  0.276178602624  0.502080000000
 OC2D1    ON1     1  0.276178602624  0.502080000000
 OC2D1   ON1C     1  0.276178602624  0.502080000000
 OC2D1    ON2     1  0.282414893650  0.565258245152
 OC2D1   ON2B     1  0.282414893650  0.565258245152
 OC2D1   ON2M     1  0.271724109033  0.458334236120
 OC2D1    ON3     1  0.276178602624  0.502080000000
 OC2D1    ON4     1  0.282414893650  0.565258245152
 OC2D1    ON5     1  0.282414893650  0.565258245152
 OC2D1    ON6     1  0.282414893650  0.565258245152
 OC2D1   ON6B     1  0.282414893650  0.565258245152
 OC2D1   OPER     1  0.273882756627  0.654375459843
 OC2D1     OS     1  0.282414893650  0.565258245152
 OC2D1   OSIA     1  0.282414893650  0.565258245152
 OC2D1   OSIE     1  0.282414893650  0.565258245152
 OC2D1   OSIH     1  0.282414893650  0.565258245152
 OC2D1    OSL     1  0.271724109033  0.458334236120
 OC2D1   OSLP     1  0.271724109033  0.458334236120
 OC2D1    OST     1  0.275465883649  0.588740986173
 OC2D1     OT     1  0.282254531881  0.565258245152
 OC2D1     OX     1  0.276178602624  0.502080000000
 OC2D1      P     1  0.316269044940  1.108562623941
 OC2D1     P2     1  0.316269044940  1.108562623941
 OC2D1     P3     1  0.316269044940  1.108562623941
 OC2D1     P4     1  0.316269044940  1.108562623941
 OC2D1     PB     1  0.283528517048  2.480939130571
 OC2D1   PB2P     1  0.281345815189  0.709160229545
 OC2D1     PC     1  0.316269044940  1.108562623941
 OC2D1     PD     1  0.250297994862  3.594345799725
 OC2D1   PD2P     1  0.207321040698  0.604931743112
 OC2D1    PG0     1  0.316269044940  1.108562623941
 OC2D1    PG1     1  0.316269044940  1.108562623941
 OC2D1    PG2     1  0.316269044940  1.108562623941
 OC2D1     PL     1  0.316269044940  1.108562623941
 OC2D1   PM3P     1  0.272365556110  0.610634696689
 OC2D1    POT     1  0.281858081952  0.427505715330
 OC2D1   PR3P     1  0.272534826866  0.618836089652
 OC2D1     PT     1  0.251456163195  4.047898370266
 OC2D1   PT2P     1  0.195739357363  0.585341450465
 OC2D1   PU3P     1  0.273479179508  0.621883727679
 OC2D1   RA2P     1  0.310914743644  0.796368100295
 OC2D1   RH3P     1  0.165822978407  0.519557792281
 OC2D1    RUB     1  0.293996576986  0.561342505072
 OC2D1      S     1  0.302905564168  0.972273739232
 OC2D1     SC     1  0.311814551349  0.993644945843
 OC2D1   SC3P     1  0.222448500932  0.544241750989
 OC2D1  SEGD1     1  0.318496291735  1.144000784335
 OC2D1  SG2D1     1  0.307360057758  1.089448042267
 OC2D1  SG2P1     1  0.311253285157  1.151139989652
 OC2D1  SG2P2     1  0.307769871169  1.141151004963
 OC2D1 SG2R50     1  0.302905564168  0.972273739232
 OC2D1  SG301     1  0.300678317372  0.893457908130
 OC2D1  SG302     1  0.320723538531  0.993644945843
 OC2D1  SG311     1  0.302905564168  0.972273739232
 OC2D1  SG3O1     1  0.311814551349  0.993644945843
 OC2D1  SG3O2     1  0.302905564168  0.857464840095
 OC2D1  SG3O3     1  0.302905564168  0.857464840095
 OC2D1     SI     1  0.320723538531  1.122685010143
 OC2D1   SIH3     1  0.320723538531  1.122685010143
 OC2D1     SL     1  0.311814551349  0.993644945843
 OC2D1     SM     1  0.300678317372  0.893457908130
 OC2D1   SM2P     1  0.290121167562  0.717113677081
 OC2D1   SM3P     1  0.264302922711  0.607530631248
 OC2D1   SN2P     1  0.272436828007  0.628269083346
 OC2D1    SOD     1  0.250409357201  0.313883668846
 OC2D1     SP     1  0.320723538531  0.972273739232
 OC2D1   SR2P     1  0.290067713639  0.693282613612
 OC2D1     SS     1  0.320723538531  0.993644945843
 OC2D1   TB3P     1  0.256133381465  0.596363119665
 OC2D1   TI1P     1  0.296731636051  0.924313689298
 OC2D1   TI3P     1  0.198572415286  0.519557792281
 OC2D1   TL3P     1  0.202171646108  0.584982455368
 OC2D1   TM3P     1  0.244872421668  0.583364243539
 OC2D1    U3P     1  0.276285510470  0.631104773958
 OC2D1    V2P     1  0.223054312061  0.581380312401
 OC2D1    V3P     1  0.179444819808  0.509555547700
 OC2D1    Y3P     1  0.250645445362  0.589810452969
 OC2D1   YB2P     1  0.268071424288  0.656874675024
 OC2D1   YB3P     1  0.240115022513  0.580476284001
 OC2D1     ZN     1  0.221833780817  0.724690057887
 OC2D2  OC2D3     1  0.276178602624  0.502080000000
 OC2D2  OC2D4     1  0.276178602624  0.502080000000
 OC2D2    OCA     1  0.276178602624  0.502080000000
 OC2D2  OG2D1     1  0.276178602624  0.502080000000
 OC2D2  OG2D3     1  0.276178602624  0.502080000000
 OC2D2   OLG1     1  0.276178602624  0.502080000000
 OC2D2    POT     1  0.313952708273  0.427604800000
 OC2D2    SOD     1  0.287760285959  0.313883680000
 OC2D3  OC2D3     1  0.249451641079  0.502080000000
 OC2D3  OC2D4     1  0.249451641079  0.502080000000
 OC2D3  OC2DP     1  0.276178602624  0.502080000000
 OC2D3  OC301     1  0.271724109033  0.458334236120
 OC2D3  OC302     1  0.271724109033  0.458334236120
 OC2D3  OC303     1  0.271724109033  0.458334236120
 OC2D3 OC305A     1  0.271724109033  0.458334236120
 OC2D3  OC30A     1  0.271724109033  0.458334236120
 OC2D3  OC30P     1  0.282414893650  0.565258245152
 OC2D3  OC311     1  0.281969444291  0.635251912639
 OC2D3 OC311M     1  0.281969444291  0.635251912639
 OC2D3  OC312     1  0.282414893650  0.565258245152
 OC2D3 OC3C51     1  0.271724109033  0.458334236120
 OC2D3 OC3C5M     1  0.271724109033  0.458334236120
 OC2D3 OC3C61     1  0.271724109033  0.458334236120
 OC2D3    OCA     1  0.249451641079  0.502080000000
 OC2D3    OCL     1  0.276178602624  0.502080000000
 OC2D3  OG2D1     1  0.249451641079  0.502080000000
 OC2D3  OG2D2     1  0.276178602624  0.502080000000
 OC2D3  OG2D3     1  0.249451641079  0.502080000000
 OC2D3  OG2D4     1  0.276178602624  0.502080000000
 OC2D3  OG2D5     1  0.275465883649  0.588740986173
 OC2D3  OG2N1     1  0.276178602624  0.502080000000
 OC2D3  OG2P1     1  0.276178602624  0.502080000000
 OC2D3 OG2R50     1  0.276178602624  0.502080000000
 OC2D3  OG2S1     1  0.274361169238  0.546744910407
 OC2D3  OG301     1  0.271724109033  0.458334236120
 OC2D3  OG302     1  0.271724109033  0.458334236120
 OC2D3  OG303     1  0.271724109033  0.458334236120
 OC2D3  OG304     1  0.271724109033  0.458334236120
 OC2D3  OG311     1  0.281969444291  0.635251912639
 OC2D3  OG312     1  0.280633096214  0.502080000000
 OC2D3 OG3C31     1  0.271724109033  0.458334236120
 OC2D3 OG3C51     1  0.271724109033  0.458334236120
 OC2D3 OG3C61     1  0.271724109033  0.458334236120
 OC2D3 OG3R60     1  0.271724109033  0.458334236120
 OC2D3    OH1     1  0.282414893650  0.565258245152
 OC2D3    OHL     1  0.282414893650  0.565258245152
 OC2D3   OLG1     1  0.249451641079  0.502080000000
 OC2D3   OLG2     1  0.276178602624  0.502080000000
 OC2D3   OLG3     1  0.276178602624  0.502080000000
 OC2D3   OLG4     1  0.271724109033  0.458334236120
 OC2D3   OLG5     1  0.271724109033  0.458334236120
 OC2D3   OLG6     1  0.281969444291  0.635251912639
 OC2D3   OLG7     1  0.271724109033  0.458334236120
 OC2D3   OLG8     1  0.271724109033  0.458334236120
 OC2D3     OM     1  0.276178602624  0.502080000000
 OC2D3    ON1     1  0.276178602624  0.502080000000
 OC2D3   ON1C     1  0.276178602624  0.502080000000
 OC2D3    ON2     1  0.282414893650  0.565258245152
 OC2D3   ON2B     1  0.282414893650  0.565258245152
 OC2D3   ON2M     1  0.271724109033  0.458334236120
 OC2D3    ON3     1  0.276178602624  0.502080000000
 OC2D3    ON4     1  0.282414893650  0.565258245152
 OC2D3    ON5     1  0.282414893650  0.565258245152
 OC2D3    ON6     1  0.282414893650  0.565258245152
 OC2D3   ON6B     1  0.282414893650  0.565258245152
 OC2D3   OPER     1  0.273882756627  0.654375459843
 OC2D3     OS     1  0.282414893650  0.565258245152
 OC2D3   OSIA     1  0.282414893650  0.565258245152
 OC2D3   OSIE     1  0.282414893650  0.565258245152
 OC2D3   OSIH     1  0.282414893650  0.565258245152
 OC2D3    OSL     1  0.271724109033  0.458334236120
 OC2D3   OSLP     1  0.271724109033  0.458334236120
 OC2D3    OST     1  0.275465883649  0.588740986173
 OC2D3     OT     1  0.282254531881  0.565258245152
 OC2D3     OX     1  0.276178602624  0.502080000000
 OC2D3      P     1  0.316269044940  1.108562623941
 OC2D3     P2     1  0.316269044940  1.108562623941
 OC2D3     P3     1  0.316269044940  1.108562623941
 OC2D3     P4     1  0.316269044940  1.108562623941
 OC2D3     PB     1  0.283528517048  2.480939130571
 OC2D3   PB2P     1  0.281345815189  0.709160229545
 OC2D3     PC     1  0.316269044940  1.108562623941
 OC2D3     PD     1  0.250297994862  3.594345799725
 OC2D3   PD2P     1  0.207321040698  0.604931743112
 OC2D3    PG0     1  0.316269044940  1.108562623941
 OC2D3    PG1     1  0.316269044940  1.108562623941
 OC2D3    PG2     1  0.316269044940  1.108562623941
 OC2D3     PL     1  0.316269044940  1.108562623941
 OC2D3   PM3P     1  0.272365556110  0.610634696689
 OC2D3    POT     1  0.281858081952  0.427505715330
 OC2D3   PR3P     1  0.272534826866  0.618836089652
 OC2D3     PT     1  0.251456163195  4.047898370266
 OC2D3   PT2P     1  0.195739357363  0.585341450465
 OC2D3   PU3P     1  0.273479179508  0.621883727679
 OC2D3   RA2P     1  0.310914743644  0.796368100295
 OC2D3   RH3P     1  0.165822978407  0.519557792281
 OC2D3    RUB     1  0.293996576986  0.561342505072
 OC2D3      S     1  0.302905564168  0.972273739232
 OC2D3     SC     1  0.311814551349  0.993644945843
 OC2D3   SC3P     1  0.222448500932  0.544241750989
 OC2D3  SEGD1     1  0.318496291735  1.144000784335
 OC2D3  SG2D1     1  0.307360057758  1.089448042267
 OC2D3  SG2P1     1  0.311253285157  1.151139989652
 OC2D3  SG2P2     1  0.307769871169  1.141151004963
 OC2D3 SG2R50     1  0.302905564168  0.972273739232
 OC2D3  SG301     1  0.300678317372  0.893457908130
 OC2D3  SG302     1  0.320723538531  0.993644945843
 OC2D3  SG311     1  0.302905564168  0.972273739232
 OC2D3  SG3O1     1  0.311814551349  0.993644945843
 OC2D3  SG3O2     1  0.302905564168  0.857464840095
 OC2D3  SG3O3     1  0.302905564168  0.857464840095
 OC2D3     SI     1  0.320723538531  1.122685010143
 OC2D3   SIH3     1  0.320723538531  1.122685010143
 OC2D3     SL     1  0.311814551349  0.993644945843
 OC2D3     SM     1  0.300678317372  0.893457908130
 OC2D3   SM2P     1  0.290121167562  0.717113677081
 OC2D3   SM3P     1  0.264302922711  0.607530631248
 OC2D3   SN2P     1  0.272436828007  0.628269083346
 OC2D3    SOD     1  0.250409357201  0.313883668846
 OC2D3     SP     1  0.320723538531  0.972273739232
 OC2D3   SR2P     1  0.290067713639  0.693282613612
 OC2D3     SS     1  0.320723538531  0.993644945843
 OC2D3   TB3P     1  0.256133381465  0.596363119665
 OC2D3   TI1P     1  0.296731636051  0.924313689298
 OC2D3   TI3P     1  0.198572415286  0.519557792281
 OC2D3   TL3P     1  0.202171646108  0.584982455368
 OC2D3   TM3P     1  0.244872421668  0.583364243539
 OC2D3    U3P     1  0.276285510470  0.631104773958
 OC2D3    V2P     1  0.223054312061  0.581380312401
 OC2D3    V3P     1  0.179444819808  0.509555547700
 OC2D3    Y3P     1  0.250645445362  0.589810452969
 OC2D3   YB2P     1  0.268071424288  0.656874675024
 OC2D3   YB3P     1  0.240115022513  0.580476284001
 OC2D3     ZN     1  0.221833780817  0.724690057887
 OC2D4  OC2D4     1  0.249451641079  0.502080000000
 OC2D4  OC2DP     1  0.276178602624  0.502080000000
 OC2D4  OC301     1  0.271724109033  0.458334236120
 OC2D4  OC302     1  0.271724109033  0.458334236120
 OC2D4  OC303     1  0.271724109033  0.458334236120
 OC2D4 OC305A     1  0.271724109033  0.458334236120
 OC2D4  OC30A     1  0.271724109033  0.458334236120
 OC2D4  OC30P     1  0.282414893650  0.565258245152
 OC2D4  OC311     1  0.281969444291  0.635251912639
 OC2D4 OC311M     1  0.281969444291  0.635251912639
 OC2D4  OC312     1  0.282414893650  0.565258245152
 OC2D4 OC3C51     1  0.271724109033  0.458334236120
 OC2D4 OC3C5M     1  0.271724109033  0.458334236120
 OC2D4 OC3C61     1  0.271724109033  0.458334236120
 OC2D4    OCA     1  0.249451641079  0.502080000000
 OC2D4    OCL     1  0.276178602624  0.502080000000
 OC2D4  OG2D1     1  0.249451641079  0.502080000000
 OC2D4  OG2D2     1  0.276178602624  0.502080000000
 OC2D4  OG2D3     1  0.249451641079  0.502080000000
 OC2D4  OG2D4     1  0.276178602624  0.502080000000
 OC2D4  OG2D5     1  0.275465883649  0.588740986173
 OC2D4  OG2N1     1  0.276178602624  0.502080000000
 OC2D4  OG2P1     1  0.276178602624  0.502080000000
 OC2D4 OG2R50     1  0.276178602624  0.502080000000
 OC2D4  OG2S1     1  0.274361169238  0.546744910407
 OC2D4  OG301     1  0.271724109033  0.458334236120
 OC2D4  OG302     1  0.271724109033  0.458334236120
 OC2D4  OG303     1  0.271724109033  0.458334236120
 OC2D4  OG304     1  0.271724109033  0.458334236120
 OC2D4  OG311     1  0.281969444291  0.635251912639
 OC2D4  OG312     1  0.280633096214  0.502080000000
 OC2D4 OG3C31     1  0.271724109033  0.458334236120
 OC2D4 OG3C51     1  0.271724109033  0.458334236120
 OC2D4 OG3C61     1  0.271724109033  0.458334236120
 OC2D4 OG3R60     1  0.271724109033  0.458334236120
 OC2D4    OH1     1  0.282414893650  0.565258245152
 OC2D4    OHL     1  0.282414893650  0.565258245152
 OC2D4   OLG1     1  0.249451641079  0.502080000000
 OC2D4   OLG2     1  0.276178602624  0.502080000000
 OC2D4   OLG3     1  0.276178602624  0.502080000000
 OC2D4   OLG4     1  0.271724109033  0.458334236120
 OC2D4   OLG5     1  0.271724109033  0.458334236120
 OC2D4   OLG6     1  0.281969444291  0.635251912639
 OC2D4   OLG7     1  0.271724109033  0.458334236120
 OC2D4   OLG8     1  0.271724109033  0.458334236120
 OC2D4     OM     1  0.276178602624  0.502080000000
 OC2D4    ON1     1  0.276178602624  0.502080000000
 OC2D4   ON1C     1  0.276178602624  0.502080000000
 OC2D4    ON2     1  0.282414893650  0.565258245152
 OC2D4   ON2B     1  0.282414893650  0.565258245152
 OC2D4   ON2M     1  0.271724109033  0.458334236120
 OC2D4    ON3     1  0.276178602624  0.502080000000
 OC2D4    ON4     1  0.282414893650  0.565258245152
 OC2D4    ON5     1  0.282414893650  0.565258245152
 OC2D4    ON6     1  0.282414893650  0.565258245152
 OC2D4   ON6B     1  0.282414893650  0.565258245152
 OC2D4   OPER     1  0.273882756627  0.654375459843
 OC2D4     OS     1  0.282414893650  0.565258245152
 OC2D4   OSIA     1  0.282414893650  0.565258245152
 OC2D4   OSIE     1  0.282414893650  0.565258245152
 OC2D4   OSIH     1  0.282414893650  0.565258245152
 OC2D4    OSL     1  0.271724109033  0.458334236120
 OC2D4   OSLP     1  0.271724109033  0.458334236120
 OC2D4    OST     1  0.275465883649  0.588740986173
 OC2D4     OT     1  0.282254531881  0.565258245152
 OC2D4     OX     1  0.276178602624  0.502080000000
 OC2D4      P     1  0.316269044940  1.108562623941
 OC2D4     P2     1  0.316269044940  1.108562623941
 OC2D4     P3     1  0.316269044940  1.108562623941
 OC2D4     P4     1  0.316269044940  1.108562623941
 OC2D4     PB     1  0.283528517048  2.480939130571
 OC2D4   PB2P     1  0.281345815189  0.709160229545
 OC2D4     PC     1  0.316269044940  1.108562623941
 OC2D4     PD     1  0.250297994862  3.594345799725
 OC2D4   PD2P     1  0.207321040698  0.604931743112
 OC2D4    PG0     1  0.316269044940  1.108562623941
 OC2D4    PG1     1  0.316269044940  1.108562623941
 OC2D4    PG2     1  0.316269044940  1.108562623941
 OC2D4     PL     1  0.316269044940  1.108562623941
 OC2D4   PM3P     1  0.272365556110  0.610634696689
 OC2D4    POT     1  0.281858081952  0.427505715330
 OC2D4   PR3P     1  0.272534826866  0.618836089652
 OC2D4     PT     1  0.251456163195  4.047898370266
 OC2D4   PT2P     1  0.195739357363  0.585341450465
 OC2D4   PU3P     1  0.273479179508  0.621883727679
 OC2D4   RA2P     1  0.310914743644  0.796368100295
 OC2D4   RH3P     1  0.165822978407  0.519557792281
 OC2D4    RUB     1  0.293996576986  0.561342505072
 OC2D4      S     1  0.302905564168  0.972273739232
 OC2D4     SC     1  0.311814551349  0.993644945843
 OC2D4   SC3P     1  0.222448500932  0.544241750989
 OC2D4  SEGD1     1  0.318496291735  1.144000784335
 OC2D4  SG2D1     1  0.307360057758  1.089448042267
 OC2D4  SG2P1     1  0.311253285157  1.151139989652
 OC2D4  SG2P2     1  0.307769871169  1.141151004963
 OC2D4 SG2R50     1  0.302905564168  0.972273739232
 OC2D4  SG301     1  0.300678317372  0.893457908130
 OC2D4  SG302     1  0.320723538531  0.993644945843
 OC2D4  SG311     1  0.302905564168  0.972273739232
 OC2D4  SG3O1     1  0.311814551349  0.993644945843
 OC2D4  SG3O2     1  0.302905564168  0.857464840095
 OC2D4  SG3O3     1  0.302905564168  0.857464840095
 OC2D4     SI     1  0.320723538531  1.122685010143
 OC2D4   SIH3     1  0.320723538531  1.122685010143
 OC2D4     SL     1  0.311814551349  0.993644945843
 OC2D4     SM     1  0.300678317372  0.893457908130
 OC2D4   SM2P     1  0.290121167562  0.717113677081
 OC2D4   SM3P     1  0.264302922711  0.607530631248
 OC2D4   SN2P     1  0.272436828007  0.628269083346
 OC2D4    SOD     1  0.250409357201  0.313883668846
 OC2D4     SP     1  0.320723538531  0.972273739232
 OC2D4   SR2P     1  0.290067713639  0.693282613612
 OC2D4     SS     1  0.320723538531  0.993644945843
 OC2D4   TB3P     1  0.256133381465  0.596363119665
 OC2D4   TI1P     1  0.296731636051  0.924313689298
 OC2D4   TI3P     1  0.198572415286  0.519557792281
 OC2D4   TL3P     1  0.202171646108  0.584982455368
 OC2D4   TM3P     1  0.244872421668  0.583364243539
 OC2D4    U3P     1  0.276285510470  0.631104773958
 OC2D4    V2P     1  0.223054312061  0.581380312401
 OC2D4    V3P     1  0.179444819808  0.509555547700
 OC2D4    Y3P     1  0.250645445362  0.589810452969
 OC2D4   YB2P     1  0.268071424288  0.656874675024
 OC2D4   YB3P     1  0.240115022513  0.580476284001
 OC2D4     ZN     1  0.221833780817  0.724690057887
 OC2DP    OCA     1  0.276178602624  0.502080000000
 OC2DP  OG2D1     1  0.276178602624  0.502080000000
 OC2DP  OG2D3     1  0.276178602624  0.502080000000
 OC2DP   OLG1     1  0.276178602624  0.502080000000
 OC2DP    SOD     1  0.281523994932  0.313883680000
 OC301    OCA     1  0.271724109033  0.458334236120
 OC301  OG2D1     1  0.271724109033  0.458334236120
 OC301  OG2D3     1  0.271724109033  0.458334236120
 OC301   OLG1     1  0.271724109033  0.458334236120
 OC302    OCA     1  0.271724109033  0.458334236120
 OC302  OG2D1     1  0.271724109033  0.458334236120
 OC302  OG2D3     1  0.271724109033  0.458334236120
 OC302   OLG1     1  0.271724109033  0.458334236120
 OC303    OCA     1  0.271724109033  0.458334236120
 OC303  OG2D1     1  0.271724109033  0.458334236120
 OC303  OG2D3     1  0.271724109033  0.458334236120
 OC303   OLG1     1  0.271724109033  0.458334236120
OC305A    OCA     1  0.271724109033  0.458334236120
OC305A  OG2D1     1  0.271724109033  0.458334236120
OC305A  OG2D3     1  0.271724109033  0.458334236120
OC305A   OLG1     1  0.271724109033  0.458334236120
 OC30A    OCA     1  0.271724109033  0.458334236120
 OC30A  OG2D1     1  0.271724109033  0.458334236120
 OC30A  OG2D3     1  0.271724109033  0.458334236120
 OC30A   OLG1     1  0.271724109033  0.458334236120
 OC30P    OCA     1  0.282414893650  0.565258245152
 OC30P  OG2D1     1  0.282414893650  0.565258245152
 OC30P  OG2D3     1  0.282414893650  0.565258245152
 OC30P   OLG1     1  0.282414893650  0.565258245152
 OC311    OCA     1  0.281969444291  0.635251912639
 OC311  OG2D1     1  0.281969444291  0.635251912639
 OC311  OG2D3     1  0.281969444291  0.635251912639
 OC311   OLG1     1  0.281969444291  0.635251912639
OC311M    OCA     1  0.281969444291  0.635251912639
OC311M  OG2D1     1  0.281969444291  0.635251912639
OC311M  OG2D3     1  0.281969444291  0.635251912639
OC311M   OLG1     1  0.281969444291  0.635251912639
 OC312    OCA     1  0.282414893650  0.565258245152
 OC312  OG2D1     1  0.282414893650  0.565258245152
 OC312  OG2D3     1  0.282414893650  0.565258245152
 OC312   OLG1     1  0.282414893650  0.565258245152
OC3C51    OCA     1  0.271724109033  0.458334236120
OC3C51  OG2D1     1  0.271724109033  0.458334236120
OC3C51  OG2D3     1  0.271724109033  0.458334236120
OC3C51   OLG1     1  0.271724109033  0.458334236120
OC3C5M    OCA     1  0.271724109033  0.458334236120
OC3C5M  OG2D1     1  0.271724109033  0.458334236120
OC3C5M  OG2D3     1  0.271724109033  0.458334236120
OC3C5M   OLG1     1  0.271724109033  0.458334236120
OC3C61    OCA     1  0.271724109033  0.458334236120
OC3C61  OG2D1     1  0.271724109033  0.458334236120
OC3C61  OG2D3     1  0.271724109033  0.458334236120
OC3C61   OLG1     1  0.271724109033  0.458334236120
   OCA    OCA     1  0.249451641079  0.502080000000
   OCA    OCL     1  0.276178602624  0.502080000000
   OCA  OG2D1     1  0.249451641079  0.502080000000
   OCA  OG2D2     1  0.276178602624  0.502080000000
   OCA  OG2D3     1  0.249451641079  0.502080000000
   OCA  OG2D4     1  0.276178602624  0.502080000000
   OCA  OG2D5     1  0.275465883649  0.588740986173
   OCA  OG2N1     1  0.276178602624  0.502080000000
   OCA  OG2P1     1  0.276178602624  0.502080000000
   OCA OG2R50     1  0.276178602624  0.502080000000
   OCA  OG2S1     1  0.274361169238  0.546744910407
   OCA  OG301     1  0.271724109033  0.458334236120
   OCA  OG302     1  0.271724109033  0.458334236120
   OCA  OG303     1  0.271724109033  0.458334236120
   OCA  OG304     1  0.271724109033  0.458334236120
   OCA  OG311     1  0.281969444291  0.635251912639
   OCA  OG312     1  0.280633096214  0.502080000000
   OCA OG3C31     1  0.271724109033  0.458334236120
   OCA OG3C51     1  0.271724109033  0.458334236120
   OCA OG3C61     1  0.271724109033  0.458334236120
   OCA OG3R60     1  0.271724109033  0.458334236120
   OCA    OH1     1  0.282414893650  0.565258245152
   OCA    OHL     1  0.282414893650  0.565258245152
   OCA   OLG1     1  0.249451641079  0.502080000000
   OCA   OLG2     1  0.276178602624  0.502080000000
   OCA   OLG3     1  0.276178602624  0.502080000000
   OCA   OLG4     1  0.271724109033  0.458334236120
   OCA   OLG5     1  0.271724109033  0.458334236120
   OCA   OLG6     1  0.281969444291  0.635251912639
   OCA   OLG7     1  0.271724109033  0.458334236120
   OCA   OLG8     1  0.271724109033  0.458334236120
   OCA     OM     1  0.276178602624  0.502080000000
   OCA    ON1     1  0.276178602624  0.502080000000
   OCA   ON1C     1  0.276178602624  0.502080000000
   OCA    ON2     1  0.282414893650  0.565258245152
   OCA   ON2B     1  0.282414893650  0.565258245152
   OCA   ON2M     1  0.271724109033  0.458334236120
   OCA    ON3     1  0.276178602624  0.502080000000
   OCA    ON4     1  0.282414893650  0.565258245152
   OCA    ON5     1  0.282414893650  0.565258245152
   OCA    ON6     1  0.282414893650  0.565258245152
   OCA   ON6B     1  0.282414893650  0.565258245152
   OCA   OPER     1  0.273882756627  0.654375459843
   OCA     OS     1  0.282414893650  0.565258245152
   OCA   OSIA     1  0.282414893650  0.565258245152
   OCA   OSIE     1  0.282414893650  0.565258245152
   OCA   OSIH     1  0.282414893650  0.565258245152
   OCA    OSL     1  0.271724109033  0.458334236120
   OCA   OSLP     1  0.271724109033  0.458334236120
   OCA    OST     1  0.275465883649  0.588740986173
   OCA     OT     1  0.282254531881  0.565258245152
   OCA     OX     1  0.276178602624  0.502080000000
   OCA      P     1  0.316269044940  1.108562623941
   OCA     P2     1  0.316269044940  1.108562623941
   OCA     P3     1  0.316269044940  1.108562623941
   OCA     P4     1  0.316269044940  1.108562623941
   OCA     PB     1  0.283528517048  2.480939130571
   OCA   PB2P     1  0.281345815189  0.709160229545
   OCA     PC     1  0.316269044940  1.108562623941
   OCA     PD     1  0.250297994862  3.594345799725
   OCA   PD2P     1  0.207321040698  0.604931743112
   OCA    PG0     1  0.316269044940  1.108562623941
   OCA    PG1     1  0.316269044940  1.108562623941
   OCA    PG2     1  0.316269044940  1.108562623941
   OCA     PL     1  0.316269044940  1.108562623941
   OCA   PM3P     1  0.272365556110  0.610634696689
   OCA    POT     1  0.281858081952  0.427505715330
   OCA   PR3P     1  0.272534826866  0.618836089652
   OCA     PT     1  0.251456163195  4.047898370266
   OCA   PT2P     1  0.195739357363  0.585341450465
   OCA   PU3P     1  0.273479179508  0.621883727679
   OCA   RA2P     1  0.310914743644  0.796368100295
   OCA   RH3P     1  0.165822978407  0.519557792281
   OCA    RUB     1  0.293996576986  0.561342505072
   OCA      S     1  0.302905564168  0.972273739232
   OCA     SC     1  0.311814551349  0.993644945843
   OCA   SC3P     1  0.222448500932  0.544241750989
   OCA  SEGD1     1  0.318496291735  1.144000784335
   OCA  SG2D1     1  0.307360057758  1.089448042267
   OCA  SG2P1     1  0.311253285157  1.151139989652
   OCA  SG2P2     1  0.307769871169  1.141151004963
   OCA SG2R50     1  0.302905564168  0.972273739232
   OCA  SG301     1  0.300678317372  0.893457908130
   OCA  SG302     1  0.320723538531  0.993644945843
   OCA  SG311     1  0.302905564168  0.972273739232
   OCA  SG3O1     1  0.311814551349  0.993644945843
   OCA  SG3O2     1  0.302905564168  0.857464840095
   OCA  SG3O3     1  0.302905564168  0.857464840095
   OCA     SI     1  0.320723538531  1.122685010143
   OCA   SIH3     1  0.320723538531  1.122685010143
   OCA     SL     1  0.311814551349  0.993644945843
   OCA     SM     1  0.300678317372  0.893457908130
   OCA   SM2P     1  0.290121167562  0.717113677081
   OCA   SM3P     1  0.264302922711  0.607530631248
   OCA   SN2P     1  0.272436828007  0.628269083346
   OCA    SOD     1  0.250409357201  0.313883668846
   OCA     SP     1  0.320723538531  0.972273739232
   OCA   SR2P     1  0.290067713639  0.693282613612
   OCA     SS     1  0.320723538531  0.993644945843
   OCA   TB3P     1  0.256133381465  0.596363119665
   OCA   TI1P     1  0.296731636051  0.924313689298
   OCA   TI3P     1  0.198572415286  0.519557792281
   OCA   TL3P     1  0.202171646108  0.584982455368
   OCA   TM3P     1  0.244872421668  0.583364243539
   OCA    U3P     1  0.276285510470  0.631104773958
   OCA    V2P     1  0.223054312061  0.581380312401
   OCA    V3P     1  0.179444819808  0.509555547700
   OCA    Y3P     1  0.250645445362  0.589810452969
   OCA   YB2P     1  0.268071424288  0.656874675024
   OCA   YB3P     1  0.240115022513  0.580476284001
   OCA     ZN     1  0.221833780817  0.724690057887
   OCL  OG2D1     1  0.276178602624  0.502080000000
   OCL  OG2D3     1  0.276178602624  0.502080000000
   OCL   OLG1     1  0.276178602624  0.502080000000
   OCL    POT     1  0.313952708273  0.427604800000
   OCL    SOD     1  0.287760285959  0.313883680000
 OG2D1  OG2D1     1  0.249451641079  0.502080000000
 OG2D1  OG2D2     1  0.276178602624  0.502080000000
 OG2D1  OG2D3     1  0.249451641079  0.502080000000
 OG2D1  OG2D4     1  0.276178602624  0.502080000000
 OG2D1  OG2D5     1  0.275465883649  0.588740986173
 OG2D1  OG2N1     1  0.276178602624  0.502080000000
 OG2D1  OG2P1     1  0.276178602624  0.502080000000
 OG2D1 OG2R50     1  0.276178602624  0.502080000000
 OG2D1  OG2S1     1  0.274361169238  0.546744910407
 OG2D1  OG301     1  0.271724109033  0.458334236120
 OG2D1  OG302     1  0.271724109033  0.458334236120
 OG2D1  OG303     1  0.271724109033  0.458334236120
 OG2D1  OG304     1  0.271724109033  0.458334236120
 OG2D1  OG311     1  0.281969444291  0.635251912639
 OG2D1  OG312     1  0.280633096214  0.502080000000
 OG2D1 OG3C31     1  0.271724109033  0.458334236120
 OG2D1 OG3C51     1  0.271724109033  0.458334236120
 OG2D1 OG3C61     1  0.271724109033  0.458334236120
 OG2D1 OG3R60     1  0.271724109033  0.458334236120
 OG2D1    OH1     1  0.282414893650  0.565258245152
 OG2D1    OHL     1  0.282414893650  0.565258245152
 OG2D1   OLG1     1  0.249451641079  0.502080000000
 OG2D1   OLG2     1  0.276178602624  0.502080000000
 OG2D1   OLG3     1  0.276178602624  0.502080000000
 OG2D1   OLG4     1  0.271724109033  0.458334236120
 OG2D1   OLG5     1  0.271724109033  0.458334236120
 OG2D1   OLG6     1  0.281969444291  0.635251912639
 OG2D1   OLG7     1  0.271724109033  0.458334236120
 OG2D1   OLG8     1  0.271724109033  0.458334236120
 OG2D1     OM     1  0.276178602624  0.502080000000
 OG2D1    ON1     1  0.276178602624  0.502080000000
 OG2D1   ON1C     1  0.276178602624  0.502080000000
 OG2D1    ON2     1  0.282414893650  0.565258245152
 OG2D1   ON2B     1  0.282414893650  0.565258245152
 OG2D1   ON2M     1  0.271724109033  0.458334236120
 OG2D1    ON3     1  0.276178602624  0.502080000000
 OG2D1    ON4     1  0.282414893650  0.565258245152
 OG2D1    ON5     1  0.282414893650  0.565258245152
 OG2D1    ON6     1  0.282414893650  0.565258245152
 OG2D1   ON6B     1  0.282414893650  0.565258245152
 OG2D1   OPER     1  0.273882756627  0.654375459843
 OG2D1     OS     1  0.282414893650  0.565258245152
 OG2D1   OSIA     1  0.282414893650  0.565258245152
 OG2D1   OSIE     1  0.282414893650  0.565258245152
 OG2D1   OSIH     1  0.282414893650  0.565258245152
 OG2D1    OSL     1  0.271724109033  0.458334236120
 OG2D1   OSLP     1  0.271724109033  0.458334236120
 OG2D1    OST     1  0.275465883649  0.588740986173
 OG2D1     OT     1  0.282254531881  0.565258245152
 OG2D1     OX     1  0.276178602624  0.502080000000
 OG2D1      P     1  0.316269044940  1.108562623941
 OG2D1     P2     1  0.316269044940  1.108562623941
 OG2D1     P3     1  0.316269044940  1.108562623941
 OG2D1     P4     1  0.316269044940  1.108562623941
 OG2D1     PB     1  0.283528517048  2.480939130571
 OG2D1   PB2P     1  0.281345815189  0.709160229545
 OG2D1     PC     1  0.316269044940  1.108562623941
 OG2D1     PD     1  0.250297994862  3.594345799725
 OG2D1   PD2P     1  0.207321040698  0.604931743112
 OG2D1    PG0     1  0.316269044940  1.108562623941
 OG2D1    PG1     1  0.316269044940  1.108562623941
 OG2D1    PG2     1  0.316269044940  1.108562623941
 OG2D1     PL     1  0.316269044940  1.108562623941
 OG2D1   PM3P     1  0.272365556110  0.610634696689
 OG2D1    POT     1  0.281858081952  0.427505715330
 OG2D1   PR3P     1  0.272534826866  0.618836089652
 OG2D1     PT     1  0.251456163195  4.047898370266
 OG2D1   PT2P     1  0.195739357363  0.585341450465
 OG2D1   PU3P     1  0.273479179508  0.621883727679
 OG2D1   RA2P     1  0.310914743644  0.796368100295
 OG2D1   RH3P     1  0.165822978407  0.519557792281
 OG2D1    RUB     1  0.293996576986  0.561342505072
 OG2D1      S     1  0.302905564168  0.972273739232
 OG2D1     SC     1  0.311814551349  0.993644945843
 OG2D1   SC3P     1  0.222448500932  0.544241750989
 OG2D1  SEGD1     1  0.318496291735  1.144000784335
 OG2D1  SG2D1     1  0.307360057758  1.089448042267
 OG2D1  SG2P1     1  0.311253285157  1.151139989652
 OG2D1  SG2P2     1  0.307769871169  1.141151004963
 OG2D1 SG2R50     1  0.302905564168  0.972273739232
 OG2D1  SG301     1  0.300678317372  0.893457908130
 OG2D1  SG302     1  0.320723538531  0.993644945843
 OG2D1  SG311     1  0.302905564168  0.972273739232
 OG2D1  SG3O1     1  0.311814551349  0.993644945843
 OG2D1  SG3O2     1  0.302905564168  0.857464840095
 OG2D1  SG3O3     1  0.302905564168  0.857464840095
 OG2D1     SI     1  0.320723538531  1.122685010143
 OG2D1   SIH3     1  0.320723538531  1.122685010143
 OG2D1     SL     1  0.311814551349  0.993644945843
 OG2D1     SM     1  0.300678317372  0.893457908130
 OG2D1   SM2P     1  0.290121167562  0.717113677081
 OG2D1   SM3P     1  0.264302922711  0.607530631248
 OG2D1   SN2P     1  0.272436828007  0.628269083346
 OG2D1    SOD     1  0.250409357201  0.313883668846
 OG2D1     SP     1  0.320723538531  0.972273739232
 OG2D1   SR2P     1  0.290067713639  0.693282613612
 OG2D1     SS     1  0.320723538531  0.993644945843
 OG2D1   TB3P     1  0.256133381465  0.596363119665
 OG2D1   TI1P     1  0.296731636051  0.924313689298
 OG2D1   TI3P     1  0.198572415286  0.519557792281
 OG2D1   TL3P     1  0.202171646108  0.584982455368
 OG2D1   TM3P     1  0.244872421668  0.583364243539
 OG2D1    U3P     1  0.276285510470  0.631104773958
 OG2D1    V2P     1  0.223054312061  0.581380312401
 OG2D1    V3P     1  0.179444819808  0.509555547700
 OG2D1    Y3P     1  0.250645445362  0.589810452969
 OG2D1   YB2P     1  0.268071424288  0.656874675024
 OG2D1   YB3P     1  0.240115022513  0.580476284001
 OG2D1     ZN     1  0.221833780817  0.724690057887
 OG2D2  OG2D3     1  0.276178602624  0.502080000000
 OG2D2   OLG1     1  0.276178602624  0.502080000000
 OG2D2    POT     1  0.313952708273  0.427604800000
 OG2D2    SOD     1  0.287760285959  0.313883680000
 OG2D3  OG2D3     1  0.249451641079  0.502080000000
 OG2D3  OG2D4     1  0.276178602624  0.502080000000
 OG2D3  OG2D5     1  0.275465883649  0.588740986173
 OG2D3  OG2N1     1  0.276178602624  0.502080000000
 OG2D3  OG2P1     1  0.276178602624  0.502080000000
 OG2D3 OG2R50     1  0.276178602624  0.502080000000
 OG2D3  OG2S1     1  0.274361169238  0.546744910407
 OG2D3  OG301     1  0.271724109033  0.458334236120
 OG2D3  OG302     1  0.271724109033  0.458334236120
 OG2D3  OG303     1  0.271724109033  0.458334236120
 OG2D3  OG304     1  0.271724109033  0.458334236120
 OG2D3  OG311     1  0.281969444291  0.635251912639
 OG2D3  OG312     1  0.280633096214  0.502080000000
 OG2D3 OG3C31     1  0.271724109033  0.458334236120
 OG2D3 OG3C51     1  0.271724109033  0.458334236120
 OG2D3 OG3C61     1  0.271724109033  0.458334236120
 OG2D3 OG3R60     1  0.271724109033  0.458334236120
 OG2D3    OH1     1  0.282414893650  0.565258245152
 OG2D3    OHL     1  0.282414893650  0.565258245152
 OG2D3   OLG1     1  0.249451641079  0.502080000000
 OG2D3   OLG2     1  0.276178602624  0.502080000000
 OG2D3   OLG3     1  0.276178602624  0.502080000000
 OG2D3   OLG4     1  0.271724109033  0.458334236120
 OG2D3   OLG5     1  0.271724109033  0.458334236120
 OG2D3   OLG6     1  0.281969444291  0.635251912639
 OG2D3   OLG7     1  0.271724109033  0.458334236120
 OG2D3   OLG8     1  0.271724109033  0.458334236120
 OG2D3     OM     1  0.276178602624  0.502080000000
 OG2D3    ON1     1  0.276178602624  0.502080000000
 OG2D3   ON1C     1  0.276178602624  0.502080000000
 OG2D3    ON2     1  0.282414893650  0.565258245152
 OG2D3   ON2B     1  0.282414893650  0.565258245152
 OG2D3   ON2M     1  0.271724109033  0.458334236120
 OG2D3    ON3     1  0.276178602624  0.502080000000
 OG2D3    ON4     1  0.282414893650  0.565258245152
 OG2D3    ON5     1  0.282414893650  0.565258245152
 OG2D3    ON6     1  0.282414893650  0.565258245152
 OG2D3   ON6B     1  0.282414893650  0.565258245152
 OG2D3   OPER     1  0.273882756627  0.654375459843
 OG2D3     OS     1  0.282414893650  0.565258245152
 OG2D3   OSIA     1  0.282414893650  0.565258245152
 OG2D3   OSIE     1  0.282414893650  0.565258245152
 OG2D3   OSIH     1  0.282414893650  0.565258245152
 OG2D3    OSL     1  0.271724109033  0.458334236120
 OG2D3   OSLP     1  0.271724109033  0.458334236120
 OG2D3    OST     1  0.275465883649  0.588740986173
 OG2D3     OT     1  0.282254531881  0.565258245152
 OG2D3     OX     1  0.276178602624  0.502080000000
 OG2D3      P     1  0.316269044940  1.108562623941
 OG2D3     P2     1  0.316269044940  1.108562623941
 OG2D3     P3     1  0.316269044940  1.108562623941
 OG2D3     P4     1  0.316269044940  1.108562623941
 OG2D3     PB     1  0.283528517048  2.480939130571
 OG2D3   PB2P     1  0.281345815189  0.709160229545
 OG2D3     PC     1  0.316269044940  1.108562623941
 OG2D3     PD     1  0.250297994862  3.594345799725
 OG2D3   PD2P     1  0.207321040698  0.604931743112
 OG2D3    PG0     1  0.316269044940  1.108562623941
 OG2D3    PG1     1  0.316269044940  1.108562623941
 OG2D3    PG2     1  0.316269044940  1.108562623941
 OG2D3     PL     1  0.316269044940  1.108562623941
 OG2D3   PM3P     1  0.272365556110  0.610634696689
 OG2D3    POT     1  0.281858081952  0.427505715330
 OG2D3   PR3P     1  0.272534826866  0.618836089652
 OG2D3     PT     1  0.251456163195  4.047898370266
 OG2D3   PT2P     1  0.195739357363  0.585341450465
 OG2D3   PU3P     1  0.273479179508  0.621883727679
 OG2D3   RA2P     1  0.310914743644  0.796368100295
 OG2D3   RH3P     1  0.165822978407  0.519557792281
 OG2D3    RUB     1  0.293996576986  0.561342505072
 OG2D3      S     1  0.302905564168  0.972273739232
 OG2D3     SC     1  0.311814551349  0.993644945843
 OG2D3   SC3P     1  0.222448500932  0.544241750989
 OG2D3  SEGD1     1  0.318496291735  1.144000784335
 OG2D3  SG2D1     1  0.307360057758  1.089448042267
 OG2D3  SG2P1     1  0.311253285157  1.151139989652
 OG2D3  SG2P2     1  0.307769871169  1.141151004963
 OG2D3 SG2R50     1  0.302905564168  0.972273739232
 OG2D3  SG301     1  0.300678317372  0.893457908130
 OG2D3  SG302     1  0.320723538531  0.993644945843
 OG2D3  SG311     1  0.302905564168  0.972273739232
 OG2D3  SG3O1     1  0.311814551349  0.993644945843
 OG2D3  SG3O2     1  0.302905564168  0.857464840095
 OG2D3  SG3O3     1  0.302905564168  0.857464840095
 OG2D3     SI     1  0.320723538531  1.122685010143
 OG2D3   SIH3     1  0.320723538531  1.122685010143
 OG2D3     SL     1  0.311814551349  0.993644945843
 OG2D3     SM     1  0.300678317372  0.893457908130
 OG2D3   SM2P     1  0.290121167562  0.717113677081
 OG2D3   SM3P     1  0.264302922711  0.607530631248
 OG2D3   SN2P     1  0.272436828007  0.628269083346
 OG2D3    SOD     1  0.250409357201  0.313883668846
 OG2D3     SP     1  0.320723538531  0.972273739232
 OG2D3   SR2P     1  0.290067713639  0.693282613612
 OG2D3     SS     1  0.320723538531  0.993644945843
 OG2D3   TB3P     1  0.256133381465  0.596363119665
 OG2D3   TI1P     1  0.296731636051  0.924313689298
 OG2D3   TI3P     1  0.198572415286  0.519557792281
 OG2D3   TL3P     1  0.202171646108  0.584982455368
 OG2D3   TM3P     1  0.244872421668  0.583364243539
 OG2D3    U3P     1  0.276285510470  0.631104773958
 OG2D3    V2P     1  0.223054312061  0.581380312401
 OG2D3    V3P     1  0.179444819808  0.509555547700
 OG2D3    Y3P     1  0.250645445362  0.589810452969
 OG2D3   YB2P     1  0.268071424288  0.656874675024
 OG2D3   YB3P     1  0.240115022513  0.580476284001
 OG2D3     ZN     1  0.221833780817  0.724690057887
 OG2D4   OLG1     1  0.276178602624  0.502080000000
 OG2D5   OLG1     1  0.275465883649  0.588740986173
 OG2N1   OLG1     1  0.276178602624  0.502080000000
 OG2P1   OLG1     1  0.276178602624  0.502080000000
 OG2P1    SOD     1  0.281523994932  0.313883680000
OG2R50   OLG1     1  0.276178602624  0.502080000000
 OG2S1   OLG1     1  0.274361169238  0.546744910407
 OG301   OLG1     1  0.271724109033  0.458334236120
 OG302   OLG1     1  0.271724109033  0.458334236120
 OG303   OLG1     1  0.271724109033  0.458334236120
 OG304   OLG1     1  0.271724109033  0.458334236120
 OG311   OLG1     1  0.281969444291  0.635251912639
 OG312   OLG1     1  0.280633096214  0.502080000000
OG3C31   OLG1     1  0.271724109033  0.458334236120
OG3C51   OLG1     1  0.271724109033  0.458334236120
OG3C61   OLG1     1  0.271724109033  0.458334236120
OG3R60   OLG1     1  0.271724109033  0.458334236120
   OH1   OLG1     1  0.282414893650  0.565258245152
   OHL   OLG1     1  0.282414893650  0.565258245152
  OLG1   OLG1     1  0.249451641079  0.502080000000
  OLG1   OLG2     1  0.276178602624  0.502080000000
  OLG1   OLG3     1  0.276178602624  0.502080000000
  OLG1   OLG4     1  0.271724109033  0.458334236120
  OLG1   OLG5     1  0.271724109033  0.458334236120
  OLG1   OLG6     1  0.281969444291  0.635251912639
  OLG1   OLG7     1  0.271724109033  0.458334236120
  OLG1   OLG8     1  0.271724109033  0.458334236120
  OLG1     OM     1  0.276178602624  0.502080000000
  OLG1    ON1     1  0.276178602624  0.502080000000
  OLG1   ON1C     1  0.276178602624  0.502080000000
  OLG1    ON2     1  0.282414893650  0.565258245152
  OLG1   ON2B     1  0.282414893650  0.565258245152
  OLG1   ON2M     1  0.271724109033  0.458334236120
  OLG1    ON3     1  0.276178602624  0.502080000000
  OLG1    ON4     1  0.282414893650  0.565258245152
  OLG1    ON5     1  0.282414893650  0.565258245152
  OLG1    ON6     1  0.282414893650  0.565258245152
  OLG1   ON6B     1  0.282414893650  0.565258245152
  OLG1   OPER     1  0.273882756627  0.654375459843
  OLG1     OS     1  0.282414893650  0.565258245152
  OLG1   OSIA     1  0.282414893650  0.565258245152
  OLG1   OSIE     1  0.282414893650  0.565258245152
  OLG1   OSIH     1  0.282414893650  0.565258245152
  OLG1    OSL     1  0.271724109033  0.458334236120
  OLG1   OSLP     1  0.271724109033  0.458334236120
  OLG1    OST     1  0.275465883649  0.588740986173
  OLG1     OT     1  0.282254531881  0.565258245152
  OLG1     OX     1  0.276178602624  0.502080000000
  OLG1      P     1  0.316269044940  1.108562623941
  OLG1     P2     1  0.316269044940  1.108562623941
  OLG1     P3     1  0.316269044940  1.108562623941
  OLG1     P4     1  0.316269044940  1.108562623941
  OLG1     PB     1  0.283528517048  2.480939130571
  OLG1   PB2P     1  0.281345815189  0.709160229545
  OLG1     PC     1  0.316269044940  1.108562623941
  OLG1     PD     1  0.250297994862  3.594345799725
  OLG1   PD2P     1  0.207321040698  0.604931743112
  OLG1    PG0     1  0.316269044940  1.108562623941
  OLG1    PG1     1  0.316269044940  1.108562623941
  OLG1    PG2     1  0.316269044940  1.108562623941
  OLG1     PL     1  0.316269044940  1.108562623941
  OLG1   PM3P     1  0.272365556110  0.610634696689
  OLG1    POT     1  0.281858081952  0.427505715330
  OLG1   PR3P     1  0.272534826866  0.618836089652
  OLG1     PT     1  0.251456163195  4.047898370266
  OLG1   PT2P     1  0.195739357363  0.585341450465
  OLG1   PU3P     1  0.273479179508  0.621883727679
  OLG1   RA2P     1  0.310914743644  0.796368100295
  OLG1   RH3P     1  0.165822978407  0.519557792281
  OLG1    RUB     1  0.293996576986  0.561342505072
  OLG1      S     1  0.302905564168  0.972273739232
  OLG1     SC     1  0.311814551349  0.993644945843
  OLG1   SC3P     1  0.222448500932  0.544241750989
  OLG1  SEGD1     1  0.318496291735  1.144000784335
  OLG1  SG2D1     1  0.307360057758  1.089448042267
  OLG1  SG2P1     1  0.311253285157  1.151139989652
  OLG1  SG2P2     1  0.307769871169  1.141151004963
  OLG1 SG2R50     1  0.302905564168  0.972273739232
  OLG1  SG301     1  0.300678317372  0.893457908130
  OLG1  SG302     1  0.320723538531  0.993644945843
  OLG1  SG311     1  0.302905564168  0.972273739232
  OLG1  SG3O1     1  0.311814551349  0.993644945843
  OLG1  SG3O2     1  0.302905564168  0.857464840095
  OLG1  SG3O3     1  0.302905564168  0.857464840095
  OLG1     SI     1  0.320723538531  1.122685010143
  OLG1   SIH3     1  0.320723538531  1.122685010143
  OLG1     SL     1  0.311814551349  0.993644945843
  OLG1     SM     1  0.300678317372  0.893457908130
  OLG1   SM2P     1  0.290121167562  0.717113677081
  OLG1   SM3P     1  0.264302922711  0.607530631248
  OLG1   SN2P     1  0.272436828007  0.628269083346
  OLG1    SOD     1  0.250409357201  0.313883668846
  OLG1     SP     1  0.320723538531  0.972273739232
  OLG1   SR2P     1  0.290067713639  0.693282613612
  OLG1     SS     1  0.320723538531  0.993644945843
  OLG1   TB3P     1  0.256133381465  0.596363119665
  OLG1   TI1P     1  0.296731636051  0.924313689298
  OLG1   TI3P     1  0.198572415286  0.519557792281
  OLG1   TL3P     1  0.202171646108  0.584982455368
  OLG1   TM3P     1  0.244872421668  0.583364243539
  OLG1    U3P     1  0.276285510470  0.631104773958
  OLG1    V2P     1  0.223054312061  0.581380312401
  OLG1    V3P     1  0.179444819808  0.509555547700
  OLG1    Y3P     1  0.250645445362  0.589810452969
  OLG1   YB2P     1  0.268071424288  0.656874675024
  OLG1   YB3P     1  0.240115022513  0.580476284001
  OLG1     ZN     1  0.221833780817  0.724690057887
    OS    SOD     1  0.278851298778  0.313883680000


; CHARMM-port for GROMACS
; created with charmm2gmx version 0.7.dev45+g7b82040.d20221208 on 2022-12-08 10:52:45.732483
; Code: https://gitlab.com/awacha/charmm2gmx
; Documentation: https://awacha.gitlab.com/charmm2gmx
; Charmm2GMX written by András Wacha, based on the original port by 
; E. Prabhu Raman, Justin A. Lemkul, Robert Best and Alexander D. MacKerell, Jr.
; The following files were used: 
; 
; toppar_c36_jul22/metals/CHARMM_METAL/par_all22_prot_metals.inp
; toppar_c36_jul22/metals/CHARMM_METAL/top_all22_prot_metals.inp
; toppar_c36_jul22/par_all35_ethers.prm
; toppar_c36_jul22/par_all36_carb.prm
; toppar_c36_jul22/par_all36_cgenff.prm
; toppar_c36_jul22/par_all36_lipid.prm
; toppar_c36_jul22/par_all36_na.prm
; toppar_c36_jul22/par_all36m_prot.prm
; toppar_c36_jul22/silicates/toppar/par_silicates.inp
; toppar_c36_jul22/silicates/toppar/top_silicates.inp
; toppar_c36_jul22/stream/carb/toppar_all36_carb_glycolipid.str
; toppar_c36_jul22/stream/carb/toppar_all36_carb_glycopeptide.str
; toppar_c36_jul22/stream/carb/toppar_all36_carb_imlab.str
; toppar_c36_jul22/stream/carb/toppar_all36_carb_lignin.str
; toppar_c36_jul22/stream/lipid/toppar_all36_lipid_bacterial.str
; toppar_c36_jul22/stream/lipid/toppar_all36_lipid_cholesterol.str
; toppar_c36_jul22/stream/lipid/toppar_all36_lipid_detergent.str
; toppar_c36_jul22/stream/lipid/toppar_all36_lipid_ether.str
; toppar_c36_jul22/stream/lipid/toppar_all36_lipid_lps.str
; toppar_c36_jul22/stream/lipid/toppar_all36_lipid_miscellaneous.str
; toppar_c36_jul22/stream/lipid/toppar_all36_lipid_prot.str
; toppar_c36_jul22/stream/lipid/toppar_all36_lipid_sphingo.str
; toppar_c36_jul22/stream/misc/toppar_ions_won.str
; toppar_c36_jul22/stream/na/toppar_all36_na_modifications.str
; toppar_c36_jul22/stream/na/toppar_all36_na_nad_ppi.str
; toppar_c36_jul22/stream/prot/toppar_all36_prot_arg0.str
; toppar_c36_jul22/stream/prot/toppar_all36_prot_c36m_d_aminoacids.str
; toppar_c36_jul22/stream/prot/toppar_all36_prot_fluoro_alkanes.str
; toppar_c36_jul22/stream/prot/toppar_all36_prot_heme.str
; toppar_c36_jul22/stream/prot/toppar_all36_prot_model.str
; toppar_c36_jul22/stream/prot/toppar_all36_prot_modify_res.str
; toppar_c36_jul22/stream/prot/toppar_all36_prot_na_combined.str
; toppar_c36_jul22/stream/prot/toppar_all36_prot_retinol.str
; toppar_c36_jul22/top_all36_prot.rtf
; toppar_c36_jul22/toppar_water_ions.str
;

[ bondtypes ]

; bond parameters from 
;      i        j  func           b0           kb

; bond parameters from toppar_c36_jul22/metals/CHARMM_METAL/par_all22_prot_metals.inp
;      i        j  func           b0           kb
      HA       CA     1   0.10830000    284512.00 ; ALLOW ARO
      HA       CC     1   0.11000000    265374.38 ; ALLOW POL
      HA      CP2     1   0.11110000    258571.20 ; ALLOW PRO
      HA      CP3     1   0.11110000    258571.20 ; ALLOW PRO
      HA       CS     1   0.11110000    251040.00 ; ALLOW   SUL
      HA      CT1     1   0.11110000    258571.20 ; ALLOW   ALI
      HA      CT2     1   0.11110000    258571.20 ; ALLOW   ALI
      HA      CT3     1   0.11110000    269449.60 ; ALLOW   ALI
      HA       CY     1   0.10800000    276144.00 ; ALLOW   ARO
      HB      CP1     1   0.10800000    276144.00 ; ALLOW PRO
      HB      CT1     1   0.10800000    276144.00 ; ALLOW   PEP
      HB      CT2     1   0.10800000    276144.00 ; ALLOW   PEP
      HB      CT3     1   0.10800000    276144.00 ; ALLOW   PEP

; bond parameters from toppar_c36_jul22/metals/CHARMM_METAL/top_all22_prot_metals.inp
;      i        j  func           b0           kb

; bond parameters from toppar_c36_jul22/par_all35_ethers.prm
;      i        j  func           b0           kb
   CC31A    HCA1A     1   0.11110000    258571.20 ; alkanes, 4/98
   CC32A    HCA2A     1   0.11110000    258571.20 ; alkanes, 4/98
   CC33A    HCA3A     1   0.11110000    269449.60 ; alkanes, 4/98
   CC30A    CC32A     1   0.15380000    186188.00 ; 10/98
   CC30A    CC33A     1   0.15380000    186188.00 ; 10/98
   CC31A    CC31A     1   0.15000000    186188.00 ; alkanes, 3/92
   CC31A    CC32A     1   0.15380000    186188.00 ; alkanes, 3/92
   CC31A    CC33A     1   0.15380000    186188.00 ; alkanes, 3/92
   CC32A    CC32A     1   0.15300000    186188.00 ; alkanes, 3/92
   CC32A    CC33A     1   0.15280000    186188.00 ; alkanes, 3/92
   CC33A    CC33A     1   0.15300000    186188.00 ; alkanes, 3/92
  CC325A   CC325A     1   0.15480000    163176.00 ; cyclopentane CPEN 10/17/05 viv
  CC325A   HCA25A     1   0.11160000    256897.60 ; cyclopentane CPEN 10/17/05 viv
  CC325B   OC305A     1   0.14250000    292880.00 ; THF, nucleotide CSD/NDB survey, 5/30/06,viv
  CC325B   CC325B     1   0.15180000    163176.00 ; THF, nucleotide CSD/NDB survey, 5/30/06,viv
  CC325B   HCA25A     1   0.11000000    256897.60 ; THF, THF neutron diffr., 5/30/06, viv
  CC325B    CC33A     1   0.15280000    186188.00 ; TF2M, viv
   CC32A    OC30A     1   0.14150000    301248.00 ; DEET, diethylether, alex
   CC33A    OC30A     1   0.14150000    301248.00 ; DEET, diethylether, alex
  CC326A    HCA2A     1   0.11110000    258571.20 ; THP, viv
  CC326A   CC326A     1   0.15300000    186188.00 ; THP, viv
  CC326A    OC30A     1   0.14150000    301248.00 ; DEET, diethylether, viv

; bond parameters from toppar_c36_jul22/par_all36_carb.prm
;      i        j  func           b0           kb
   OC2D3    CC2O3     1   0.12150000    585760.00 ; ketone MP2/6-31g*, CSD geometry
   CC2O3    CC331     1   0.15000000    276144.00 ; ketone MP2/6-31g*, CSD geometry
   CC2O3    CC312     1   0.15000000    276144.00 ; ketone
   CC2O3    CC322     1   0.15000000    276144.00 ; ketone
   OC2D4    CC2O4     1   0.12150000    585760.00 ; acetaldehyde, adm
    HCR1    CC2O4     1   0.11100000    276144.00 ; acetaldehyde, adm
   CC2O4    CC331     1   0.15000000    209200.00 ; acetaldehyde, adm
   CC2O4    CC312     1   0.15000000    209200.00 ; acetaldehyde, adm
   CC311    CC311     1   0.15000000    186188.00 ; par22 CT1 CT1
   CC312    CC312     1   0.14850000    186188.00 ; adm 11/08, glycerol
  CC3161   CC3163     1   0.15000000    186188.00 ; par22 CT1 CT1
  CC3161   CC3263     1   0.15000000    186188.00 ; CC3161 CC3163 og xtal xylose
   CC312    CC322     1   0.14850000    186188.00 ; adm 11/08, glycerol
   CC301    CC331     1   0.15380000    186188.00 ; genff CG301 CG331
   CC311    CC321     1   0.15380000    186188.00 ; par22 CT2 CT1
   CC311    CC331     1   0.15380000    186188.00 ; par22 CT3 CT1
   CC331   CC3163     1   0.15380000    186188.00 ; par22 CT3 CT1 og xtal alfuco
  CC3161   CC3161     1   0.14800000    186188.00 ; sng qm and crystal analysis
  CC3261   CC3161     1   0.14800000    186188.00 ; from CC3161 CC3161
  CC3161   CC3162     1   0.14800000    186188.00 ; sng qm and crystal analysis
  CC3261   CC3062     1   0.15150000    186188.00 ; og xtal kemyac
   CC321   CC3163     1   0.14900000    186188.00 ; sng qm and crystal analysis
   CC312   CC3163     1   0.14900000    186188.00 ; from CC321  CC3163
   CC301    CC2O2     1   0.15220000    167360.00 ; par22 CT1 CC
   CC311    CC2O2     1   0.15220000    167360.00 ; par22 CT1 CC
  CC3163    CC2O2     1   0.14800000    167360.00 ; og xtal
  CC3062    CC2O2     1   0.14800000    167360.00 ; og xtal
   CC2O1    CC331     1   0.15200000    209200.00 ; og ipaa and xtal acglua11 agalam10 nacman10
   CC321    CC331     1   0.15280000    186188.00 ; par22 CT3 CT2
   CC321    CC321     1   0.15300000    186188.00 ; par22 CT2 CT2
  CC321C   CC321C     1   0.15300000    186188.00 ; par22 CT2 CT2
  CC321C   CC321D     1   0.15300000    186188.00 ; par22 CT2 CT2
  CC321C   CC311C     1   0.15380000    186188.00 ; par22 CT2 CT1
   CC321   CC311C     1   0.14900000    186188.00 ; from CC321 CC3163
  CC321C   CC311D     1   0.15380000    186188.00 ; par22 CT2 CT1
  CC321D   CC311C     1   0.15380000    186188.00 ; par22 CT2 CT1
   CC321    CC2O2     1   0.15220000    167360.00 ; par22 CT2 CC
  CC3161    OC311     1   0.14100000    343088.00 ; og crystal analysis
  CC3162    OC311     1   0.14000000    358150.40 ; og crystal analysis
  CC3062    OC311     1   0.14000000    358150.40 ; from CC3162 OC311
   CC301    OC311     1   0.14200000    358150.40 ; par22 OH1 CT1
   CC311    OC311     1   0.14200000    358150.40 ; par22 OH1 CT1
   CC312    OC311     1   0.14200000    334720.00 ; adm 11/08, glycerol
   CC311   OC311M     1   0.14200000    358150.40 ; par22 OH1 CT1
   CC321    OC311     1   0.14200000    358150.40 ; par22 OH1 CT2
   CC321   OC311M     1   0.14200000    358150.40 ; par22 OH1 CT2
   CC331   OC311M     1   0.14200000    358150.40 ; par22 OH1 CT3
   CC322    OC311     1   0.14200000    334720.00 ; adm 11/08, glycerol
   CC2O1    OC2D1     1   0.12300000    518816.00 ; par22 O   C
   CC2O2    OC2D2     1   0.12600000    439320.00 ; par22 OC  CC
   CC301    OC301     1   0.14150000    301248.00 ; par35 CC32A OC30A
   CC311    OC301     1   0.14150000    301248.00 ; par35 CC32A OC30A
   CC321    OC301     1   0.14150000    301248.00 ; par35 CC32A OC30A
   CC331    OC301     1   0.14150000    301248.00 ; par35 CC33A OC30A
  CC311D    OC301     1   0.13950000    301248.00 ; og disac model compounds 2 and 3
  CC3162    OC301     1   0.13950000    301248.00 ; og disac model compounds 2 3 og/rmv crystals
  CC3062    OC301     1   0.13950000    301248.00 ; from CC3162  OC301
  CC311D    OC302     1   0.14150000    301248.00 ; og disac model compounds 4 5 6
  CC3162    OC302     1   0.14150000    301248.00 ; og disac model comps 4 5 6 og/rmv crystals
  CC311C    OC301     1   0.14350000    301248.00 ; og disac model compounds 7 8 9 and 10
  CC3161    OC301     1   0.14150000    301248.00 ; og/rmv disac crystals
  CC321D   OC3C61     1   0.14150000    301248.00 ; par34 CC326A OC30A
  CC311D   OC3C61     1   0.14150000    301248.00 ; par34 CC326A OC30A
  CC3162   OC3C61     1   0.14250000    301248.00 ; og crystal analysis
  CC3062   OC3C61     1   0.14250000    301248.00 ; from CC3162 OC3C61
  CC321C   OC3C61     1   0.14150000    301248.00 ; par34 CC326A OC30A
  CC311C   OC3C61     1   0.14150000    301248.00 ; par34 CC326A OC30A
  CC3163   OC3C61     1   0.14250000    301248.00 ; sng qm and crystal analysis
  CC3263   OC3C61     1   0.14250000    301248.00 ; CC3263 OC3C61 og xylose xtal ok
   NC2D1    CC311     1   0.14300000    267776.00 ; par22 NH1 CT1
   NC2D1   CC3161     1   0.14300000    267776.00 ; par22 NH1 CT1
   NC2D1    CC331     1   0.14300000    267776.00 ; par22 NH1 CT3
   NC2D1    CC2O1     1   0.13450000    309616.00 ; par22 NH1 C
   CC311     HCA1     1   0.11110000    258571.20 ; par22 HA  CT1
   CC312     HCA1     1   0.11110000    258571.20 ; par22 HA  CT1
  CC3161     HCA1     1   0.11110000    258571.20 ; par22 HA  CT1
  CC3162     HCA1     1   0.11110000    258571.20 ; par22 HA  CT1
  CC3163     HCA1     1   0.11110000    258571.20 ; par22 HA  CT1
  CC311C     HCA1     1   0.11110000    258571.20 ; par22 HA  CT1
  CC311D     HCA1     1   0.11110000    258571.20 ; par22 HA  CT1
   CC321     HCA2     1   0.11110000    258571.20 ; par22 HA  CT2
   CC322     HCA2     1   0.11110000    258571.20 ; par22 HA  CT2
  CC3263     HCA2     1   0.11110000    258571.20 ; par22 HA  CT2
   CC331     HCA3     1   0.11110000    269449.60 ; par22 HA  CT3
  CC321C     HCA2     1   0.11110000    258571.20 ; par22 HA  CT2
  CC321D     HCA2     1   0.11110000    258571.20 ; par22 HA  CT2
  CC3261     HCA2     1   0.11110000    258571.20 ; par22 HA  CT2
   OC311     HCP1     1   0.09600000    456056.00 ; par22 OH1 H
  OC311M     HCP1     1   0.09600000    456056.00 ; par22 OH1 H
  OC311M    HCP1M     1   0.09600000    456056.00 ; par22 OH1 H
   NC2D1     HCP1     1   0.09970000    368192.00 ; par22 NH1 H
  CC322C   OC3C5M     1   0.14250000    292880.00 ; par34 CC325B    OC305A
  CC322C   CC322C     1   0.15180000    163176.00 ; par34 CC325B    CC325B
  CC322C   HCA2C2     1   0.11000000    256897.60 ; par34 CC325B    HCA25A
  CC312C    CC331     1   0.15280000    186188.00 ; par34 CC325B    CC33A
  CC312C   OC3C5M     1   0.14250000    292880.00 ; par34 CC325B    OC305A
  CC312C   CC322C     1   0.15180000    163176.00 ; par34 CC325B    CC325B
  CC312C   HCA1C2     1   0.11000000    256897.60 ; par34 CC325B    HCA25A
  CC312C    OC301     1   0.13950000    301248.00 ; erh xtal analysis on disac
  OC3C51   CC3152     1   0.14250000    292880.00 ; par34 CC325B    OC305A
  OC3C51   CC3051     1   0.14250000    292880.00 ; par34 CC325B    OC305A
  OC3C51   CC3153     1   0.14250000    292880.00 ; par34 CC325B    OC305A
   OC311   CC3152     1   0.13950000    358150.40 ; erh crystal analysis on furanose 3/09
   OC311   CC3051     1   0.13950000    358150.40 ; erh crystal analysis on furanose 3/09
   OC311   CC3151     1   0.13950000    343088.00 ; erh crystal analysis on furanose 3/09
  CC3152     HCA1     1   0.11110000    258571.20 ; par22 HA  CT1
  CC3251     HCA2     1   0.11000000    256897.60 ; par_carb CC322C  HCA2C2
  CC3151     HCA1     1   0.11110000    258571.20 ; par22 HA  CT1
  CC3153     HCA1     1   0.11110000    258571.20 ; par22 HA  CT1
  CC3152   CC3251     1   0.15080000    163176.00 ; erh crystal analysis on furanose 3/09
  CC3051   CC3251     1   0.15080000    163176.00 ; erh crystal analysis on furanose 3/09
  CC3251   CC3151     1   0.15080000    163176.00 ; erh crystal analysis on furanose 3/09
  CC3151   CC3153     1   0.15080000    163176.00 ; erh crystal analysis on furanose 3/09
  CC3151   CC3152     1   0.15080000    163176.00 ; erh crystal analysis on furanose 3/09
  CC3151   CC3051     1   0.15080000    163176.00 ; erh crystal analysis on furanose 3/09
  CC3151   CC3151     1   0.15080000    163176.00 ; erh crystal analysis on furanose 3/09
  CC3153    CC321     1   0.14900000    186188.00 ; par_carb CC321 CC3163 (sng qm/crystal mod); erh 2/09
  CC3051    CC321     1   0.14900000    186188.00 ; par_carb CC321 CC3163 (sng qm/crystal mod); erh 2/09
  CC3152    OC301     1   0.13950000    301248.00 ; erh xtal analysis on disac
  CC321D   CC311D     1   0.15380000    186188.00 ; par22 CT2 CT1
  CC311D   CC311D     1   0.15380000    186188.00 ; par22 CT2 CT1
  CC3161    OC30P     1   0.14250000    301248.00 ; 
  CC311D    OC30P     1   0.14250000    301248.00 ; 
  CC3162    OC30P     1   0.14250000    301248.00 ; 
   CC321    OC30P     1   0.14520000    301248.00 ; 
   OC30P       PC     1   0.16750000    225936.00 ; 
   OC2DP       PC     1   0.15250000    485344.00 ; 
   OC312       PC     1   0.16100000    198321.60 ; 
   OC312     HCP1     1   0.09600000    456056.00 ; 
      SC    OC2DP     1   0.14480000    451872.00 ; methylsulfate
      SC    OC30P     1   0.16100000    209200.00 ; methylsulfate
  CC312D    OC301     1   0.13950000    301248.00 ; OMe-THF CC312C  OC301
  CC312D   OC3C5M     1   0.14250000    292880.00 ; OMe-THF CC312C  OC3C5M
  CC312D   CC322C     1   0.15180000    163176.00 ; THF w/me CC312C  CC322C
  CC312D     HCA1     1   0.11000000    256897.60 ; THF w/me CC312C  HCA1C2
  CC312D    OC302     1   0.14250000    301248.00 ; pram, modified (from OMe-THF) to match model comp 1(raman et al.) QM minima geometry and SUCROS04 crystal
  CC312C     HCA1     1   0.11000000    256897.60 ; THF w/me CC312C  HCA1C2
  CC312C    CC321     1   0.15000000    186188.00 ; pram, modified 12/26/2010 (from THF w/me) to match model comp 2(raman et al.) QM minima geometry
   CC331    OC303     1   0.14150000    301248.00 ; Ome-THF CC331   OC301
  CC312C    OC303     1   0.14250000    301248.00 ; pram, modified (from OMe-THF)  to match model comp 3(raman et al.) QM minima geometry
  CC311D    OC303     1   0.13950000    301248.00 ; CC311D  OC301
  CC3051    OC302     1   0.14250000    301248.00 ; CC312D  OC301 - model compound 1 (raman et. al.), crystal analysis
  CC3162    OC303     1   0.13950000    301248.00 ; CC311D  OC303 - model compound 3 (raman et. al.)
   OC303   CC3151     1   0.14250000    301248.00 ; CC312C  OC303 - model compound 3 (raman et. al.)
   OC301   CC3051     1   0.13950000    301248.00 ; CC312C  OC301 - Ome-THF
   OC301    CC312     1   0.14200000    334720.00 ; from CC312   OC311
   OC301    CC322     1   0.14200000    334720.00 ; from CC312   OC311
   CC2O5    OC301     1   0.13340000    125520.00 ; CG2O2  OG302
   CC2O5    CC331     1   0.15220000    167360.00 ; CG2O2  CG331
   CC2O5    OC2D1     1   0.12200000    627600.00 ; CG2O2  OG2D1
      SC    NC311     1   0.17000000    154808.00 ; SUFMA/B, Targeting crystal survey value instead of QM, xxwy
  CC3161    NC311     1   0.14550000    225936.00 ; SUFMA/B, xxwy
   NC311     HCP1     1   0.10300000    361497.60 ; SUFMA/B, xxwy

; bond parameters from toppar_c36_jul22/par_all36_cgenff.prm
;      i        j  func           b0           kb
   CG1N1   CG2R51     1   0.14220000    313800.00 ; DCG, yxu, RNA
   CG1N1   CG2R61     1   0.14350000    288696.00 ; 3CYP, 3-Cyanopyridine (PYRIDINE pyr-CN) (MP2 by kevo)
   CG1N1    CG321     1   0.14700000    334720.00 ; CYU, from CG1N1 CG331, yxu, RNA
   CG1N1    CG331     1   0.14700000    334720.00 ; ACN, acetonitrile, kevo
   CG1N1    NG1T1     1   0.11800000    881150.40 ; ACN, acetonitrile; 3CYP, 3-Cyanopyridine (PYRIDINE pyr-CN) (MP2 by kevo)
   CG1N1    SG311     1   0.17011000    275131.47 ; XCN, by ac_aa
   CG1T1    CG1T1     1   0.12200000    803328.00 ; 2BTY, 2-butyne, kevo
   CG1T1    CG1T2     1   0.12200000    820064.00 ; PRPY, propyne, kevo
   CG1T1    CG2D1     1   0.14350000    288696.00 ; BEYN pchat
   CG1T1    CG321     1   0.14650000    343088.00 ; BUTY, PNTY, HXYN, HPTY, OCTY pchat
   CG1T1    CG331     1   0.14650000    343088.00 ; 2BTY, 2-butyne, kevo
   CG1T2   HGPAM1     1   0.10700000    356476.80 ; PRPY, propyne, xxwy & kevo
  CG251O   CG25C1     1   0.13400000    368192.00 ; OIRD, oxindol-3-ylidene rhodanine; from PY02, 2h-pyran (re-optimize); kevo
  CG251O   CG2DC1     1   0.13402000    499862.48 ; NRQ DYG, by ac_aa
  CG251O   CG2DC3     1   0.13400000    476976.00 ; MRDN, methylidene rhodanine, kevo & xxwy
  CG251O   CG2R53     1   0.14800000    213384.00 ; MRDN, methylidene rhodanine, kevo & xxwy
  CG251O   NG2R50     1   0.14113000    288495.17 ; NRQ DYG MDO, by ac_aa
  CG251O   NG2R53     1   0.14100000    167360.00 ; MHYO, 5-methylenehydantoin, xxwy
  CG251O    SG311     1   0.17700000    167360.00 ; MRDN, methylidene rhodanine, kevo & xxwy
  CG252O   CG25C2     1   0.13400000    368192.00 ; OIRD, oxindol-3-ylidene rhodanine; from PY02, 2h-pyran (re-optimize); kevo
  CG252O   CG2DC2     1   0.13402000    499862.48 ; NRQ DYG, by ac_aa
  CG252O   CG2DC3     1   0.13400000    476976.00 ; MRDN, methylidene rhodanine, kevo & xxwy
  CG252O   CG2R53     1   0.14800000    213384.00 ; MRDN, methylidene rhodanine, kevo & xxwy
  CG252O   NG2R50     1   0.14113000    288495.17 ; NRQ DYG MDO, by ac_aa
  CG252O   NG2R53     1   0.14100000    167360.00 ; MHYO, 5-methylenehydantoin, xxwy
  CG252O    SG311     1   0.17700000    167360.00 ; MRDN, methylidene rhodanine, kevo & xxwy
  CG25C1   CG2DC3     1   0.13420000    418400.00 ; MEOI, methyleneoxindole; from RETINOL 13DB, 1,3-Butadiene (re-optimize); kevo
  CG25C1   CG2R53     1   0.14900000    206689.60 ; MEOI, methyleneoxindole, kevo & xxwy
  CG25C1   CG2RC0     1   0.14800000    242672.00 ; MEOI, methyleneoxindole, kevo & xxwy
  CG25C2   CG2DC3     1   0.13420000    418400.00 ; MEOI, methyleneoxindole; from RETINOL 13DB, 1,3-Butadiene (re-optimize); kevo
  CG25C2   CG2R53     1   0.14900000    206689.60 ; MEOI, methyleneoxindole, kevo & xxwy
  CG25C2   CG2RC0     1   0.14800000    242672.00 ; MEOI, methyleneoxindole, kevo & xxwy
   CG2D1    CG2D1     1   0.13400000    368192.00 ; LIPID butene, yin,adm jr., 12/95
   CG2D1   CG2D1O     1   0.13180000    368192.00 ; PY01, 4h-pyran
   CG2D1    CG2D2     1   0.13420000    418400.00 ; LIPID propene, yin,adm jr., 12/95
   CG2D1   CG2D2O     1   0.13180000    368192.00 ; PY01, 4h-pyran
   CG2D1    CG301     1   0.15020000    200832.00 ; CHOLEST cholesterol
   CG2D1    CG311     1   0.15020000    305432.00 ; from CG2D1 CG321, PENALTY= 4 ACZ
   CG2D1    CG314     1   0.15020000    305432.00 ; from CG2D1 CG321, PENALTY= 5 ACZ
   CG2D1    CG321     1   0.15020000    305432.00 ; LIPID butene; from propene, yin,adm jr., 12/95
   CG2D1    CG324     1   0.14950000    309616.00 ; IAU, yxu, RNA
   CG2D1    CG331     1   0.15040000    320494.40 ; LIPID butene, yin,adm jr., 12/95
   CG2D1    NG2D1     1   0.12760000    418400.00 ; RETINOL SCH1, Schiff's base, deprotonated
   CG2D1    NG2P1     1   0.12830000    393296.00 ; RETINOL SCH2, Schiff's base, protonated
   CG2D1     HGA4     1   0.11000000    301666.40 ; LIPID propene, yin,adm jr., 12/95
   CG2D1    HGR52     1   0.11000000    301666.40 ; RETINOL SCH2, Schiff's base, protonated
  CG2D1O    CG2D2     1   0.13400000    502080.00 ; MOET, Methoxyethene, xxwy
  CG2D1O   CG2DC1     1   0.13400000    368192.00 ; PY02, 2h-pyran
  CG2D1O    CG2O1     1   0.14925000    239341.54 ; DYAP, by ac_aa
  CG2D1O    CG2O5     1   0.14618000    196815.36 ; TPQ, by ac_aa
  CG2D1O    CG331     1   0.15092000    287859.20 ; FZN, by ac_aa
  CG2D1O    NG2D1     1   0.13000000    418400.00 ; ABSB, amide base, sr
  CG2D1O    NG2S1     1   0.13770000    305632.83 ; DYAP, by ac_aa
  CG2D1O    NG301     1   0.13550000    351456.00 ; NADH, NDPH; Kenno: reverted to nadh/ppi, jjp1/adm jr. 7/95
  CG2D1O    NG311     1   0.13550000    351456.00 ; NICH; Kenno: reverted to nadh/ppi, jjp1/adm jr. 7/95
  CG2D1O    NG321     1   0.14000000    351456.00 ; AMET, ethenamine; mp2-geom, checked molvib; pram
  CG2D1O    OG301     1   0.13600000    322168.00 ; MOET, Methoxyethene, xxwy
  CG2D1O    OG311     1   0.13600000    322168.00 ; from CG2D2O OG301, PENALTY= 5 TPQP
  CG2D1O    OG312     1   0.12590000    546530.82 ; TPQ, by ac_aa
  CG2D1O   OG3R60     1   0.13470000    418400.00 ; PY01, 4h-pyran
  CG2D1O    SG311     1   0.17704000    159393.66 ; FZN, by ac_aa
  CG2D1O     HGA4     1   0.11000000    301666.40 ; PY01, 4h-pyran
   CG2D2    CG2D2     1   0.13300000    426768.00 ; LIPID ethene yin,adm jr., 12/95
   CG2D2   CG2D2O     1   0.13400000    502080.00 ; MOET, Methoxyethene, xxwy
   CG2D2     HGA5     1   0.11000000    305432.00 ; LIPID propene; from ethene, yin,adm jr., 12/95
  CG2D2O   CG2DC2     1   0.13400000    368192.00 ; PY02, 2h-pyran
  CG2D2O    CG2O1     1   0.14925000    239341.54 ; DYAP, by ac_aa
  CG2D2O    CG2O5     1   0.14618000    196815.36 ; TPQ, by ac_aa
  CG2D2O    CG331     1   0.15092000    287859.20 ; FZN, by ac_aa
  CG2D2O    NG2D1     1   0.13000000    418400.00 ; ABSB, amide base, sr
  CG2D2O    NG2S1     1   0.13770000    305632.83 ; DYAP, by ac_aa
  CG2D2O    NG301     1   0.13550000    351456.00 ; NADH, NDPH; Kenno: reverted to nadh/ppi, jjp1/adm jr. 7/95
  CG2D2O    NG311     1   0.13550000    351456.00 ; NICH; Kenno: reverted to nadh/ppi, jjp1/adm jr. 7/95
  CG2D2O    NG321     1   0.14000000    351456.00 ; AMET, ethenamine; mp2-geom, checked molvib; pram
  CG2D2O    OG301     1   0.13600000    322168.00 ; MOET, Methoxyethene, xxwy
  CG2D2O    OG311     1   0.13600000    322168.00 ; from CG2D2O OG301, PENALTY= 5 TPQP
  CG2D2O    OG312     1   0.12590000    546530.82 ; TPQ, by ac_aa
  CG2D2O   OG3R60     1   0.13470000    418400.00 ; PY01, 4h-pyran
  CG2D2O    SG311     1   0.17704000    159393.66 ; FZN, by ac_aa
  CG2D2O     HGA4     1   0.11000000    301666.40 ; PY01, 4h-pyran
  CG2DC1   CG2DC1     1   0.13400000    368192.00 ; RETINOL BTE2, 2-butene
  CG2DC1   CG2DC2     1   0.14500000    251040.00 ; RETINOL 13DB, Butadiene @@@@@ Kenno: 1.47 --> 1.45 @@@@@
  CG2DC1   CG2DC3     1   0.13420000    418400.00 ; RETINOL 13DB, Butadiene
  CG2DC1    CG2O1     1   0.14890000    368192.00 ; RETINOL CROT
  CG2DC1    CG2O2     1   0.14800000    251040.00 ; from CG2DC2 CG2O5, PENALTY= 10 DYA
  CG2DC1    CG2O3     1   0.14890000    368192.00 ; RETINOL PRAC
  CG2DC1    CG2O4     1   0.14798000    251040.00 ; RETINOL RTAL unmodified
  CG2DC1    CG2O5     1   0.14800000    251040.00 ; BEON, butenone, kevo
  CG2DC1   CG2R51     1   0.14254000    288896.83 ; TRQ, by ac_aa
  CG2DC1   CG2R53     1   0.14197000    293884.16 ; NRQ, by ac_aa
  CG2DC1   CG2R61     1   0.14500000    305432.00 ; compromise between HDZ1B and STYR by kevo
  CG2DC1    CG301     1   0.15020000    305432.00 ; RETINOL MECH
  CG2DC1    CG321     1   0.15020000    305432.00 ; RETINOL MECH
  CG2DC1    CG331     1   0.15040000    320494.40 ; RETINOL 13DP, 1,3-pentadiene
  CG2DC1    NG2D1     1   0.12760000    418400.00 ; RETINOL SCH1, Schiff's base, deprotonated
  CG2DC1    NG2P1     1   0.12830000    393296.00 ; RETINOL SCH2, Schiff's base, protonated
  CG2DC1     HGA4     1   0.11000000    301666.40 ; RETINOL BTE2, 2-butene
  CG2DC1    HGR52     1   0.11000000    301666.40 ; RETINOL SCH2, Schiff's base, protonated
  CG2DC2   CG2DC2     1   0.13400000    368192.00 ; RETINOL BTE2, 2-butene
  CG2DC2   CG2DC3     1   0.13420000    418400.00 ; RETINOL 13DB, Butadiene
  CG2DC2    CG2O1     1   0.14890000    368192.00 ; RETINOL CROT
  CG2DC2    CG2O2     1   0.14800000    251040.00 ; from CG2DC2 CG2O5, PENALTY= 10 DYA
  CG2DC2    CG2O3     1   0.14890000    368192.00 ; RETINOL PRAC
  CG2DC2    CG2O4     1   0.14798000    251040.00 ; RETINOL RTAL unmodified
  CG2DC2    CG2O5     1   0.14800000    251040.00 ; BEON, butenone, kevo
  CG2DC2   CG2R51     1   0.14254000    288896.83 ; TRQ, by ac_aa
  CG2DC2   CG2R53     1   0.14197000    293884.16 ; NRQ, by ac_aa
  CG2DC2   CG2R61     1   0.14500000    305432.00 ; compromise between HDZ1B and STYR by kevo
  CG2DC2    CG301     1   0.15020000    305432.00 ; RETINOL MECH
  CG2DC2    CG321     1   0.15020000    305432.00 ; RETINOL MECH
  CG2DC2    CG331     1   0.15040000    320494.40 ; RETINOL 13DP, 1,3-pentadiene
  CG2DC2    NG2D1     1   0.12760000    418400.00 ; RETINOL SCH1, Schiff's base, deprotonated
  CG2DC2    NG2P1     1   0.12830000    393296.00 ; RETINOL SCH2, Schiff's base, protonated
  CG2DC2     HGA4     1   0.11000000    301666.40 ; RETINOL BTE2, 2-butene
  CG2DC2    HGR52     1   0.11000000    301666.40 ; RETINOL SCH2, Schiff's base, protonated
  CG2DC3     HGA5     1   0.11000000    305432.00 ; RETINOL BTE2, 2-butene
   CG2N1    NG2D1     1   0.13100000    418400.00 ; MGU1, methylguanidine
   CG2N1    NG2P1     1   0.13650000    387438.40 ; PROT 403.0->463.0, 1.305->1.365 guanidinium (KK)
   CG2N1    NG311     1   0.14400000    418400.00 ; MGU2, methylguanidine2
   CG2N1    NG321     1   0.14400000    376560.00 ; MGU1, methylguanidine
   CG2N2   CG2R51     1   0.14200000    271960.00 ; RCG, yxu, RNA
   CG2N2   CG2R61     1   0.14400000    251040.00 ; BAMI, benzamidinium, mp2 geom & molvib, pram
   CG2N2    CG331     1   0.15000000    234304.00 ; AMDN, amidinium, sz (verified by pram)
   CG2N2    NG2D1     1   0.12900000    519652.80 ; MT2A, DH3T, fylin
   CG2N2    NG2P1     1   0.13200000    397480.00 ; AMDN, amidinium; BAMI, benzamidinium; mp2 geom & molvib; pram
   CG2N2    NG321     1   0.14200000    305432.00 ; MT2A, DH3T, fylin
   CG2N2    SG311     1   0.17900000    156481.60 ; MT2R(+), HH3R, MT2A, DH3T, fylin
   CG2O1   CG2R51     1   0.14750000    234304.00 ; INCA model for D3R, xxwy
   CG2O1   CG2R61     1   0.14750000    251040.00 ; 3NAP, nicotamide. kevo: 1.45 -> 1.475
   CG2O1   CG2R62     1   0.14800000    252713.60 ; NA nad/ppi, jjp1/adm jr. 7/95
   CG2O1    CG311     1   0.14900000    209200.00 ; PROT Ala Dipeptide (5/91)
   CG2O1    CG314     1   0.14900000    209200.00 ; PROT Ala Dipeptide (5/91)
   CG2O1    CG321     1   0.14900000    209200.00 ; PROT Ala Dipeptide (5/91)
   CG2O1    CG324     1   0.14900000    209200.00 ; PROT Ala Dipeptide (5/91)
   CG2O1    CG331     1   0.14900000    209200.00 ; PROT Ala Dipeptide (5/91)
   CG2O1   CG3C50     1   0.14900000    209200.00 ; from CG2O1 CG3C51, PENALTY= 6 PXU
   CG2O1   CG3C51     1   0.14900000    209200.00 ; PROT 6-31g* AcProNH2, ProNH2, AcProNHCH3 RLD 4/23/93
   CG2O1   CG3C53     1   0.14900000    209200.00 ; PROT 6-31g* AcProNH2, ProNH2, AcProNHCH3 RLD 4/23/93
   CG2O1    NG2D1     1   0.14304000    284202.38 ; NRQ, by ac_aa
   CG2O1    NG2S0     1   0.13500000    359824.00 ; DMA, Dimethylacetamide, xxwy
   CG2O1    NG2S1     1   0.13450000    309616.00 ; PROT Alanine Dipeptide ab initio calc's (LK)
   CG2O1    NG2S2     1   0.13600000    359824.00 ; PROT from NG2S2  CT3, neutral glycine, adm jr.
   CG2O1    OG2D1     1   0.12300000    518816.00 ; PROT Peptide geometry, condensed phase (LK)
   CG2O1    SG2D1     1   0.16300000    251040.00 ; from CG2O6 SG2D1, PENALTY= 5 GL3
   CG2O1    HGR52     1   0.11000000    265374.38 ; FORM, formamide reverted to value from par_all22_prot.inp and par_cgenff_1d.inp
   CG2O2   CG2R61     1   0.14800000    212547.20 ; ZOIC, benzoic acid, MBOA, methylbenzoate, jal
   CG2O2    CG311     1   0.15220000    167360.00 ; PROT adm jr. 5/02/91, acetic acid pure solvent
   CG2O2    CG321     1   0.15220000    167360.00 ; PROT adm jr. 5/02/91, acetic acid pure solvent
   CG2O2    CG331     1   0.15220000    167360.00 ; PROT adm jr. 5/02/91, acetic acid pure solvent
   CG2O2    OG2D1     1   0.12200000    627600.00 ; PROT adm jr. 5/02/91, acetic acid pure solvent; LIPID methyl acetate
   CG2O2    OG302     1   0.13340000    125520.00 ; LIPID methyl acetate
   CG2O2    OG303     1   0.13162000    419471.10 ; PHD, by ac_aa
   CG2O2    OG311     1   0.14000000    192464.00 ; PROT adm jr. 5/02/91, acetic acid pure solvent
   CG2O2    SG311     1   0.17747000    142967.28 ; MCS JJJ CYG, by ac_ac
   CG2O2    HGR52     1   0.10960000    291206.40 ; FORH, formic acid, xxwy
   CG2O3    CG2O5     1   0.15200000    209200.00 ; COMPDS peml unmodified
   CG2O3   CG2R61     1   0.15000000    167360.00 ; 3CPY, pyridine-3-carboxylate (PYRIDINE nicotinic acid), yin
   CG2O3    CG301     1   0.15220000    167360.00 ; AMOL, alpha-methoxy-lactic acid, og par22 CT1  CC
   CG2O3    CG311     1   0.15220000    167360.00 ; PROT adm jr. 4/05/91, for asn,asp,gln,glu and cters
   CG2O3    CG314     1   0.15220000    167360.00 ; PROT adm jr. 4/05/91, for asn,asp,gln,glu and cters
   CG2O3    CG321     1   0.15220000    167360.00 ; PROT adm jr. 4/05/91, for asn,asp,gln,glu and cters
   CG2O3    CG322     1   0.14556000    134682.96 ; FGA4, by ac_aa
   CG2O3    CG324     1   0.15220000    167360.00 ; PROT adm jr. 4/05/91, for asn,asp,gln,glu and cters
   CG2O3    CG331     1   0.15220000    167360.00 ; PROT adm jr. 4/05/91, for asn,asp,gln,glu and cters
   CG2O3   CG3C51     1   0.14900000    209200.00 ; PROT 6-31g* AcProNH2, ProNH2, AcProNHCH3 RLD 4/23/93
   CG2O3   CG3C53     1   0.14900000    209200.00 ; PROT 6-31g* AcProNH2, ProNH2, AcProNHCH3 RLD 4/23/93
   CG2O3    NG2S1     1   0.13450000    309616.00 ; from CG2O1 NG2S1, PENALTY= 10 CXM KCX
   CG2O3    OG2D2     1   0.12600000    439320.00 ; PROT adm jr. 7/23/91, acetic acid
   CG2O3    HGR52     1   0.11422000    199158.40 ; FORA, formate, kevo
   CG2O4   CG2R61     1   0.14798000    251040.00 ; ALDEHYDE benzaldehyde unmodified
   CG2O4   CG2R62     1   0.14640000    326352.00 ; 5FC, yxu, RNA
   CG2O4    CG311     1   0.15000000    209200.00 ; amba, from CG2O4 CG321, not optimized, yxu, RNA
   CG2O4    CG321     1   0.15000000    209200.00 ; PALD, propionaldehyde from AALD adm 11/08
   CG2O4    CG331     1   0.15000000    209200.00 ; AALD, acetaldehyde adm 11/08
   CG2O4   CG3C41     1   0.15600000    158155.20 ; 2oxt , ozyo, 04/19
   CG2O4    OG2D1     1   0.12150000    585760.00 ; ALDEHYDE acetaldehyde adm 11/08
   CG2O4    OG2D3     1   0.12100000    585760.00 ; 3oxt , ozyo
   CG2O4   OG3C51     1   0.13340000    242672.00 ; 2oxt , ozyo, 04/19
   CG2O4    HGR52     1   0.11100000    276144.00 ; ALDEHYDE acetaldehyde adm 11/08
   CG2O5    CG2O5     1   0.15026000    193175.28 ; TRQ, by ac_aa
   CG2O5   CG2R51     1   0.14215000    281892.82 ; TRQ, by ac_aa
   CG2O5   CG2R61     1   0.14600000    212547.20 ; 3ACP, 3-acetylpyridine; BF6 BF7 C36 C37; PHMK, phenyl methyl ketone, mcs
   CG2O5    CG311     1   0.15000000    276144.00 ; COMPDS peml re-initialized by kevo from ACO adm 11/08
   CG2O5    CG321     1   0.15000000    276144.00 ; BTON, butanone; from ACO, acetone; yapol
   CG2O5    CG331     1   0.15000000    276144.00 ; ACO, acetone adm 11/08
   CG2O5    OG2D3     1   0.12300000    585760.00 ; ACO, acetone adm 11/08
   CG2O6    NG2D1     1   0.13650000    309691.31 ; flavin
   CG2O6   NG2R51     1   0.14000000    251040.00 ; TICA model for D3R, xxwy
   CG2O6    NG2S0     1   0.13600000    372376.00 ; H2U, yxu, 21/2/14, RNA
   CG2O6    NG2S1     1   0.13700000    426768.00 ; DMCB & DECB, dimethyl & diehtyl carbamate, cacha & kevo
   CG2O6    NG2S2     1   0.13600000    359824.00 ; UREA, Urea. Uses a slack parameter from PROT from NG2S2  CT3, neutral glycine, adm jr. ==> re-optimize
   CG2O6    OG2D1     1   0.12300000    543920.00 ; UREA, Urea. Uses a slack parameter from PROT adm jr. 4/10/91, acetamide ==> re-optimize
   CG2O6    OG2D2     1   0.12940000    263173.60 ; PROTMOD carbonate
   CG2O6    OG302     1   0.13500000    292880.00 ; DMCB & DECB & DMCA, dimethyl & diehtyl carbamate and dimethyl carbonate, cacha & kevo & xxwy
   CG2O6    OG311     1   0.14800000    154808.00 ; CO31, bicarbonate, xxwy
   CG2O6    SG2D1     1   0.16300000    251040.00 ; DMTT, dimethyl trithiocarbonate, kevo
   CG2O6    SG311     1   0.17500000    158992.00 ; DMTT, dimethyl trithiocarbonate, kevo
   CG2O7    NG2D1     1   0.11900000    769856.00 ; MICY, EICY: isocyanates, xxwy (QM: 1.216; Crystal survey: 1.183)
   CG2O7    OG2D5     1   0.11700000    825084.80 ; PROT CO2, JES; re-optimized by kevo (1.160); compromised with isocyanate, both crystal survey and QM data, kevo & xxwy
  CG2R51   CG2R51     1   0.13600000    343088.00 ; PROT histidine, adm jr., 6/27/90
  CG2R51   CG2R52     1   0.14000000    301248.00 ; PYRZ, pyrazole
  CG2R51   CG2R53     1   0.15080000    220915.20 ; B2FO, 5H-furan-2-one, ctsai
  CG2R51   CG2R57     1   0.13600000    343088.00 ; 13BPO, 1,3-bipyrrole; from CG2R51 CG2R51; lf
  CG2R51   CG2RC0     1   0.14300000    292880.00 ; INDO/TRP
  CG2R51   CG2RC7     1   0.14050000    284512.00 ; AZUL, Azulene, kevo
  CG2R51    CG311     1   0.15000000    192154.38 ; from CG2R51 CG321, PENALTY= 4 HTR
  CG2R51    CG314     1   0.15000000    192154.38 ; from CG2R51 CG321, PENALTY= 5 143
  CG2R51    CG321     1   0.15000000    192154.38 ; PROT his, adm jr., 7/22/89, FC from CT2CT, BL from crystals
  CG2R51    CG324     1   0.15000000    192154.38 ; PRF , ashalini
  CG2R51    CG331     1   0.15000000    192154.38 ; PROT his, adm jr., 7/22/89, FC from CT2CT, BL from crystals
  CG2R51   CG3C50     1   0.15100000    292880.00 ; from CG2R51 CG3C52, PENALTY= 10 R1A
  CG2R51   CG3C51     1   0.15100000    292880.00 ; from CG2R51 CG3C52, PENALTY= 4 8LJ
  CG2R51   CG3C52     1   0.15100000    292880.00 ; 2PRP, 2-pyrroline.H+; 2PRL, 2-pyrroline; 3PRL, 3-pyrroline, kevo
  CG2R51   CG3C53     1   0.14960000    297064.00 ; QUG, yxu, RNA
  CG2R51   CG3C54     1   0.14960000    271960.00 ; 3PRP, 3-pyrroline.H+; 2HPP, 2H-pyrrole.H+, kevo
  CG2R51   NG2R50     1   0.13800000    334720.00 ; PROT his, ADM JR., 7/20/89
  CG2R51   NG2R51     1   0.13800000    334720.00 ; PROT his, ADM JR., 7/20/89
  CG2R51   NG2R52     1   0.13700000    317984.00 ; PROT his, adm jr., 6/28/90
  CG2R51   NG2R57     1   0.13800000    334720.00 ; 13BPO, 1,3-bipyrrole; from CG2R51 NG2R51; lf
  CG2R51   NG2RC0     1   0.13710000    334720.00 ; INDZ, indolizine, kevo
  CG2R51   NG3C51     1   0.14120000    301248.00 ; 2PRL, 2-pyrroline, kevo
  CG2R51    NG3P2     1   0.14800000    276144.00 ; 2PRP, 2-pyrroline.H+, kevo
  CG2R51   OG2R50     1   0.13710000    376560.00 ; FURA, furan
  CG2R51    OG311     1   0.13752000    357154.61 ; B2H TRO, by ac_aa
  CG2R51    OG312     1   0.12744000    440633.78 ; C12, by ac_aa
  CG2R51   OG3C51     1   0.13700000    301248.00 ; 2DHF, 2,3-dihydrofuran, kevo
  CG2R51   SG2R50     1   0.17300000    251040.00 ; THIP, thiophene
  CG2R51    SG3O2     1   0.17300000    175728.00 ; TSPD model for D3R, xxwy
  CG2R51    HGR51     1   0.10800000    292880.00 ; INDO/TRP
  CG2R51    HGR52     1   0.10830000    313800.00 ; PROT his, adm jr., 6/27/90
  CG2R52   CG2R52     1   0.13800000    334720.00 ; TRZ2, 2H-1,2,3-triazole, lf
  CG2R52   CG2RC0     1   0.14200000    301248.00 ; INDA, 1H-indazole, kevo
  CG2R52    CG321     1   0.15000000    246856.00 ; INCA model for D3R, xxwy
  CG2R52   CG3C52     1   0.15050000    292880.00 ; 2PRZ, 2-pyrazoline, kevo
  CG2R52   NG2R50     1   0.13150000    334720.00 ; PYRZ, pyrazole; 2PRZ, 2-pyrazoline, kevo
  CG2R52   NG2R52     1   0.13000000    410032.00 ; 2HPP, 2H-pyrrole.H+, kevo
  CG2R52    HGR52     1   0.10830000    313800.00 ; PYRZ, pyrazole
  CG2R53   CG2R61     1   0.14400000    251040.00 ; 2PTZ model for D3R, xxwy
  CG2R53    CG311     1   0.15000000    355640.00 ; from CG2R53 CG321, PENALTY= 4 SWG CRF B2H CRO MDO PIA
  CG2R53    CG321     1   0.15000000    355640.00 ; etea , 5-Ethyl-1H-tetrazole , pchat
  CG2R53    CG331     1   0.15000000    355640.00 ; MTEA , 5-Methyl-1H-tetrazole, pchat
  CG2R53   CG3C41     1   0.15600000    167360.00 ; AZDO, 2-azetidinone, kevo
  CG2R53   CG3C50     1   0.15100000    154808.00 ; MSCH model for D3R, xxwy
  CG2R53   CG3C51     1   0.15300000    251040.00 ; from CG2R53 CG3C52, penalty= 4 6V1 SUI
  CG2R53   CG3C52     1   0.15300000    251040.00 ; 300 350 2PDO, 2-pyrrolidinone, kevo
  CG2R53   NG2R43     1   0.13800000    309616.00 ; AZDO, 2-azetidinone, kevo
  CG2R53   NG2R50     1   0.13200000    334720.00 ; PROT his, ADM JR., 7/20/89
  CG2R53   NG2R51     1   0.13740000    267776.00 ; NA A, adm jr. 11/97
  CG2R53   NG2R52     1   0.13200000    317984.00 ; PROT his, adm jr., 6/27/90
  CG2R53   NG2R53     1   0.13800000    384928.00 ; 460 370 *NEW* 2PDO, 2-pyrrolidinone, kevo
  CG2R53   NG3C51     1   0.14000000    317984.00 ; 1.395 2IMI, 2-imidazoline, kevo
  CG2R53    OG2D1     1   0.12350000    476976.00 ; 560 620 *NEW* 2PDO, 2-pyrrolidinone, kevo
  CG2R53   OG2R50     1   0.13710000    376560.00 ; OXAZ, oxazole
  CG2R53   OG3C51     1   0.13570000    247274.40 ; GBL, Gamma-butyrolactone, ctsai & kevo
  CG2R53    SG2D1     1   0.16300000    334720.00 ; MRDN, methylidene rhodanine, kevo & xxwy
  CG2R53   SG2R50     1   0.17300000    251040.00 ; THAZ, thiazole
  CG2R53    SG311     1   0.17700000    142256.00 ; MRDN, methylidene rhodanine, kevo & xxwy
  CG2R53     FGR1     1   0.13425000    409889.74 ; 2HF1, by ac_aa
  CG2R53    HGR52     1   0.10900000    284512.00 ; PROT his, adm jr., 6/28/29
  CG2R53    HGR53     1   0.10700000    278654.40 ; PROT his, adm jr., 6/27/90
  CG2R57   CG2R57     1   0.14500000    345598.40 ; 33BPO, 3,3-bipyrrole, lf
  CG2R57   NG2R57     1   0.13950000    326352.00 ; 13BPO, 1,3-bipyrrole, lf
  CG2R61   CG2R61     1   0.13750000    255224.00 ; PROT benzene, JES 8/25/89
  CG2R61   CG2R62     1   0.13750000    329699.20 ; YTHY, 2,4(1H,3H)-quinazolinedione, isg
  CG2R61   CG2R63     1   0.14270000    221752.00 ; YTS2, 2,4(1H,3H)-quinazolinedithione, isg
  CG2R61   CG2R64     1   0.13550000    209200.00 ; 18NFD, 1,8-naphthyridine, erh
  CG2R61   CG2R66     1   0.13700000    255224.00 ; NAMODEL difluorotoluene
  CG2R61   CG2R67     1   0.13750000    255224.00 ; COMPDS peml
  CG2R61   CG2RC0     1   0.13600000    251040.00 ; INDO/TRP
  CG2R61    CG302     1   0.14500000    165686.40 ; from CG2R61 CG312, PENALTY= 6 TFG2 TFG3 TFP2
  CG2R61    CG311     1   0.14900000    192464.00 ; NAMODEL difluorotoluene
  CG2R61    CG312     1   0.14500000    165686.40 ; BDFP, BDFD, Difuorobenzylphosphonate
  CG2R61    CG321     1   0.14900000    192464.00 ; PROT phe,tyr, JES 8/25/89
  CG2R61    CG324     1   0.14900000    192464.00 ; BPIP, N-Benzyl PIP, cacha
  CG2R61    CG331     1   0.14900000    192464.00 ; PROT toluene, adm jr. 3/7/92
  CG2R61    NG2D1     1   0.13660000    523000.00 ; ABNB, amide base, sr
  CG2R61    NG2O1     1   0.14020000    192464.00 ; NITB, nitrobenzene
  CG2R61    NG2P1     1   0.13820000    251040.00 ; K2C, yxu, RNA
  CG2R61   NG2R51     1   0.14200000    334720.00 ; D3R set1 scaffold 1, xxwy
  CG2R61   NG2R60     1   0.13050000    376560.00 ; PYR1, pyridine
  CG2R61   NG2R61     1   0.13790000    317984.00 ; YTS2, 2,4(1H,3H)-quinazolinedithione, isg
  CG2R61   NG2R62     1   0.13050000    376560.00 ; PYRD, pyridazine
  CG2R61   NG2RC0     1   0.13790000    309616.00 ; INDZ, indolizine, kevo
  CG2R61    NG2S0     1   0.14140000    255224.00 ; dmpu, not optimized, yxu, RNA
  CG2R61    NG2S1     1   0.14140000    255224.00 ; RETINOL PACP
  CG2R61    NG2S3     1   0.13900000    334720.00 ; PYRIDINE aminopyridine, adm jr., 7/94
  CG2R61    NG301     1   0.14100000    271960.00 ; DMAN, N,N-dimethylaniline, kevo
  CG2R61    NG311     1   0.14000000    276144.00 ; FEOZ, phenoxazine; PMSM N-phenylmethanesulfonamide; xxwy
  CG2R61    NG3N1     1   0.14100000    569024.00 ; PHHZ, phenylhydrazine, ed
  CG2R61    OG301     1   0.13820000    192464.00 ; COMPDS peml
  CG2R61    OG303     1   0.13800000    284512.00 ; PROTNA phenol phosphate, 6/94, adm jr.
  CG2R61    OG311     1   0.14110000    279742.24 ; PROT MeOH, EMB 10/10/89,
  CG2R61    OG312     1   0.12600000    439320.00 ; PROT adm jr. 8/27/91, phenoxide
  CG2R61   OG3R60     1   0.13500000    234304.00 ; FEOZ, phenoxazine, erh based on PY02, 2h-pyran
  CG2R61    SG311     1   0.17500000    234304.00 ; FETZ, phenothiazine, erh based on PY02, 2h-pyran
  CG2R61    SG3O1     1   0.17800000    192464.00 ; benzene sulfonate anion, og
  CG2R61    SG3O2     1   0.17300000    158992.00 ; BSAM, benzenesulfonamide and other sulfonamides, xxwy
  CG2R61    CLGR1     1   0.17400000    292880.00 ; CHLB, chlorobenzene
  CG2R61    BRGR1     1   0.19030000    192464.00 ; BROB, bromobenzene
  CG2R61     IGR1     1   0.21150000    158992.00 ; IODB, iodobenzene
  CG2R61    BG201     1   0.16500000    347272.00 ; BORB,BONB, BNNB Boronic acid, sr
  CG2R61    HGR61     1   0.10800000    284512.00 ; PROT phe,tyr JES 8/25/89
  CG2R61    HGR62     1   0.10800000    284512.00 ; NA, DFT
  CG2R62   CG2R62     1   0.13500000    351456.00 ; NA nad/ppi, jjp1/adm jr. 7/95
  CG2R62   CG2R63     1   0.14030000    252713.60 ; NA T, adm jr. 11/97
  CG2R62   CG2R64     1   0.14060000    267776.00 ; NA C, adm jr. 11/97
  CG2R62   CG2R67     1   0.13800000    255224.00 ; PYO2B, fylin
  CG2R62    CG311     1   0.14800000    221752.00 ; CMU, from 5CU, yxu, RNA
  CG2R62    CG321     1   0.14800000    221752.00 ; 5CU, yxu, RNA
  CG2R62    CG324     1   0.14800000    251040.00 ; SAU, yxu, RNA
  CG2R62    CG331     1   0.14780000    192464.00 ; NA T, adm jr. 11/97
  CG2R62   NG2R61     1   0.13430000    252713.60 ; NA C, adm jr. 11/97
  CG2R62   NG2R62     1   0.13650000    284512.00 ; TC243C, 4(3H)-quinazolinone; from CG2R61 NG2R62; isg
  CG2R62   NG2R67     1   0.13430000    252713.60 ; 1PH4PO, 1-phenyl-4(1H)-pyridinone; from NG2R61 CG2R61; isg
  CG2R62    NG311     1   0.13620000    275943.17 ; flavin
  CG2R62    OG301     1   0.13420000    263592.00 ; MOU, yxu, 21/2/14, RNA
  CG2R62    OG311     1   0.13490000    291206.40 ; 5HU, yxu, RNA
  CG2R62   OG3R60     1   0.13700000    276144.00 ; RIN, coumarin, isg
  CG2R62    HGR62     1   0.10900000    292880.00 ; NA C,U, JWK
  CG2R62    HGR63     1   0.10900000    292880.00 ; NA nad/ppi, jjp1/adm jr. 7/95
  CG2R63   CG2RC0     1   0.13600000    252713.60 ; NA G, adm jr. 11/97
  CG2R63    NG2P1     1   0.14100000    343088.00 ; 3MC, yxu, RNA
  CG2R63   NG2R61     1   0.13830000    284512.00 ; NA U,T adm jr. 11/97
  CG2R63   NG2R62     1   0.13350000    292880.00 ; NA C, adm jr. 11/97
  CG2R63   NG2R67     1   0.13430000    252713.60 ; 1PH2PO, 1-phenyl-2(1H)-pyridinone; from NG2R67 CG2R62, 1PH4PO; isg
  CG2R63   NG2RC0     1   0.13910000    251040.00 ; DWG, yxu, RNA
  CG2R63    OG2D4     1   0.12340000    552288.00 ; NA U,A,G par_a4 adm jr. 10/2/91
  CG2R63   OG3R60     1   0.14000000    196648.00 ; RIN, coumarin, isg
  CG2R63    SG2D1     1   0.16550000    312126.40 ; YTS2, 2,4(1H,3H)-quinazolinedithione, isg
  CG2R63    SEGD1     1   0.18500000    292880.00 ; SEU, yxu, to be reoptimized, RNA
  CG2R64   CG2RC0     1   0.13580000    301248.00 ; NA A, adm jr. 11/97
  CG2R64    CG331     1   0.15020000    210873.60 ; 2MA, yxu, RNA
  CG2R64    NG2D1     1   0.13030000    468490.85 ; flavin
  CG2R64    NG2P1     1   0.13700000    368192.00 ; 3MC, yxu, RNA
  CG2R64   NG2R51     1   0.13700000    267776.00 ; PIPA model for D3R, xxwy
  CG2R64   NG2R60     1   0.13050000    376560.00 ; 2AMP, 2-amino pyridine, from PYR1, pyridine, kevo
  CG2R64   NG2R61     1   0.13920000    334720.00 ; NA G
  CG2R64   NG2R62     1   0.13420000    334720.00 ; NA A, adm jr. 11/97
  CG2R64   NG2R67     1   0.13920000    334720.00 ; 43PPY, 3-phenyl-4(3H)-pyrimidinone; from CG2R64 NG2R61, NA; isg
  CG2R64    NG2S0     1   0.13860000    251040.00 ; 66A, yxu, RNA
  CG2R64    NG2S1     1   0.14140000    255224.00 ; 2AMP, 2-amino pyridine, from PACP, p-acetamide-phenol, pyridine, kevo
  CG2R64    NG2S3     1   0.13660000    301248.00 ; NA C,A,G JWK, adm jr. 10/2/91
  CG2R64    NG301     1   0.13550000    326352.00 ; TMC, yxu
  CG2R64    NG311     1   0.13700000    309616.00 ; 4MC, yxu, RNA
  CG2R64    SG311     1   0.17410000    219241.60 ; 2SMPYR, 2-(methylthio)-pyrimidine; from CG2R61 SG311, 4O2SM; isg
  CG2R64    HGR62     1   0.10900000    317984.00 ; NA G,A, JWK par_a7 9/30/91
  CG2R66   CG2R66     1   0.13700000    255224.00 ; from CG2R61 CG2R66, PENALTY= 5 F2F PF5
  CG2R66   CG2R67     1   0.13800000    255224.00 ; PYO2F, fylin
  CG2R66   CG2RC0     1   0.13600000    251040.00 ; from CG2R61 CG2RC0, PENALTY= 5 4FW
  CG2R66     FGR1     1   0.13580000    334720.00 ; NAMODEL difluorotoluene
  CG2R67   CG2R67     1   0.14900000    251040.00 ; COMPDS peml
  CG2R67   CG2RC0     1   0.14200000    251040.00 ; CRBZ, carbazole, erh
  CG2R67   NG2R60     1   0.13100000    376560.00 ; 22BPY, 2,2'-bipyridine, kevo
  CG2R67   NG2R67     1   0.14110000    337230.40 ; 1PH4PO, 1-phenyl-4(1H)-pyridinone; from NG2R61 CG2R61; isg
  CG2R71   CG2R71     1   0.13850000    301248.00 ; AZUL, Azulene, kevo
  CG2R71   CG2RC7     1   0.13800000    334720.00 ; AZUL, Azulene, kevo
  CG2R71    HGR71     1   0.10900000    297064.00 ; AZUL, Azulene, kevo
  CG2RC0   CG2RC0     1   0.13850000    301248.00 ; INDO/TRP
  CG2RC0   CG3C50     1   0.14900000    200832.00 ; MSCH model for D3R, xxwy
  CG2RC0   CG3C52     1   0.15200000    255224.00 ; 3HIN, 3H-indole, kevo
  CG2RC0   NG2R50     1   0.13650000    259408.00 ; NA G, adm jr. 11/97
  CG2RC0   NG2R51     1   0.13750000    251040.00 ; NA A, adm jr. 11/97
  CG2RC0   NG2R52     1   0.13810000    284512.00 ; 7MG, yxu, RNA
  CG2RC0   NG2R53     1   0.13900000    301248.00 ; MSCH model for D3R, xxwy
  CG2RC0   NG2R61     1   0.13790000    301248.00 ; DWG, yxu, RNA
  CG2RC0   NG2R62     1   0.13150000    292880.00 ; NA G, adm jr. 11/97
  CG2RC0   NG2RC0     1   0.14170000    205016.00 ; INDZ, indolizine, kevo
  CG2RC0   NG3C51     1   0.14000000    276144.00 ; INDI, indoline, kevo
  CG2RC0   OG2R50     1   0.13700000    376560.00 ; ZFUR, benzofuran, kevo
  CG2RC0   OG3C51     1   0.13890000    276144.00 ; 1.388 ZDOL, 1,3-benzodioxole, kevo
  CG2RC0   SG2R50     1   0.17600000    251040.00 ; ZTHP, benzothiophene, kevo
  CG2RC0    BG201     1   0.15800000    276144.00 ; BICB, Boronic acid, sr
  CG2RC7   CG2RC7     1   0.15200000    192464.00 ; AZUL, Azulene, kevo
   CG301    CG311     1   0.15000000    186188.00 ; CA, CHOLIC ACID, cacha, 03/06
   CG301    CG321     1   0.15380000    186188.00 ; RETINOL TMCH/MECH
   CG301    CG331     1   0.15380000    186188.00 ; RETINOL TMCH/MECH
   CG301    OG301     1   0.14150000    301248.00 ; AMOL, alpha-methoxy-lactic acid, og all34_ethers_1a CG32A OG30A
   CG301    OG302     1   0.14300000    284512.00 ; AMGT, Alpha Methyl Gamma Tert Butyl Glu Acid CDCA Amide
   CG301    OG303     1   0.14300000    284512.00 ; from CG311 OG303, PENALTY= 8 QPA
   CG301    OG311     1   0.14200000    358150.40 ; AMOL, alpha-methoxy-lactic acid, og par22 OH1 CT1
   CG301    SG311     1   0.18494000    165117.38 ; LE1, by ac_aa
   CG301    CLGA3     1   0.17700000    158992.00 ; TCLE
   CG301    BRGA3     1   0.19540000    100416.00 ; TBRE
   CG302    CG311     1   0.15200000    209200.00 ; from CG302 CG321, PENALTY= 4 TFLE
   CG302    CG314     1   0.15200000    209200.00 ; from CG302 CG321, PENALTY= 5 FLA
   CG302    CG321     1   0.15200000    209200.00 ; FLUROALK fluoroalkanes
   CG302    CG331     1   0.15200000    209200.00 ; FLUROALK fluoroalkanes
   CG302     FGA3     1   0.13400000    221752.00 ; FLUROALK fluoroalkanes
   CG311    CG311     1   0.15000000    186188.00 ; PROT alkane update, adm jr., 3/2/92
   CG311    CG314     1   0.15000000    186188.00 ; PROT alkane update, adm jr., 3/2/92
   CG311    CG321     1   0.15380000    186188.00 ; PROT alkane update, adm jr., 3/2/92
   CG311    CG322     1   0.15200000    142256.00 ; from CG322 CG331, PENALTY= 10 LEF
   CG311    CG324     1   0.15300000    186188.00 ; FLAVOP PIP1,2,3
   CG311    CG331     1   0.15380000    186188.00 ; PROT alkane update, adm jr., 3/2/92
   CG311   CG3C51     1   0.15280000    186188.00 ; TF2M, viv
   CG311   CG3RC1     1   0.15240000    186188.00 ; CARBOCY carbocyclic sugars
   CG311   NG2R53     1   0.14300000    267776.00 ; drug design project, xxwy
   CG311    NG2S0     1   0.14300000    267776.00 ; fentanyl, Lesnik et al, 2020
   CG311    NG2S1     1   0.14300000    267776.00 ; PROT NMA Gas & Liquid Phase IR Spectra (LK)
   CG311    NG321     1   0.14740000    220078.40 ; 5UHA, from CG321  NG321, yxu, RNA
   CG311    OG301     1   0.14150000    301248.00 ; all34_ethers_1a CG32A OG30A, gk or og
   CG311    OG302     1   0.14300000    284512.00 ; LIPID phosphate
   CG311    OG303     1   0.14300000    284512.00 ; LIPID phosphate
   CG311    OG311     1   0.14200000    358150.40 ; PROT methanol vib fit EMB 11/21/89
   CG311    OG312     1   0.13130000    299574.40 ; COMPDS peml original OG311  CG311   428.000     1.4200
   CG311   OG3C61     1   0.14150000    301248.00 ; pepr, from CG321 OG3C61, not optimized, yxu, RNA
   CG311    SG311     1   0.18180000    165686.40 ; from CG321 SG311, penalty= 4 0TD CGV CML
   CG311    CLGA1     1   0.17768000    158992.00 ; DCLE
   CG311    BRGA2     1   0.19560000    117152.00 ; DBRE
   CG311     HGA1     1   0.11110000    258571.20 ; PROT alkane update, adm jr., 3/2/92
   CG311     HGA3     1   0.11110000    269449.60 ; PROT alkane
   CG312    CG321     1   0.15200000    165686.40 ; from CG312 CG331, PENALTY= 6 OBF
   CG312    CG331     1   0.15200000    165686.40 ; FLUROALK fluoroalkanes
   CG312      PG1     1   0.18800000    225936.00 ; BDFP, Difuorobenzylphosphonate \ re-optimize?
   CG312      PG2     1   0.18800000    225936.00 ; BDFD, Difuorobenzylphosphonate / re-optimize?
   CG312    SG311     1   0.17917000    165903.97 ; 2FM, by ac_aa
   CG312     FGA2     1   0.13530000    292043.20 ; FLUROALK fluoroalkanes
   CG312     HGA7     1   0.10828000    289532.80 ; FLUROALK fluoroalkanes
   CG314    CG321     1   0.15380000    186188.00 ; PROT alkane update, adm jr., 3/2/92
   CG314    CG331     1   0.15380000    186188.00 ; PROT alkane update, adm jr., 3/2/92
   CG314   CG3C51     1   0.15280000    186188.00 ; from CG311 CG3C51, penalty= 1 5CS
   CG314    NG2P1     1   0.14530000    251040.00 ; from CG324 NG2P1, PENALTY= 4 AGM
   CG314    NG311     1   0.14740000    220078.40 ; from CG321 NG311, PENALTY= 5 AGT
   CG314    NG3P0     1   0.15100000    179912.00 ; from CG324 NG3P0, PENALTY= 4 DDE DDEP
   CG314    NG3P2     1   0.14900000    167360.00 ; 2MRB, Alpha benzyl gamma 2-methyl piperidine, cacha
   CG314    NG3P3     1   0.14800000    167360.00 ; PROT new stretch and bend; methylammonium (KK 03/10/92)
   CG314    SG311     1   0.18180000    165686.40 ; from CG321 SG311, PENALTY= 5 AGT
   CG314     HGA1     1   0.11110000    258571.20 ; PROT alkane update, adm jr., 3/2/92
   CG314     HGP5     1   0.11110000    258571.20 ; from CG314 HGA1, PENALTY= 1.66 DDE DDEP
   CG321    CG321     1   0.15300000    186188.00 ; PROT alkane update, adm jr., 3/2/92
   CG321    CG322     1   0.15200000    142256.00 ; from CG322 CG331, PENALTY= 6 FGA4
   CG321    CG324     1   0.15300000    186188.00 ; FLAVOP PIP1,2,3
   CG321    CG331     1   0.15280000    186188.00 ; PROT alkane update, adm jr., 3/2/92
   CG321   CG3C31     1   0.15000000    230120.00 ; 1BOX, 1-butene oxide, sc
   CG321   CG3C50     1   0.15200000    171544.00 ; MSCH model for D3R, xxwy
   CG321   CG3C51     1   0.15280000    186188.00 ; TF2M, viv
   CG321   CG3RC1     1   0.15240000    186188.00 ; CARBOCY carbocyclic sugars
   CG321    NG1T1     1   0.14876000    226940.16 ; AZDA, by ac_aa
   CG321    NG2D1     1   0.14400000    245182.40 ; EEPI, fylin
   CG321   NG2R51     1   0.14580000    334720.00 ; ETRZ, 1-Ethyl-1,2,3-triazole, from CG331 NG2R51, kevo
   CG321   NG2R53     1   0.14300000    267776.00 ; MSCH model,  xxwy
   CG321   NG2R61     1   0.14380000    222488.38 ; flavin
   CG321    NG2S0     1   0.14510000    284512.00 ; H2U, yxu, 21/2/14, RNA
   CG321    NG2S1     1   0.14300000    267776.00 ; PROT NMA Gas & Liquid Phase IR Spectra (LK)
   CG321    NG2S3     1   0.14400000    269449.60 ; NESM, N-ethyl-sulfamate, my & kevo
   CG321    NG301     1   0.14500000    167360.00 ; TSPD model for D3R, xxwy
   CG321    NG311     1   0.14740000    220078.40 ; AMINE aliphatic amines
   CG321    NG321     1   0.14740000    220078.40 ; AMINE aliphatic amines
   CG321   NG3C51     1   0.14284000    167552.46 ; from CG321 NG311, PENALTY= 2
   CG321    OG301     1   0.14150000    301248.00 ; diethylether, alex
   CG321    OG302     1   0.14400000    267776.00 ; PROTNA serine/threonine phosphate
   CG321    OG303     1   0.14400000    267776.00 ; PROTNA serine/threonine phosphate
   CG321    OG311     1   0.14200000    358150.40 ; PROT methanol vib fit EMB 11/21/89
   CG321    OG312     1   0.13300000    376560.00 ; PROT ethoxide 6-31+G* geom/freq, adm jr., 6/1/92
   CG321   OG3C61     1   0.14150000    301248.00 ; DIOX, dioxane
   CG321   OG3R60     1   0.14000000    234304.00 ; PY02, 2h-pyran
   CG321      PG1     1   0.18900000    225936.00 ; BDFP, Benzylphosphonate, Sasha \ re-optimize?
   CG321      PG2     1   0.18900000    225936.00 ; BDFD, Benzylphosphonate, Sasha / re-optimize?
   CG321    SG2P1     1   0.18137000    174690.37 ; CSPP, by ac_aa
   CG321    SG301     1   0.18160000    179075.20 ; PROT improved CSSC torsion in DMDS  5/15/92 (FL)
   CG321    SG311     1   0.18180000    165686.40 ; PROT fitted to C-S s   9/26/92 (FL)
   CG321    SG3O1     1   0.18070000    154808.00 ; ESNA, ethyl sulfonate, xhe
   CG321    SG3O2     1   0.17900000    154808.00 ; EESM, N-ethylethanesulfonamide; MESN, methyl ethyl sulfone; xxwy & xhe
   CG321    SG3O3     1   0.18100000    154808.00 ; MESO, methylethylsulfoxide, kevo
   CG321    CLGA1     1   0.17880000    184096.00 ; CLET, chloroethane
   CG321    BRGA1     1   0.19660000    133888.00 ; BRET
   CG321    BG201     1   0.17000000    263592.00 ; BORE,BONE,BNNE Boronic acid, sr
   CG321     HGA2     1   0.11110000    258571.20 ; PROT alkane update, adm jr., 3/2/92
   CG322    CG331     1   0.15200000    142256.00 ; FLUROALK fluoroalkanes
   CG322     FGA1     1   0.13740000    351456.00 ; FLUROALK fluoroalkanes
   CG322     HGA6     1   0.10828000    286185.60 ; FLUROALK fluoroalkanes
   CG323    CG331     1   0.15310000    158992.00 ; PROT ethylthiolate 6-31+G* geom/freq, adm jr., 6/1/92
   CG323    SG302     1   0.18360000    171544.00 ; PROT methylthiolate 6-31+G* geom/freq, adm jr., 6/1/92
   CG323     HGA2     1   0.11110000    251040.00 ; PROT ethylthiolate
   CG323     HGA3     1   0.11110000    251040.00 ; PROT methylthiolate 6-31+G* geom/freq, adm jr., 6/1/92
   CG324    CG331     1   0.15280000    186188.00 ; PROT alkane update, adm jr., 3/2/92
   CG324   CG3C31     1   0.15280000    186188.00 ; AMCP, aminomethyl cyclopropane; from PROT alkane update, adm jr., 3/2/92; jhs
   CG324    NG2O1     1   0.14900000    189116.80 ; NIPR, nitropropane, abar
   CG324    NG2P1     1   0.14530000    251040.00 ; RETINOL SCH2, Schiff's base, protonated #eq#
   CG324    NG3P0     1   0.15100000    179912.00 ; LIPID tetramethylammonium
   CG324    NG3P1     1   0.14800000    167360.00 ; FLAVOP PIP1,2,3
   CG324    NG3P2     1   0.14900000    167360.00 ; PIP, piperidine
   CG324    NG3P3     1   0.14900000    167360.00 ; MAMM, methylammonium 1.48 -> 1.49 based on CCSDT calc (kevo) and xtal survey (pram)
   CG324     HGA2     1   0.11000000    238069.60 ; FLAVOP PIP1,2,3
   CG324     HGP5     1   0.10800000    251040.00 ; LIPID tetramethylammonium
   CG331    CG331     1   0.15300000    186188.00 ; PROT alkane update, adm jr., 3/2/92
   CG331   CG3C50     1   0.15280000    186188.00 ; from CG331 CG3C51, PENALTY= 6 R1A
   CG331   CG3C51     1   0.15280000    186188.00 ; TF2M, viv
   CG331   CG3RC1     1   0.15380000    186188.00 ; BAM1, bile acid steroidal C-D ring, cacha, 02/08
   CG331    NG2D1     1   0.14400000    259408.00 ; RETINOL SCH1, Schiff's base, deprotonated
   CG331   NG2R51     1   0.14580000    334720.00 ; NA 9-M-G/T/U, adm jr.
   CG331   NG2R53     1   0.14300000    267776.00 ; MSCH model for D3R, xxwy
   CG331   NG2R61     1   0.14560000    334720.00 ; NA 9-M-A/C, adm jr.
   CG331    NG2S0     1   0.14340000    263592.00 ; DMA, Dimethylacetamide, xxwy
   CG331    NG2S1     1   0.14300000    267776.00 ; PROT NMA Gas & Liquid Phase IR Spectra (LK)
   CG331    NG2S3     1   0.14600000    222588.80 ; NMSM, N-methyl-sulfamate; PHA, phosphoramidate; my
   CG331    NG301     1   0.14420000    263592.00 ; TMC, yxu
   CG331    NG311     1   0.14630000    213384.00 ; MGU2, methylguanidine2
   CG331   NG3C51     1   0.14630000    213384.00 ; from CG331 NG311, penalty= 20, only charge, sm136
   CG331    OG301     1   0.14150000    301248.00 ; diethylether, alex
   CG331    OG302     1   0.14300000    284512.00 ; PROT adm jr., 4/05/91, for PRES CG311 from methylacetate
   CG331    OG303     1   0.14300000    284512.00 ; NA DMP, ADM Jr.
   CG331    OG311     1   0.14200000    358150.40 ; PROT methanol vib fit EMB 11/21/89
   CG331    OG312     1   0.13300000    376560.00 ; PROT methoxide 6-31+G* geom/freq, adm jr., 6/1/92
   CG331      PG0     1   0.18617000    207861.12 ; SGB SVX, by ac_aa
   CG331      PG1     1   0.18900000    225936.00 ; from CG321 PG1, PENALTY= 6 SBG
   CG331    SG301     1   0.18160000    179075.20 ; PROT improved CSSC torsion in DMDS  5/15/92 (FL)
   CG331    SG311     1   0.18160000    200832.00 ; PROT fitted to C-S s   9/26/92 (FL)
   CG331    SG3O1     1   0.18370000    163176.00 ; MSNA, methyl sulfonate, xhe
   CG331    SG3O2     1   0.17900000    175728.00 ; DMSN, dimethyl sulfone; MSAM, methanesulfonamide and other sulfonamides; compromise between crystal and mp2; xxwy & xhe
   CG331    SG3O3     1   0.18000000    200832.00 ; DMSO, dimethylsulfoxide (ML Strader, et al.JPC2002_A106_1074), sz
   CG331    BG201     1   0.17000000    263592.00 ; BORO,BORN,BONN Boronic acid, sr
   CG331     HGA3     1   0.11110000    269449.60 ; PROT alkane update, adm jr., 3/2/92
   CG334    NG2O1     1   0.14800000    209200.00 ; NIME, nitromethane, abar
   CG334    NG2P1     1   0.14530000    251040.00 ; RETINOL SCH2, Schiff's base, protonated #eq#
   CG334   NG2R52     1   0.14680000    276144.00 ; 7MG, yxu, RNA
   CG334    NG3P0     1   0.15100000    179912.00 ; LIPID tetramethylammonium
   CG334    NG3P1     1   0.14800000    167360.00 ; FLAVOP PIP1,2,3
   CG334    NG3P2     1   0.14900000    167360.00 ; nc2 , fylin/kenno
   CG334    NG3P3     1   0.14800000    167360.00 ; PROT new stretch and bend; methylammonium (KK 03/10/92)
   CG334     HGA3     1   0.11110000    269449.60 ; PROT alkane update, adm jr., 3/2/92
   CG334     HGP5     1   0.10800000    251040.00 ; LIPID tetramethylammonium
  CG3AM0    NG301     1   0.14540000    196648.00 ; AMINE aliphatic amines
  CG3AM0   HGAAM0     1   0.11110000    260244.80 ; AMINE aliphatic amines
  CG3AM1    NG311     1   0.14630000    213384.00 ; AMINE aliphatic amines
  CG3AM1   HGAAM1     1   0.10980000    262587.84 ; AMINE aliphatic amines
  CG3AM2    NG321     1   0.14740000    220078.40 ; AMINE aliphatic amines
  CG3AM2   HGAAM2     1   0.10856000    263173.60 ; AMINE aliphatic amines
  CG3C31   CG3C31     1   0.15010000    200832.00 ; PROTMOD cyclopropane
  CG3C31   CG3RC1     1   0.15240000    186188.00 ; CARBOCY carbocyclic sugars
  CG3C31   OG3C31     1   0.14500000    184096.00 ; 1EOX, 1-ethylene oxide, sc & kevo
  CG3C31     HGA1     1   0.10830000    284512.00 ; PROTMOD cyclopropane
  CG3C31     HGA2     1   0.10830000    284512.00 ; PROTMOD cyclopropane
  CG3C41   CG3C41     1   0.15400000    225936.00 ; CBU, cyclobutane, AZDO, 2-azetidinone, lsk
  CG3C41   NG2R43     1   0.14500000    205016.00 ; AZDO, 2-azetidinone, kevo
  CG3C41   OG3C51     1   0.14223000    292880.00 ; OXTN, oxetane, gmu
  CG3C41     HGA2     1   0.10930000    291206.40 ; CBU, cyclobutane, AZDO, 2-azetidinone, lsk
  CG3C50   CG3C52     1   0.15180000    163176.00 ; from CG3C51 CG3C52, PENALTY= 6 PXU
  CG3C50    NG2S0     1   0.14340000    267776.00 ; from CG3C51 NG2S0, PENALTY= 6 PXU
  CG3C50   NG3C51     1   0.14780000    334720.00 ; from CG3C52 NG3C51, PENALTY= 10 R1A
  CG3C50    OG311     1   0.14200000    358150.40 ; from CG3C51 OG311, PENALTY= 6 PXU
  CG3C51   CG3C51     1   0.15180000    163176.00 ; THF, nucleotide CSD/NDB survey, 5/30/06,viv
  CG3C51   CG3C52     1   0.15180000    163176.00 ; THF, nucleotide CSD/NDB survey, 5/30/06,viv
  CG3C51   CG3C53     1   0.15000000    186188.00 ; PROT alkane update, adm jr., 3/2/92
  CG3C51   CG3RC1     1   0.15240000    186188.00 ; CARBOCY carbocyclic sugars
  CG3C51   NG2R51     1   0.14580000    184096.00 ; NA G/T/U
  CG3C51   NG2R61     1   0.14560000    184096.00 ; NA A/C
  CG3C51    NG2S0     1   0.14340000    267776.00 ; PROT AcProNH2, ProNH2, AcProNHCH3 RLD 4/23/93
  CG3C51    NG2S1     1   0.14358000    288712.74 ; SUI, by ac_aa
  CG3C51    NG2S3     1   0.14620000    301248.00 ; NABAKB phosphoramidates
  CG3C51    NG301     1   0.14560000    184096.00 ; NADH, NDPH; Kenno: reverted to "A/C" from par_all27_na.prm
  CG3C51    NG311     1   0.14560000    184096.00 ; 7GNM, from CG3C51 NG301, not optimized, yxu, RNA
  CG3C51    NG321     1   0.14740000    220078.40 ; AMINE aliphatic amines
  CG3C51   NG3C51     1   0.14780000    334720.00 ; from CG3C52 NG3C51, penalty= 4 143 5CS  PR4
  CG3C51    OG301     1   0.14110000    279742.24 ; THF2, THF-2'OMe, from Nucl. Acids, ed
  CG3C51    OG303     1   0.14300000    284512.00 ; LIPID phosphate
  CG3C51    OG311     1   0.14200000    358150.40 ; PROT methanol vib fit EMB 11/21/89
  CG3C51   OG3C51     1   0.14250000    292880.00 ; THF, nucleotide CSD/NDB survey, 5/30/06,viv
  CG3C51    SG311     1   0.18095000    167518.99 ; FZN 6V1 143, by ac_aa
  CG3C51     FGA1     1   0.13740000    351456.00 ; FLUROALK fluoroalkanes
  CG3C51     HGA1     1   0.11000000    256897.60 ; THF, THF neutron diffr., 5/30/06, viv
  CG3C51     HGA6     1   0.10828000    286185.60 ; T2FU, copied from FLUROALK fluoroalkanes by kevo
  CG3C52   CG3C52     1   0.15300000    163176.00 ; THF, nucleotide CSD/NDB survey, 5/30/06,viv; increased to 1.53 by kevo
  CG3C52   CG3C53     1   0.15270000    186188.00 ; PROT AcProNH2, ProNH2, AcProNHCH3 RLD 4/23/93
  CG3C52   CG3C54     1   0.15370000    186188.00 ; PROT AcProNH2, ProNH2, AcProNHCH3 RLD 4/23/93
  CG3C52   CG3RC1     1   0.15240000    186188.00 ; CARBOCY carbocyclic sugars
  CG3C52   NG2R50     1   0.14700000    334720.00 ; v 2IMI, 2-imidazoline; 2HPR, 2H-pyrrole, kevo
  CG3C52   NG2R53     1   0.14500000    309616.00 ; 2PDO, 2-pyrrolidinone, kevo
  CG3C52    NG2S0     1   0.14550000    267776.00 ; PROT AcProNH2, ProNH2, AcProNHCH3 RLD 4/23/93
  CG3C52   NG3C51     1   0.14780000    334720.00 ; PRLD, pyrrolidine; 2PRL, 2-pyrroline, kevo
  CG3C52   OG3C51     1   0.14250000    292880.00 ; THF, nucleotide CSD/NDB survey, 5/30/06,viv
  CG3C52    SG311     1   0.18248000    168380.90 ; PRS, by ac_aa
  CG3C52     HGA2     1   0.11000000    256897.60 ; THF, THF neutron diffr., 5/30/06, viv
  CG3C53   CG3RC1     1   0.15240000    186188.00 ; EQG, from CG3C51 CG3RC1, yxu, RNA
  CG3C53   NG2R61     1   0.14560000    184096.00 ; NA A/C
  CG3C53    NG3P2     1   0.14850000    267776.00 ; PROT AcProNH2, ProNH2, AcProNHCH3 RLD 4/23/93
  CG3C53    NG3P3     1   0.14850000    267776.00 ; cpoa, not optimized, yxu, RNA
  CG3C53   OG3C51     1   0.14460000    200832.00 ; NA NA
  CG3C53     HGA1     1   0.10800000    276144.00 ; PROT AcProNH2, ProNH2, AcProNHCH3 RLD 4/23/93
  CG3C54   CG3C54     1   0.15600000    175728.00 ; ~ 2IMP, 2-imidazoline.H+ ! RE-OPTIMIZE !!!, kevo
  CG3C54   NG2R52     1   0.14600000    267776.00 ; 2IMP, 2-imidazoline.H+, kevo
  CG3C54   NG3C51     1   0.14300000    196648.00 ; IMDP, imidazolidine ! partial dbl bond ==> RE-OPTIMIZE?, erh and kevo
  CG3C54    NG3P2     1   0.15150000    267776.00 ; PROT AcProNH2, ProNH2, AcProNHCH3 RLD 4/23/93 kenno: 1.502 --> 1.515 (CGenFF is not for peptides!)
  CG3C54     HGA2     1   0.11110000    258571.20 ; PROT AcProNH2, ProNH2, AcProNHCH3 RLD 4/23/93
  CG3RC1   CG3RC1     1   0.15230000    186188.00 ; CARBOCY carbocyclic sugars
  CG3RC1   NG2R51     1   0.14580000    184096.00 ; CARBOCY carbocyclic sugars
  CG3RC1   NG2R53     1   0.14500000    309616.00 ; CBHH, glycoluril, (CG3C52 NG2R53), jing
  CG3RC1   NG2R61     1   0.14560000    184096.00 ; CARBOCY carbocyclic sugars
  CG3RC1   OG3C31     1   0.14250000    209200.00 ; EQG, yxu, RNA
  CG3RC1   OG3C51     1   0.14200000    217568.00 ; RSRF, 4,6-dioxabicyclo[3.3.0]octan-8-ol, xxwy
  CG3RC1     HGA1     1   0.11110000    258571.20 ; CARBOCY carbocyclic sugars
   NG1T1    NG1T1     1   0.12457000    582588.53 ; AZDA, by ac_aa
   NG2D1    NG2D1     1   0.12550000    585760.00 ; (E)-1,2-di-p-tolyldiazene (fdmab, trans), Klaja et al., 2020
   NG2D1    NG2S1     1   0.13600000    460240.00 ; HDZ1, hydrazone model cmpd
   NG2D1    OG2D1     1   0.12165000    487402.53 ; SNC, by ac_aa
   NG2D1    OG301     1   0.14215000    226714.22 ; GGB, by ac_aa
   NG2D1    SG311     1   0.18207000     78240.80 ; SNC, by ac_aa
   NG2D1     HGP1     1   0.10000000    380744.00 ; MGU2, methylguanidine2
   NG2O1    OG2N1     1   0.12250000    485344.00 ; NITB, nitrobenzene
   NG2P1    OG301     1   0.13821000    273692.18 ; GGBP, by ac_aa
   NG2P1     HGP2     1   0.10000000    380744.00 ; RETINOL SCH2, Schiff's base, protonated
  NG2R43     HGP1     1   0.10150000    337230.40 ; AZDO, 2-azetidinone, kevo
  NG2R50   NG2R50     1   0.12900000    284512.00 ; OXAD, oxadiazole123
  NG2R50   NG2R51     1   0.13550000    301248.00 ; PYRZ, pyrazole
  NG2R50   NG3C51     1   0.14110000    351456.00 ; 2PRZ, 2-pyrazoline, kevo
  NG2R50   OG2R50     1   0.13950000    234304.00 ; ISOX, isoxazole
  NG2R50   SG2R50     1   0.17000000    225936.00 ; ISOT, isothiazole
  NG2R50     HGP1     1   0.10100000    396643.20 ; NA G, adm jr. 11/97
  NG2R51    OG301     1   0.13448000    219643.26 ; TOX, by ac_aa
  NG2R51      PG2     1   0.19931000     64149.09 ; NEP, by ac_aa
  NG2R51     HGP1     1   0.10100000    396643.20 ; NA G, adm jr. 11/97
  NG2R52     HGP2     1   0.10000000    379070.40 ; PROT his, adm jr., 6/27/90
  NG2R53     HGP1     1   0.10150000    393296.00 ; 470 440 *NEW* 2PDO, 2-pyrrolidinone, kevo
  NG2R57   NG2R57     1   0.13650000    376560.00 ; 11BPO, 1,1-bipyrrole, lf
  NG2R60     HGP1     1   0.10160000    410174.26 ; flavin
  NG2R61     HGP1     1   0.10100000    396643.20 ; NA C,U, JWK
  NG2R61     HGP2     1   0.10100000    396643.20 ; NA C,U, JWK
  NG2R62   NG2R62     1   0.13200000    351456.00 ; PYRD, pyridazine
   NG2S0    OG311     1   0.14095000    307155.81 ; FHO, by ac_aa
   NG2S1    OG311     1   0.14032000    266127.50 ; HGA, by ac_aa
   NG2S1     HGP1     1   0.09970000    368192.00 ; PROT Alanine Dipeptide ab initio calc's (LK)
   NG2S2     HGP1     1   0.10000000    401664.00 ; PROT adm jr. 8/13/90 acetamide geometry and vibrations
   NG2S3      PG0     1   0.17096000    198965.94 ; SUN, by ac_aa
   NG2S3      PG1     1   0.17920000    150624.00 ; NABAKB phosphoramidates
   NG2S3    SG3O1     1   0.17000000    187443.20 ; NMSM, N-methyl-sulfamate, my (QM: 1.74; Crystal: 1.637 1.665 1.656 1.672, aver: 1.658)
   NG2S3     HGP1     1   0.10250000    361916.00 ; NABAKB phosphoramidates
   NG2S3     HGP4     1   0.10000000    408358.40 ; NA A,C,G, JWK, adm jr. 7/24/91
   NG301    SG3O2     1   0.16300000    179912.00 ; TSPD model for D3R, xxwy
   NG311    SG3O2     1   0.16500000    196648.00 ; MMSM, N-methylmethanesulfonamide and other sulfonamides,(org 1.6950) compromise between crystal and mp2, xxwy
   NG311     HGP1     1   0.10210000    369865.60 ; MMSM, N-methylmethanesulfonamide and other sulfonamides, xxwy
   NG311   HGPAM1     1   0.10190000    374719.04 ; AMINE aliphatic amines
   NG321    OG301     1   0.14471000    235082.22 ; CAN, by ac_aa
   NG321    SG3O2     1   0.16800000    200832.00 ; MSAM, methanesulfonamide; BSAM, benzenesulfonamide; (org 1.730) compromise between crystal and mp2, xxwy
   NG321     HGP1     1   0.10200000    379907.20 ; MSAM, methanesulfonamide; BSAM, benzenesulfonamide; xxwy
   NG321   HGPAM2     1   0.10140000    379154.08 ; AMINE aliphatic amines
   NG331   HGPAM3     1   0.10140000    381162.40 ; AMINE aliphatic amines
  NG3C51    NG3P2     1   0.14400000    225936.00 ; PRZP, Pyrazolidine.H+, kevo
  NG3C51    OG312     1   0.13754000    262102.50 ; R1A, by ac_aa
  NG3C51   OG3C51     1   0.14528000    180497.76 ; 143, by ac_aa
  NG3C51     HGP1     1   0.10180000    376560.00 ; PRLD, pyrrolidine; 2PRL, 2-pyrroline, kevo
   NG3N1    NG3N1     1   0.14000000    297064.00 ; HDZN, hydrazine, ed
   NG3N1     HGP1     1   0.10100000    365681.60 ; HDZN, hydrazine, ed
   NG3P0    OG311     1   0.14000000    205016.00 ; TMAOP, Hydroxy(trimethyl)Ammonium, xxwy
   NG3P0    OG312     1   0.14000000    259408.00 ; TMAO, trimethylamine N-oxide, xxwy & ejd
   NG3P1     HGP2     1   0.10400000    337230.40 ; PROT new stretch and bend; methylammonium (KK 03/10/92)
   NG3P2     HGP2     1   0.10060000    384928.00 ; PROT AcProNH2, ProNH2, AcProNHCH3 RLD 4/23/93
   NG3P3     HGP2     1   0.10400000    337230.40 ; PROT new stretch and bend; methylammonium (KK 03/10/92)
   OG2D2    BG201     1   0.13500000    259408.00 ; BORN,BONN,BONB,BNNB,BONE,BNNE Boronic acid, sr
   OG2P1      PG0     1   0.14800000    485344.00 ; MP_0 reorganization, kevo
   OG2P1      PG1     1   0.15100000    418400.00 ; MP_1 reorganization, kevo
   OG2P1      PG2     1   0.15200000    334720.00 ; MP_2 reorganization, kevo
   OG2P1    SG3O1     1   0.14480000    451872.00 ; LIPID methylsulfate
   OG2P1    SG3O2     1   0.14400000    527184.00 ; DMSN, dimethyl sulfone; MSAM, methanesulfonamide and other sulfonamides; compromise between crystal and mp2; xxwy & xhe
   OG2P1    SG3O3     1   0.15300000    451872.00 ; DMSO, dimethylsulfoxide (ML Strader, et al.JPC2002_A106_1074), sz
   OG2S1      PG2     1   0.14770000    483670.40 ; mono-thio S-P bond modulated oxygen
   OG301    OG311     1   0.15130000    139578.24 ; TOX 2CO, by ac_aa
   OG301    SG301     1   0.16857000    196673.10 ; 2CO, by ac_aa
   OG303      PG0     1   0.16100000    192464.00 ; MP_0 reorganization, kevo
   OG303      PG1     1   0.16500000    158992.00 ; MP_1 reorganization, kevo
   OG303      PG2     1   0.16550000    125520.00 ; MP_2 reorganization, kevo
   OG303    SG3O1     1   0.15750000    209200.00 ; LIPID methylsulfate
   OG303    SG3O2     1   0.16000000    196648.00 ; MMST, methyl methanesulfonate, (org 1.640) compromise between crystal and mp2, xxwy
   OG304      PG0     1   0.16750000    276144.00 ; mono-thio S-P bond
   OG304      PG1     1   0.16750000    276144.00 ; PPI1, PPI2, METP reorganization, kevo ! pulls against attraction
   OG304      PG2     1   0.17150000    251040.00 ; PPI1, METP reorganization, kevo ! pulls against very strong attraction
   OG311      PG0     1   0.15800000    198321.60 ; NA MP_1, ADM Jr. !Reorganization:MP_0 RE-OPTIMIZE!
   OG311      PG1     1   0.16100000    198321.60 ; MP_1 reorganization, kevo
   OG311      PG2     1   0.16100000    198321.60 ; from OG311 PG1, PENALTY= 10 CSPP
   OG311    SG301     1   0.17016000    212195.74 ; CSO, by ac_aa
   OG311    BG201     1   0.14500000    205016.00 ; BORO,BORN,BORB,BONB,BORE,BONE Boronic acid, sr
   OG311     HGP1     1   0.09600000    456056.00 ; PROT EMB 11/21/89 methanol vib fit; og tested on MeOH EtOH,...
   OG312    SG301     1   0.16221000    258638.14 ; CSX, by ac_aa
  OG3C51    BG201     1   0.14350000    292880.00 ; BICB, Boronic acid, sr
     PG0    SG2P1     1   0.19953000    217902.72 ; mono-thio S-P bond
     PG0    SG2P2     1   0.19953000    217902.72 ; di-thio S-P bond
     PG2    SG2P1     1   0.19953000    217902.72 ; mono-thio S-P bond
     PG2    SG2P2     1   0.19953000    216647.52 ; di-thio S-P bond
   SG301    SG301     1   0.20290000    144766.40 ; PROT improved CSSC torsion in DMDS  5/15/92 (FL)
   SG301    SG311     1   0.20694000    164029.54 ; CSS, by ac_aa
   SG301    SG3O1     1   0.21784000     85587.90 ; CSU, by ac_aa
   SG311     HGP3     1   0.13250000    230120.00 ; PROT methanethiol pure solvent, adm jr., 6/22/92
    FGP1     ALG1     1   0.17260000    171544.00 ; aluminum tetrafluoride, ALF4, w/UB

; bond parameters from toppar_c36_jul22/par_all36_lipid.prm
;      i        j  func           b0           kb
    CTL3       CL     1   0.15220000    167360.00 ; methyl acetate
    CTL2       CL     1   0.15220000    167360.00 ; methyl acetate
    CTL1       CL     1   0.15220000    167360.00 ; methyl acetate
    CTL1      CCL     1   0.15220000    167360.00 ; for POPS
     OBL       CL     1   0.12200000    627600.00 ; methyl acetate
     OCL       CL     1   0.12600000    439320.00 ; acetate, protein
     OCL      CCL     1   0.12600000    439320.00 ; for POPS
     OSL       CL     1   0.13340000    125520.00 ; methyl acetate
    OSLP       CL     1   0.13340000    125520.00 ; methyl acetate
     OHL       CL     1   0.14000000    192464.00 ; methyl acetate
     HOL      OHL     1   0.09600000    456056.00 ; acetic acid
    CTL1     HAL1     1   0.11110000    258571.20 ; alkanes, 3/92
    CTL1      HBL     1   0.10800000    276144.00 ; for POPS
    CTL2     HAL2     1   0.11110000    258571.20 ; alkanes, 4/98
    CTL3     HAL3     1   0.11110000    269449.60 ; alkanes, 4/98
    CTL3      OSL     1   0.14300000    284512.00 ; phosphate
    CTL2      OSL     1   0.14300000    284512.00 ; phosphate
    CTL1      OSL     1   0.14300000    284512.00 ; phosphate
    CTL3     OSLP     1   0.14300000    284512.00 ; 
    CTL2     OSLP     1   0.14300000    284512.00 ; 
    CTL1     OSLP     1   0.14300000    284512.00 ; 
     OSL       PL     1   0.16000000    225936.00 ; phosphate
    OSLP       PL     1   0.16000000    225936.00 ; 
     O2L       PL     1   0.14800000    485344.00 ; phosphate
     OHL       PL     1   0.15900000    198321.60 ; phosphate
    NH3L      HCL     1   0.10400000    343088.00 ; ethanolamine
    NH3L     CTL1     1   0.14800000    167360.00 ; for POPS
    NH3L     CTL2     1   0.15100000    218404.80 ; ethanolamine
     NTL     CTL2     1   0.15100000    179912.00 ; tetramethylammonium
     NTL     CTL5     1   0.15100000    179912.00 ; tetramethylammonium
    CTL5       HL     1   0.10800000    251040.00 ; tetramethylammonium
    CTL2       HL     1   0.10800000    251040.00 ; tetramethylammonium
    CTL1     CTL1     1   0.15000000    186188.00 ; alkanes, 3/92
    CTL1     CTL2     1   0.15380000    186188.00 ; alkanes, 3/92
    CTL1     CTL3     1   0.15380000    186188.00 ; alkanes, 3/92
    CTL2     CTL2     1   0.15300000    186188.00 ; alkanes, 3/92
    CTL2     CTL3     1   0.15280000    186188.00 ; alkanes, 3/92
    CTL3     CTL3     1   0.15300000    186188.00 ; alkanes, 3/92
     OHL     CTL1     1   0.14200000    358150.40 ; glycerol
     OHL     CTL2     1   0.14200000    358150.40 ; glycerol
     OHL     CTL3     1   0.14200000    358150.40 ; glycerol
      SL      O2L     1   0.14480000    451872.00 ; methylsulfate
      SL      OSL     1   0.15750000    209200.00 ; methylsulfate
    CEL2     CEL2     1   0.13300000    426768.00 ; ethene yin,adm jr., 12/95
    CEL1     CTL3     1   0.15040000    320494.40 ; butene, yin,adm jr., 12/95
    CEL1     CEL2     1   0.13420000    418400.00 ; propene, yin,adm jr., 12/95
    CEL1     CTL2     1   0.15020000    305432.00 ; butene; from propene, yin,adm jr., 12/95
    CEL1     CEL1     1   0.13400000    368192.00 ; butene, yin,adm jr., 12/95

; bond parameters from toppar_c36_jul22/par_all36_na.prm
;      i        j  func           b0           kb
     CN8      NN6     1   0.14800000    167360.00 ; methylammonium
     NN6      HN1     1   0.10400000    337230.40 ; methylammonium
     ON6     CN8B     1   0.14200000    217568.00 ; susil
     CN8     CN8B     1   0.15280000    186188.00 ; Alkanes, sacred
     CN1      CN3     1   0.14090000    252713.60 ; U, adm jr. 11/97
     CN1     CN3T     1   0.14030000    252713.60 ; T, adm jr. 11/97
     CN1     CN5G     1   0.13600000    252713.60 ; G, adm jr. 11/97
     CN1      NN2     1   0.13670000    317984.00 ; C, adm jr. 11/97
    CN1T     NN2B     1   0.13480000    252713.60 ; U,T adm jr. 11/97
     CN1     NN2G     1   0.13960000    284512.00 ; G, adm jr. 11/97
     CN1     NN2U     1   0.13890000    284512.00 ; U,T adm jr. 11/97
    CN1T     NN2U     1   0.13830000    284512.00 ; U,T adm jr. 11/97
     CN1      NN3     1   0.13350000    292880.00 ; C, adm jr. 11/97
    CN1T      ON1     1   0.12300000    719648.00 ; nad/ppi, jjp1/adm jr. 7/95
     CN1      ON1     1   0.12340000    552288.00 ; U,A,G par_a4 adm jr. 10/2/91
     CN1     ON1C     1   0.12450000    518816.00 ; C, adm jr. 10/2/91
     CN2      CN3     1   0.14060000    267776.00 ; C, adm jr. 11/97
     CN2      CN5     1   0.13580000    301248.00 ; A, adm jr. 11/97
     CN2      NN1     1   0.13660000    301248.00 ; C,A,G JWK, adm jr. 10/2/91
     CN2     NN2G     1   0.13920000    334720.00 ; G
     CN2      NN3     1   0.13430000    376560.00 ; C
     CN2     NN3A     1   0.13420000    334720.00 ; A, adm jr. 11/97
     CN2     NN3G     1   0.13260000    267776.00 ; G, adm jr. 11/97
     CN3      CN3     1   0.13260000    418400.00 ; C,U adm jr. 11/97
     CN3     CN3T     1   0.13200000    468608.00 ; T, adm jr. 11/97
    CN3T      CN9     1   0.14780000    192464.00 ; T, adm jr. 11/97
     CN3      HN3     1   0.10900000    292880.00 ; C,U, JWK
    CN3T      HN3     1   0.10900000    292880.00 ; T, JWK
     CN3      NN2     1   0.13430000    252713.60 ; C, adm jr. 11/97
     CN3     NN2B     1   0.13430000    267776.00 ; U,T adm jr. 11/97
     CN4      HN3     1   0.10900000    317984.00 ; G,A, JWK par_a7 9/30/91
     CN4      NN2     1   0.13740000    267776.00 ; A, adm jr. 11/97
     CN4     NN2B     1   0.13780000    251040.00 ; G, adm jr. 11/97
     CN4     NN3A     1   0.13220000    351456.00 ; A, adm jr. 11/97
     CN4      NN4     1   0.13050000    334720.00 ; G,A, adm jr. 11/97
     CN5      CN5     1   0.13610000    259408.00 ; A, adm jr. 11/97
     CN5     CN5G     1   0.13500000    267776.00 ; G, adm jr. 11/97
     CN5      NN2     1   0.13750000    251040.00 ; A, adm jr. 11/97
     CN5     NN2B     1   0.13750000    252713.60 ; G, adm jr. 11/97
     CN5     NN3A     1   0.13120000    292880.00 ; A, JWK par_a8 9/30/91
     CN5     NN3G     1   0.13150000    292880.00 ; G, adm jr. 11/97
     CN5      NN4     1   0.13550000    259408.00 ; A, adm jr. 11/97
    CN5G      NN4     1   0.13650000    259408.00 ; G, adm jr. 11/97
     CN8      CN8     1   0.15280000    186188.00 ; Alkanes, sacred
     CN8      CN9     1   0.15280000    186188.00 ; Alkanes, sacred
     CN8      NN2     1   0.14600000    334720.00 ; 9-E-GUA, ADM JR.
     CN8      ON5     1   0.14200000    358150.40 ; RIBOSE, MeOH
     CN9      HN9     1   0.11110000    269449.60 ; alkanes
     CN9      ON2     1   0.14300000    284512.00 ; DMP, ADM Jr.
     HN1      NN1     1   0.10000000    408358.40 ; A,C,G, JWK, adm jr. 7/24/91
     HN2      NN2     1   0.10100000    396643.20 ; C,U, JWK
     HN2     NN2B     1   0.10100000    396643.20 ; G, adm jr. 11/97
     HN2     NN2G     1   0.10100000    394132.80 ; G, JWK, par_a12 9/30/91
     HN2     NN2U     1   0.10100000    396643.20 ; U, JWK, adm jr. 7/24/91
     HN4      ON4     1   0.09600000    456056.00 ; MP_1, ADM Jr.
     ON2        P     1   0.16000000    225936.00 ; DMP, ADM Jr.
     ON2       P2     1   0.16000000    225936.00 ; DMP, ADM Jr., adm, 2011 DNA update
     ON3        P     1   0.14800000    485344.00 ; DMP, ADM Jr.
     ON3       P2     1   0.14800000    485344.00 ; DMP, ADM Jr., adm, 2011 DNA update
     ON4        P     1   0.15800000    198321.60 ; MP_1, ADM Jr.
     ON4       P2     1   0.15800000    198321.60 ; MP_1, ADM Jr., adm, 2011 DNA update
    CN7B      ON6     1   0.14200000    217568.00 ; From exp
    CN7B      CN8     1   0.15180000    167360.00 ; From exp
     CN7      ON6     1   0.14460000    200832.00 ; Fom exp.
     CN7      CN7     1   0.15290000    186188.00 ; From exp
     CN7      CN8     1   0.15160000    186188.00 ; From exp.
     CN7      CN9     1   0.15160000    186188.00 ; for 5MET, From alkanes
     CN7      HN7     1   0.11110000    258571.20 ; Alkanes, sacred
     CN8      HN8     1   0.11110000    258571.20 ; Alkanes, sacred
    CN7B      HN7     1   0.11110000    258571.20 ; From CN8  HN7 (NF)
    CN7B     ON6B     1   0.14200000    217568.00 ; From CN7B ON6
     CN7     ON6B     1   0.14800000    200832.00 ; From CN7  ON6
    CN7B     CN7B     1   0.14500000    167360.00 ; 
     CN7     CN7B     1   0.14600000    186188.00 ; Specific to RNA
     CN7     CN8B     1   0.15120000    186188.00 ; From exp.
    CN8B      ON2     1   0.14400000    267776.00 ; From exp
    CN8B      ON5     1   0.14200000    358150.40 ; From CN8 ON2, adm jr., 8/30/98
     CN7      ON2     1   0.14330000    259408.00 ; From exp
    CN7B      ON2     1   0.14330000    259408.00 ; From exp, for NADPH and bkbmod
     CN7      ON5     1   0.14200000    358150.40 ; From CN8 ON2, adm jr., 8/30/98
     CN9      NN2     1   0.14560000    334720.00 ; 9-M-A/C, adm jr.
     CN8     NN2B     1   0.14580000    334720.00 ; 9-M-G/T/U, adm jr.
     CN9     NN2B     1   0.14580000    334720.00 ; 9-M-G/T/U, adm jr.
    CN7B      NN2     1   0.14560000    184096.00 ; A/C
    CN7B     NN2B     1   0.14580000    184096.00 ; G/T/U
    CN8B      HN8     1   0.11110000    258571.20 ; Alkanes, sacred
     ON5      HN5     1   0.09600000    456056.00 ; RIBOSE, MeOH
    CN7B      ON5     1   0.14000000    358150.40 ; check adm jr.,
     CN8      ON2     1   0.14400000    284512.00 ; 
     ON2       P3     1   0.16800000    251040.00 ; nad/ppi, jjp1/adm jr. 7/95
     ON3       P3     1   0.15300000    401664.00 ; nad/ppi, jjp1/adm jr. 7/95
     ON2       P4     1   0.16800000    251040.00 ; PPI2, from nad/ppi, adm jr. 7/01
     ON3       P4     1   0.15300000    401664.00 ; PPI2, from nad/ppi, adm jr. 7/01
     ON4       P4     1   0.15800000    198321.60 ; PPI2, from MP_1, ADM Jr.

; bond parameters from toppar_c36_jul22/par_all36m_prot.prm
;      i        j  func           b0           kb
     NH2      CT1     1   0.14550000    200832.00 ; From LSN NH2-CT2
      CA      CAI     1   0.13750000    255224.00 ; from CA CA
     CAI      CAI     1   0.13750000    255224.00 ; atm, methylindole, fit CCDSS
     CPT       CA     1   0.13600000    251040.00 ; atm, methylindole, fit CCDSS
     CPT      CAI     1   0.13600000    251040.00 ; atm, methylindole, fit CCDSS
     CPT      CPT     1   0.13850000    301248.00 ; atm, methylindole, fit CCDSS
      CY       CA     1   0.13650000    292880.00 ; trj, adm jr., 5/08/91, indole CCDB structure search
      CY      CAI     1   0.13650000    292880.00 ; from CY CA
      CY      CPT     1   0.14300000    292880.00 ; atm, methylindole, fit CDS data
      CY      CT3     1   0.14920000    313800.00 ; atm, methylindole, fit CDS data
      CY      CT2     1   0.14920000    313800.00 ; atm, methylindole, fit CDS data
      HP      CAI     1   0.10800000    284512.00 ; from HP CA
      HP       CY     1   0.10800000    292880.00 ; trp, adm jr., 12/30/91
      NY       CA     1   0.13700000    225936.00 ; trp, adm jr., 12/30/91
      NY      CPT     1   0.13700000    225936.00 ; atm, methylindole, from CCDS 1/17/04
      NY        H     1   0.09760000    449780.00 ; atm, methylindole, 1/17/04
      CA       CA     1   0.13750000    255224.00 ; ALLOW   ARO
     CE1      CE1     1   0.13400000    368192.00 ; 
     CE1      CE2     1   0.13420000    418400.00 ; 
     CE1      CT2     1   0.15020000    305432.00 ; 
     CE1      CT3     1   0.15040000    320494.40 ; 
     CE2      CE2     1   0.13300000    426768.00 ; 
     CP1        C     1   0.14900000    209200.00 ; ALLOW PRO
     CP1       CC     1   0.14900000    209200.00 ; ALLOW PRO
     CP1       CD     1   0.14900000    167360.00 ; ALLOW PRO
     CP2      CP1     1   0.15270000    186188.00 ; ALLOW PRO
     CP2      CP2     1   0.15370000    186188.00 ; ALLOW PRO
     CP3      CP2     1   0.15370000    186188.00 ; ALLOW PRO
    CPH1     CPH1     1   0.13600000    343088.00 ; ALLOW ARO
     CT1        C     1   0.14900000    209200.00 ; ALLOW   ALI PEP POL ARO
     CT1       CC     1   0.15220000    167360.00 ; ALLOW   POL
     CT1       CD     1   0.15220000    167360.00 ; ALLOW   POL
     CT1      CT1     1   0.15000000    186188.00 ; ALLOW   ALI
     CT2        C     1   0.14900000    209200.00 ; ALLOW   ALI PEP POL ARO
     CT2       CA     1   0.14900000    192464.00 ; ALLOW   ALI ARO
     CT2       CC     1   0.15220000    167360.00 ; ALLOW   POL
     CT2       CD     1   0.15220000    167360.00 ; ALLOW   POL
     CT2     CPH1     1   0.15000000    192154.38 ; ALLOW ARO
     CT2      CT1     1   0.15380000    186188.00 ; ALLOW   ALI
     CT2      CT2     1   0.15300000    186188.00 ; ALLOW   ALI
     CT3        C     1   0.14900000    209200.00 ; ALLOW   ALI PEP POL ARO
     CT3       CA     1   0.14900000    192464.00 ; ALLOW   ALI ARO
     CT3       CC     1   0.15220000    167360.00 ; ALLOW   POL
     CT3       CD     1   0.15220000    167360.00 ; ALLOW   POL
     CT3     CPH1     1   0.15000000    192154.38 ; ALLOW ARO
     CT3       CS     1   0.15310000    158992.00 ; ALLOW   SUL
     CT3      CT1     1   0.15380000    186188.00 ; ALLOW   ALI
     CT3      CT2     1   0.15280000    186188.00 ; ALLOW   ALI
     CT3      CT3     1   0.15300000    186188.00 ; ALLOW   ALI
       H       CD     1   0.11100000    276144.00 ; ALLOW   PEP POL ARO
     HA1       CC     1   0.11000000    265374.38 ; ALLOW POL
     HA2      CP2     1   0.11110000    258571.20 ; ALLOW PRO
     HA2      CP3     1   0.11110000    258571.20 ; ALLOW PRO
     HA2       CS     1   0.11110000    251040.00 ; ALLOW   SUL
     HA3       CS     1   0.11110000    251040.00 ; ALLOW   SUL
     HA1      CT1     1   0.11110000    258571.20 ; ALLOW   ALI
     HA2      CT2     1   0.11110000    258571.20 ; ALLOW   ALI
     HA3      CT3     1   0.11110000    269449.60 ; ALLOW   ALI
     HE1      CE1     1   0.11000000    301666.40 ; 
     HE2      CE2     1   0.11000000    305432.00 ; 
     HB1      CP1     1   0.10800000    276144.00 ; ALLOW PRO
     HB1      CT1     1   0.10800000    276144.00 ; ALLOW   PEP
     HB2      CT2     1   0.10800000    276144.00 ; ALLOW   PEP
      HP       CA     1   0.10800000    284512.00 ; ALLOW   ARO
     HR1     CPH1     1   0.10830000    313800.00 ; ALLOW ARO
     HR1     CPH2     1   0.10900000    284512.00 ; ALLOW ARO
     HR2     CPH2     1   0.10700000    278654.40 ; ALLOW ARO
     HR3     CPH1     1   0.10830000    305432.00 ; ALLOW ARO
       N        C     1   0.13000000    217568.00 ; ALLOW PEP POL ARO PRO
       N      CP1     1   0.14340000    267776.00 ; ALLOW PRO
       N      CP3     1   0.14550000    267776.00 ; ALLOW PRO
     NC2        C     1   0.13650000    376560.00 ; ALLOW   PEP POL ARO
     NC2      CT2     1   0.14900000    326352.00 ; ALLOW   ALI POL
     NC2      CT3     1   0.14900000    326352.00 ; ALLOW   ALI POL
     NC2       HC     1   0.10000000    380744.00 ; ALLOW   POL
     NH1        C     1   0.13450000    309616.00 ; ALLOW   PEP POL ARO
     NH1      CT1     1   0.14300000    267776.00 ; ALLOW   ALI PEP POL ARO
     NH1      CT2     1   0.14300000    267776.00 ; ALLOW   ALI PEP POL ARO
     NH1      CT3     1   0.14300000    267776.00 ; ALLOW   ALI PEP POL ARO
     NH1        H     1   0.09970000    368192.00 ; ALLOW   PEP POL ARO
     NH1       HC     1   0.09800000    338904.00 ; ALLOW   PEP POL ARO
     NH2       CC     1   0.13600000    359824.00 ; ALLOW   PEP POL ARO
     NH2      CT2     1   0.14550000    200832.00 ; 
     NH2      CT3     1   0.14550000    200832.00 ; ALLOW   POL
     NH2        H     1   0.10000000    401664.00 ; ALLOW   POL
     NH2       HC     1   0.10000000    384928.00 ; ALLOW   POL
     NH3      CT1     1   0.14800000    167360.00 ; ALLOW   ALI POL
     NH3      CT2     1   0.14800000    167360.00 ; ALLOW   ALI POL
     NH3      CT3     1   0.14800000    167360.00 ; ALLOW   ALI POL
     NH3       HC     1   0.10400000    337230.40 ; ALLOW   POL
      NP      CP1     1   0.14850000    267776.00 ; ALLOW PRO
      NP      CP3     1   0.15020000    267776.00 ; ALLOW PRO
      NP       HC     1   0.10060000    384928.00 ; ALLOW PRO
     NR1     CPH1     1   0.13800000    334720.00 ; ALLOW ARO
     NR1     CPH2     1   0.13600000    334720.00 ; ALLOW ARO
     NR1        H     1   0.10000000    389948.80 ; ALLOW ARO
     NR2     CPH1     1   0.13800000    334720.00 ; ALLOW ARO
     NR2     CPH2     1   0.13200000    334720.00 ; ALLOW ARO
     NR3     CPH1     1   0.13700000    317984.00 ; ALLOW ARO
     NR3     CPH2     1   0.13200000    317984.00 ; ALLOW ARO
     NR3        H     1   0.10000000    379070.40 ; ALLOW ARO
       O        C     1   0.12300000    518816.00 ; ALLOW   PEP POL ARO
       O       CC     1   0.12300000    543920.00 ; ALLOW   PEP POL ARO
      OB       CC     1   0.12200000    627600.00 ; ALLOW   PEP POL ARO
      OB       CD     1   0.12200000    627600.00 ; ALLOW   PEP POL ARO
      OC       CA     1   0.12600000    439320.00 ; ALLOW   PEP POL ARO ION
      OC       CC     1   0.12600000    439320.00 ; ALLOW   PEP POL ARO ION
      OC      CT2     1   0.13300000    376560.00 ; ALLOW   ALC
      OC      CT3     1   0.13300000    376560.00 ; ALLOW   ALC
     OH1       CA     1   0.14110000    279742.24 ; ALLOW   ARO ALC
     OH1       CD     1   0.14000000    192464.00 ; ALLOW   PEP POL ARO ALC
     OH1      CT1     1   0.14200000    358150.40 ; ALLOW   ALI ALC ARO
     OH1      CT2     1   0.14200000    358150.40 ; ALLOW   ALI ALC ARO
     OH1      CT3     1   0.14200000    358150.40 ; ALLOW   ALI ALC ARO
     OH1        H     1   0.09600000    456056.00 ; ALLOW   ALC ARO
      OS       CD     1   0.13340000    125520.00 ; ALLOW POL PEP
      OS      CT3     1   0.14300000    284512.00 ; ALLOW POL PEP
       S      CT2     1   0.18180000    165686.40 ; ALLOW   ALI SUL ION
       S      CT3     1   0.18160000    200832.00 ; ALLOW   ALI SUL ION
       S       HS     1   0.13250000    230120.00 ; ALLOW   SUL ION
      SM      CT2     1   0.18160000    179075.20 ; ALLOW   SUL ION
      SM      CT3     1   0.18160000    179075.20 ; ALLOW   SUL ION
      SM       SM     1   0.20290000    144766.40 ; ALLOW   SUL ION
      SS       CS     1   0.18360000    171544.00 ; ALLOW   SUL
     HR1       CD     1   0.11100000    276144.00 ; acetaldehyde, benzaldehyde, 3ALP
       O       CD     1   0.12050000    602496.00 ; acetaldehyde, benzaldehyde, 3ALP. from stream/toppar_all27_na_bkb_modifications.str
    CT2A      CT1     1   0.15380000    186188.00 ; from CT2  CT1, Zhu
     CT2     CT2A     1   0.15300000    186188.00 ; from CT2  CT2, Zhu
    CT2A      HA2     1   0.11110000    258571.20 ; from HA2  CT2, Zhu
    CT2A     CPH1     1   0.15000000    192154.38 ; from CT2  CPH1, Zhu
    CT2A       CC     1   0.15220000    167360.00 ; from CT2  CC, jshim
     CT1       CS     1   0.15380000    158992.00 ; from CT3 CS but lengthened; compare CT3 CT2 with CT2 CT1; kevo

; bond parameters from toppar_c36_jul22/silicates/toppar/par_silicates.inp
;      i        j  func           b0           kb
      SI     OSIE     1   0.16980000    252713.60 ; 
    ALSI     OSIE     1   0.16980000    252713.60 ; 
      SI     OSIA     1   0.16980000    252713.60 ; 
      SI     OSIH     1   0.16800000    271960.00 ; 
    ALSI      OAL     1   0.20000000    252713.60 ; 
    SIH3     OSIE     1   0.16820000    254387.20 ; 
    HSIO     OSIH     1   0.09750000    473628.80 ; 
     HAL      OAL     1   0.09600000    473628.80 ; 
    ALSI      HAL     1   0.09572000    376560.00 ; 
      SI     HSIA     1   0.14890000    170707.20 ; 
    HSIA     SIH3     1   0.14890000    170707.20 ; 
      SI      OAL     1   0.16820000    254387.20 ; 

; bond parameters from toppar_c36_jul22/silicates/toppar/top_silicates.inp
;      i        j  func           b0           kb

; bond parameters from toppar_c36_jul22/stream/carb/toppar_all36_carb_glycolipid.str
;      i        j  func           b0           kb
   OC30P       PL     1   0.16750000    225936.00 ; 
   OC2DP       PL     1   0.15250000    485344.00 ; 
   OC312       PL     1   0.16100000    198321.60 ; 
    CTL2    OC301     1   0.14150000    301248.00 ; par35 CC32A OC30A
  CC3162    OG303     1   0.14250000    301248.00 ; ! from CC3162  OC30P    360.00  1.425   !
    CTO2    OC301     1   0.14150000    301248.00 ; par35 CC32A OC30A
     OSL    CC321     1   0.14150000    301248.00 ; 
    CTL2   CC311C     1   0.15380000    186188.00 ; alkanes, 3/92
      CL      NHL     1   0.13450000    309616.00 ; NH1  C
     NHL    CC321     1   0.14300000    267776.00 ; NH1  CT2
     NHL    CC322     1   0.14300000    267776.00 ; NH1  CT2
     NHL    CC331     1   0.14300000    267776.00 ; NH1  CT3
   OC301   CG2R61     1   0.14150000    301248.00 ; 
   CG301   CG2R61     1   0.15380000    186188.00 ; CG301  CG321
   CC301   CC311C     1   0.15380000    186188.00 ; alkanes, 3/92

; bond parameters from toppar_c36_jul22/stream/carb/toppar_all36_carb_glycopeptide.str
;      i        j  func           b0           kb
  CC311D    NC2D1     1   0.14300000    267776.00 ; 320.00  1.430   ! par22 NH1 CT1
  CC3162    NC2D1     1   0.14300000    267776.00 ; 320.00  1.430   ! par22 NH1 CT1
   CC321      CT1     1   0.15380000    186188.00 ; CT2  CT1   222.500     1.5380 ! ALLOW   ALI
   CC2O1    CC321     1   0.15220000    167360.00 ; CT2  CC    200.000     1.5220 ! ALLOW   POL
   OC301      CT2     1   0.14250000    301248.00 ; CC311   OC301    360.00  1.415   ! par35 CC32A OC30A
   OC301      CT1     1   0.14250000    301248.00 ; CC311   OC301    360.00  1.415   ! par35 CC32A OC30A

; bond parameters from toppar_c36_jul22/stream/carb/toppar_all36_carb_imlab.str
;      i        j  func           b0           kb
   CG321    OC30P     1   0.14300000    284512.00 ; CTL2  OSLP   340.0       1.4300 ! from, toppar_all36_gpi.str
   CC331      CT3     1   0.15380000    186188.00 ; from,  CT1  CT3, ALLOW   ALI
  CC3163    CC2O1     1   0.14900000    209200.00 ; from, CT1  C, ALLOW   ALI PEP POL ARO
   NC2D1      CT2     1   0.14300000    267776.00 ; from, NH1  CT2, ALLOW   ALI PEP POL ARO
   CC2O1      CT1     1   0.14900000    209200.00 ; from, CT1  C, ALLOW   ALI PEP POL ARO
  CC3163      CT1     1   0.15000000    186188.00 ; from, CT1  CT1, ALLOW   ALI
     CT2       OS     1   0.14150000    301248.00 ; from, CC321   OC301, CC32A OC30A
      OS       CC     1   0.13340000    125520.00 ; from, OS   CD, ALLOW POL PEP
     CT1     HCA1     1   0.11110000    258571.20 ; from, HA1  CT1, ALLOW   ALI
     CT1    OC30P     1   0.14250000    301248.00 ; 
   OC301        C     1   0.13340000    125520.00 ; from, OS   CD, ALLOW POL PEP
   CC312    CC321     1   0.15380000    186188.00 ; par22 CT2 CT1
   CC321    OC2D2     1   0.14150000    301248.00 ; from, CC321   OC301,
   OC2D2    CC2O1     1   0.13340000    125520.00 ; from, OS   CD,
  CC3163    CC322     1   0.15380000    186188.00 ; from, CT2  CT1
   CC322    CC322     1   0.15300000    186188.00 ; from, CT2  CT2
  CC3163    CC311     1   0.15000000    186188.00 ; CT1  CT1, ALLOW   ALI
   CC311    CC312     1   0.15000000    186188.00 ; CT1  CT1, ALLOW   ALI
   CC312    CC331     1   0.15380000    186188.00 ; from, CT3  CT1 ALLOW   ALI
   CC2O2    CC312     1   0.15220000    167360.00 ; par22 CT1 CC
  CC3251   OC3C51     1   0.14250000    292880.00 ; from, OC3C51  CC3051
   CC2O1     HCR1     1   0.11000000    265374.38 ; ALLOW POL
  CC3153    CC312     1   0.14900000    186188.00 ; par_carb CC321 CC3163
  CC3162   CC3261     1   0.14800000    186188.00 ; CC3161  CC3162   222.50  1.480
  CC3261   OC3C61     1   0.14250000    301248.00 ; CC3162  OC3C61   360.00  1.425
  CC3261   CC3163     1   0.15000000    186188.00 ; CC3161  CC3163   222.50  1.500
  CC3261     FGA1     1   0.13740000    351456.00 ; CG3C51  FGA1     420.00  1.3740
  CC3162    SG311     1   0.18180000    165686.40 ; CG321   SG311    198.00  1.8180
  CC3161    SG311     1   0.18180000    165686.40 ; CG321   SG311    198.00  1.8180
  CC3163    NC2D1     1   0.14300000    267776.00 ; par22 NH1 CT1
  CC3161    NG3P3     1   0.14300000    267776.00 ; NC2D1   CC3161   320.00  1.430   !
   CC2O1      NC2     1   0.13650000    376560.00 ; 
  CC3151    OC301     1   0.14250000    301248.00 ; CC312C  OC303 - model compound 3 (raman et. al.)
  CC3161      NH1     1   0.14300000    267776.00 ; par22 NH1 CT1
  CC3161    CC2O1     1   0.14900000    209200.00 ; CT1  C
     CT3    CC2O1     1   0.14900000    209200.00 ; CT1  C
     CT2    CC2O1     1   0.14900000    209200.00 ; CT1  C
   NC2D1      CT1     1   0.14300000    267776.00 ; par22 NH1 CT1
   CC312    CC2O1     1   0.14900000    209200.00 ; from, CT1  C
   CC322    OC30P     1   0.14300000    284512.00 ; from, CTL2  OSLP
   CC312    OC30P     1   0.14300000    284512.00 ; from, CTL2  OSLP
   CC322    OC303     1   0.14150000    301248.00 ; CC321 OC301 ; all36 carb
   CC321    NC2D1     1   0.14300000    267776.00 ; from, NH1  CT2
   NC2D1    CC312     1   0.14300000    267776.00 ; from, NH1  CT1
  CC3161   OC3C61     1   0.14250000    301248.00 ; from, CC3161  OC3C61
  OC3C61    CC301     1   0.14250000    301248.00 ; from CC3162 OC3C61
   CC321   CC3162     1   0.14900000    186188.00 ; from CC321  CC3163
   CC321     CEL1     1   0.15020000    305432.00 ; from CEL1  CTL2, for KDA
    CEL1     HEL1     1   0.11000000    301666.40 ; from HEL1  CEL1, for KDA
    CEL2     HEL2     1   0.11000000    305432.00 ; from HEL2  CEL2, for KDA
   CC2O2    OC301     1   0.13340000    125520.00 ; from CG2O2  OG302
  CC3152    OC30P     1   0.14250000    301248.00 ; CC3162  OC30P
   SG311    CC311     1   0.18180000    165686.40 ; CG321  SG311
  CC3163       CD     1   0.15220000    167360.00 ; CT1  CD
  CC3152    NC2D1     1   0.14300000    267776.00 ; CC3162   NC2D1
   SG311     CTL2     1   0.18180000    165686.40 ; CG321  SG311
    CTL1    OC301     1   0.14150000    301248.00 ; CC3161  OC301
  CC3151    OC30P     1   0.14250000    301248.00 ; CC3161  OC30P
  CC3062     FGA1     1   0.13740000    351456.00 ; CC3261  FGA1
   CC321       SC     1   0.18070000    154808.00 ; ESNA, ethyl sulfonate, xhe
  CC3051    OC30P     1   0.14250000    301248.00 ; CC3152   OC30P
  CC3062   CC3161     1   0.14800000    186188.00 ; CC3161  CC3162
   CC2O1    CC322     1   0.15220000    167360.00 ; CC2O1    CC321
   CC311      CT3     1   0.15380000    186188.00 ; par22 CT3 CT1
   CC2O1      CP1     1   0.14900000    209200.00 ; CT1  C
     CP2      CT3     1   0.15380000    186188.00 ; CT3  CT1
     CP2       CC     1   0.15200000    209200.00 ; These three done to MP2 geom.
      CC      NH1     1   0.13800000    309616.00 ; New bond, to optimise
     NH1      CP1     1   0.14200000    267776.00 ; ALLOW PRO
   CC322    NC2D1     1   0.14300000    267776.00 ; CC321    NC2D1
   SG311    CC321     1   0.18180000    165686.40 ; CG321  SG311
  CC3261    CC321     1   0.14900000    186188.00 ; CC321   CC3163
   CC321    NG2S3     1   0.14400000    269449.60 ; CG321  NG2S3

; bond parameters from toppar_c36_jul22/stream/carb/toppar_all36_carb_lignin.str
;      i        j  func           b0           kb
  CC3151     OLG4     1   0.14480000    278619.25 ; 
  CC3152     OLG4     1   0.14392000    278235.16 ; 
   CC321     OLG4     1   0.14313000    300068.11 ; 
   CC321     OLG5     1   0.14155000    267768.47 ; 
   CLG01    CLG01     1   0.13436000    369249.72 ; 
   CLG01    CLG02     1   0.13971000    251036.65 ; 
   CLG01    CLG03     1   0.14797000    251727.01 ; 
   CLG01    CLG04     1   0.15498000    365448.13 ; 
   CLG01    CLG05     1   0.14731000    251404.01 ; 
   CLG01    CLG06     1   0.14482000    305265.48 ; 
   CLG01    CLG11     1   0.15307000    305431.16 ; 
   CLG01    CLG12     1   0.14972000    305133.26 ; 
   CLG01    HLGA4     1   0.10963000    302916.58 ; 
   CLG02    CLG02     1   0.13553000    368169.41 ; 
   CLG02    CLG03     1   0.15669000    251034.98 ; 
   CLG02    CLG06     1   0.14437000    305426.14 ; 
   CLG02    HLGA4     1   0.10833000    301662.22 ; 
   CLG03    CLG06     1   0.14583000    212565.61 ; 
   CLG03    CLG11     1   0.16056000    167357.49 ; 
   CLG03     OLG1     1   0.12230000    627440.17 ; 
   CLG03     OLG5     1   0.13723000    127546.73 ; 
   CLG03     OLG6     1   0.13693000    192675.71 ; 
   CLG04    CLG06     1   0.15563000    166482.20 ; 
   CLG04     OLG2     1   0.12766000    421485.28 ; 
   CLG05    CLG06     1   0.14675000    251055.06 ; 
   CLG05   HLGR52     1   0.11200000    276401.73 ; 
   CLG05     OLG1     1   0.12358000    586371.70 ; 
   CLG06    CLG06     1   0.13852000    267400.28 ; 
   CLG06    CLG07     1   0.13847000    329699.20 ; 
   CLG06    CLG09     1   0.13759000    255198.90 ; 
   CLG06    CLG10     1   0.13720000    254306.03 ; 
   CLG06    CLG11     1   0.14924000    193095.78 ; 
   CLG06    CLG14     1   0.14845000    194230.48 ; 
   CLG06   CLG06A     1   0.13809000    261581.17 ; 
   CLG06   CLG06B     1   0.13806000    257263.28 ; 
   CLG06   HLGR61     1   0.10821000    288980.51 ; 
   CLG07    CLG07     1   0.13731000    351456.00 ; 
   CLG07    CLG08     1   0.14297000    252708.58 ; 
   CLG07    CLG09     1   0.13410000    255223.16 ; 
   CLG07   CLG06A     1   0.14109000    329699.20 ; 
   CLG07   HLGR62     1   0.10820000    292880.00 ; 
   CLG07     OLG8     1   0.13731000    276144.84 ; 
   CLG08     OLG3     1   0.12519000    552288.00 ; 
   CLG09    CLG09     1   0.14596000    251009.88 ; 
   CLG09   CLG06A     1   0.13645000    256327.74 ; 
   CLG09     OLG8     1   0.13200000    234306.51 ; 
   CLG10    CLG10     1   0.13921000    302634.58 ; 
   CLG10    CLG14     1   0.15135000    254428.20 ; 
   CLG10   CLG06A     1   0.13882000    254457.49 ; 
   CLG10   CLG06B     1   0.13949000    252639.12 ; 
   CLG10     OLG7     1   0.13786000    276804.24 ; 
   CLG11    CLG11     1   0.14934000    190567.81 ; 
   CLG11    CLG12     1   0.14807000    188765.34 ; 
   CLG11    HLGA1     1   0.11054000    267142.54 ; 
   CLG11     OLG4     1   0.14664000    298632.16 ; 
   CLG11     OLG5     1   0.14616000    282661.00 ; 
   CLG11     OLG6     1   0.14137000    331340.16 ; 
   CLG11     OLG8     1   0.14226000    233847.94 ; 
   CLG12    CLG14     1   0.15027000    186507.66 ; 
   CLG12    HLGA2     1   0.10909000    268930.78 ; 
   CLG12     OLG5     1   0.14391000    266292.35 ; 
   CLG12     OLG6     1   0.14288000    342840.31 ; 
   CLG13    HLGA3     1   0.10915000    272276.31 ; 
   CLG13     OLG4     1   0.14313000    300470.61 ; 
   CLG14    CLG14     1   0.15305000    162612.83 ; 
   CLG14    CLG16     1   0.15549000    185777.97 ; 
   CLG14    HLGA1     1   0.11054000    258807.18 ; 
   CLG14     OLG7     1   0.14541000    287820.71 ; 
   CLG15    CLG16     1   0.15589000    185393.04 ; 
   CLG15    HLGA2     1   0.11141000    260151.08 ; 
   CLG15     OLG7     1   0.14361000    291072.51 ; 
   CLG16    CLG16     1   0.15520000    186286.74 ; 
   CLG16    HLGA1     1   0.11303000    260375.34 ; 
  CLG06A   CLG06A     1   0.14063000    256032.35 ; 
  CLG06A   CLG06B     1   0.14008000    257084.21 ; 
  CLG06A     OLG6     1   0.13752000    281439.27 ; 
  CLG06B   CLG06B     1   0.14128000    255316.88 ; 
  CLG06B     OLG4     1   0.13646000    193904.97 ; 
  CLG06B     OLG8     1   0.13742000    237976.72 ; 
   HLGP1     OLG6     1   0.09804000    457172.29 ; 

; bond parameters from toppar_c36_jul22/stream/lipid/toppar_all36_lipid_bacterial.str
;      i        j  func           b0           kb
    CTL2   CG3RC1     1   0.15300000    186188.00 ; alkanes, 3/92
    CTL3   CG3RC1     1   0.15380000    186188.00 ; BAM1, bile acid steroidal C-D ring, cacha, 02/08, from genFF
    CTL3   CG3C31     1   0.15010000    200832.00 ; PROTMOD cyclopropane, taken from CG321 CG3C31, genFF
    CTL2   CG3C31     1   0.15010000    200832.00 ; PROTMOD cyclopropane, from genFF
     OSL        C     1   0.13340000    125520.00 ; methyl acetate

; bond parameters from toppar_c36_jul22/stream/lipid/toppar_all36_lipid_cholesterol.str
;      i        j  func           b0           kb
    CEL1     CTL1     1   0.15020000    200832.00 ; from CEL1  CTL2: sR12cc (c8-c39)
    CTL1     CRL1     1   0.15000000    186188.00 ; alkanes, 3/92
    CRL1     CRL1     1   0.15000000    186188.00 ; alkanes, 3/92
    CRL1     CTL2     1   0.15380000    186188.00 ; alkanes, 3/92
    CRL1     CRL2     1   0.15380000    186188.00 ; alkanes, 3/92
    CTL1     CRL2     1   0.15380000    186188.00 ; alkanes, 3/92
    CRL2     CRL2     1   0.15300000    186188.00 ; alkanes, 3/92
    CTL2     CRL2     1   0.15300000    186188.00 ; alkanes, 3/92
    CRL1     HGA1     1   0.11110000    258571.20 ; alkanes, 3/92
    CRL2     HGA2     1   0.11110000    258571.20 ; alkanes, 4/98
     OHL     CRL1     1   0.14200000    358150.40 ; glycerol
    CRL1     CTL3     1   0.15380000    186188.00 ; alkanes, 3/92
    CEL1     CRL2     1   0.15020000    305432.00 ; butene; from propene, yin,adm jr., 12/95
    CEL1     CRL1     1   0.15020000    200832.00 ; from CEL1  CTL2: sR12cc (c8-c39)
    CRL1      OSL     1   0.14300000    284512.00 ; From CG311  OG302

; bond parameters from toppar_c36_jul22/stream/lipid/toppar_all36_lipid_detergent.str
;      i        j  func           b0           kb
      SL     CTL2     1   0.18070000    154808.00 ; ESNA, ethyl sulfonate, xhe
     NTL      O2L     1   0.14000000    259408.00 ; NG3P0  OG312  ! TMAO, trimethylamine N-oxide, xxwy & ejd
     NTL      OHL     1   0.14000000    205016.00 ; TMAOP,
     NHL     CTL2     1   0.14300000    267776.00 ; ALLOW   ALI PEP POL ARO
    CTL2    CC301     1   0.15000000    186188.00 ; alkanes, 3/92
    CTL2        S     1   0.18180000    165686.40 ; from, S    CT2
    CTL2       CC     1   0.15220000    167360.00 ; CT2  CC
   CC301   CG2R61     1   0.14900000    192464.00 ; 

; bond parameters from toppar_c36_jul22/stream/lipid/toppar_all36_lipid_ether.str
;      i        j  func           b0           kb
    CTL2    OG301     1   0.14300000    284512.00 ; phosphate
    CTL1    OG301     1   0.14300000    284512.00 ; phosphate

; bond parameters from toppar_c36_jul22/stream/lipid/toppar_all36_lipid_lps.str
;      i        j  func           b0           kb
     OH1     CTL1     1   0.14200000    358150.40 ; OH1 CT1 ; all22 prot
   OC301       CL     1   0.13340000    125520.00 ; SL   CL ; all36 lipid
    CTL2    CC2O1     1   0.15220000    167360.00 ; CTL2 CL ; all36 lipid
   OC30P    CC331     1   0.14300000    284512.00 ; ! from CG331  OG303   340.00     1.4300 ! NA DMP, ADM Jr.
     CT2       CL     1   0.15220000    167360.00 ; from par_all36_lipid.prm CTL2  CL ! methyl acetate
     NH1       CL     1   0.13450000    309616.00 ; from par_all36_prot.prm  NH1  C  ! ALLOW   PEP POL ARO

; bond parameters from toppar_c36_jul22/stream/lipid/toppar_all36_lipid_miscellaneous.str
;      i        j  func           b0           kb
    CTL2      ON2     1   0.14300000    284512.00 ; ! from CN9  ON2,      DMP, ADM Jr.

; bond parameters from toppar_c36_jul22/stream/lipid/toppar_all36_lipid_prot.str
;      i        j  func           b0           kb
       S       CL     1   0.18160000    200832.00 ; from, CG331  SG311   240.00     1.8160 ! PROT fitted to C-S s   9/26/92 (FL)
       S    CG321     1   0.18180000    165686.40 ; from, CG321  SG311, PROT fitted to C-S s   9/26/92 (FL)
   CG321     CTL1     1   0.15380000    186188.00 ; from, CTL1  CTL2, alkanes, 3/92

; bond parameters from toppar_c36_jul22/stream/lipid/toppar_all36_lipid_sphingo.str
;      i        j  func           b0           kb
    CTL1     CEL3     1   0.14900000    209200.00 ; prot22; Ala Dipeptide ab initio calc's (LK) fixed from 10/90 (5/91); CT1-C
    CTO1     CEL3     1   0.14900000    209200.00 ; prot22; Ala Dipeptide ab initio calc's (LK) fixed from 10/90 (5/91) ; CT1-C
    CTO1     CTL1     1   0.15000000    186188.00 ; lip36; alkanes, 3/92; CTL1-CTL1
    CTO1     CTL3     1   0.15380000    186188.00 ; lip36; alkanes, 3/92; CTL1-CTL3
    CEL3     CTL2     1   0.15020000    305432.00 ; lip36; butene; from propene, yin,adm jr., 12/95; CEL1-CTL2
    CEL3     CEL3     1   0.13400000    368192.00 ; lip36; butene, yin,adm jr., 12/95; CEL1-CEL1
    CTL2        C     1   0.14900000    209200.00 ; prot22; Ala Dipeptide ab initio calc's (LK) fixed from 10/90 (5/91); CT2-C
    CTL3        C     1   0.14900000    209200.00 ; prot22; Ala Dipeptide ab initio calc's (LK) fixed from 10/90 (5/91); CT3-C
    CTO1      OHL     1   0.14200000    358150.40 ; lip36; glycerol; OHL-CTL1
    CTO1      OSL     1   0.14300000    284512.00 ; lipid ester; rmv nov 2009
    CTO1     HAL1     1   0.11110000    258571.20 ; lip36; alkanes, 3/92; CTL1-HAL1
    HEL1     CEL3     1   0.11000000    301666.40 ; lip36; propene, yin,adm jr., 12/95; HEL1-CEL1
     NHL        H     1   0.09970000    368192.00 ; prot22; Alanine Dipeptide ab initio calc's (LK); NH1-H
     NHL     CTL3     1   0.14300000    267776.00 ; prot22; NMA Gas & Liquid Phase IR Spectra (LK); NH1-CT3
     NHL        C     1   0.13450000    309616.00 ; prot22; Alanine Dipeptide ab initio calc's (LK); NH1-C
     NHL     CTL1     1   0.14300000    267776.00 ; prot22; NMA Gas & Liquid Phase IR Spectra (LK); NH1-CT1
    CTO2     HAL2     1   0.11110000    258571.20 ; lip36; alkanes, 4/98
    CTO2     CTL1     1   0.15380000    186188.00 ; lip36; alkanes, 3/92
    CTO2      OHL     1   0.14200000    358150.40 ; glycerol
    CEL3     CTL3     1   0.15040000    320494.40 ; from CG2D1  CG331   383.00     1.5040
       C     CTL1     1   0.14900000    209200.00 ; from CG2O1  CG311   250.00     1.4900

; bond parameters from toppar_c36_jul22/stream/misc/toppar_ions_won.str
;      i        j  func           b0           kb

; bond parameters from toppar_c36_jul22/stream/na/toppar_all36_na_modifications.str
;      i        j  func           b0           kb
     CN4     NN2G     1   0.13650000    292880.00 ; Inosine, adm jr. 2/94
     CN4     NN3I     1   0.12950000    376560.00 ; Inosine, adm jr. 2/94
     CN5     NN3I     1   0.13320000    292880.00 ; Inosine, adm jr. 9/98
     CN2     CN3D     1   0.14050000    217568.00 ; 5mc, adm jr. 9/9/93, from cn2 cn3
    CN3D      CN3     1   0.13350000    468608.00 ; 5mc, adm jr. 9/9/93, from cn3 cn3
    CN3D      CN9     1   0.14800000    192464.00 ; 5mc, adm jr. 9/9/93, from cn3 cn9
     CN1     NN3G     1   0.13100000    401664.00 ; from CN1 NN3 (of cyt), db 6/97
     CN1      ON5     1   0.13300000    376560.00 ; from CN6 ON5 (RIBOSE), db 6/97
     CN1     NN2C     1   0.13830000    334720.00 ; c2-n3
     CN2     NN2C     1   0.13890000    334720.00 ; c4-n3
     CN2     NN1C     1   0.13430000    464424.00 ; c4-n4
    NN1C      HN1     1   0.10000000    408358.40 ; 
    NN2C      HN2     1   0.10100000    396643.20 ; 
     NN3      CN8     1   0.13400000    334720.00 ; (Sasha)
     CNA      CNA     1   0.13750000    255224.00 ; benzene, JES 8/25/89
     CN9      CNA     1   0.14900000    192464.00 ; phe,tyr, JES 8/25/89
     CN8      CNA     1   0.14900000    192464.00 ; phe,tyr, JES 8/25/89
    CN7B      CNA     1   0.14900000    192464.00 ; phe,tyr, JES 8/25/89
     HNP      CNA     1   0.10800000    284512.00 ; phe,tyr JES 8/25/89
    CNA2      CNA     1   0.13700000    255224.00 ; benzene, JES 8/25/89
     HN3      CNA     1   0.10800000    284512.00 ; dft, adm jr.
    CNA2      FNA     1   0.13580000    334720.00 ; dft, adm jr.
    CN3T     CNE1     1   0.14750000    305432.00 ; (modified thy, Sasha)
    CNE2     HNE2     1   0.11000000    305432.00 ; (modified thy, Sasha)
    CNE2     CNE1     1   0.13420000    418400.00 ; (modified thy, Sasha)
    CNE1     HNE1     1   0.11000000    301666.40 ; (modified thy, Sasha)
     NN1      CN8     1   0.14500000    359824.00 ; 
     CN4      NN1     1   0.13780000    251040.00 ; G, adm jr. 11/97 CN4  NN2B
     NN1      CN3     1   0.14140000    255224.00 ; RETINOL PACP ! CG2R61 NG2S1
     NNG      CN8     1   0.14900000    218404.80 ; NC2  CT2   261.000     1.4900 ! ALLOW   ALI POL
     NNG      CNG     1   0.13650000    387438.40 ; NC2  C     463.000     1.3650 ! ALLOW   PEP POL ARO, NA param  360.0   1.366
     NNG      HN1     1   0.10000000    380744.00 ; NC2  HC    455.000     1.0000 ! ALLOW   POL        , NA param  488.0   1.00
     NN1     CN8B     1   0.14620000    301248.00 ; 
     NN1        P     1   0.17920000    150624.00 ; 
     NN1      HN2     1   0.10250000    361916.00 ; 
     NN1      CN7     1   0.14620000    301248.00 ; 
     ON2      HN8     1   0.09600000    456056.00 ; copied from RIBOSE, MeOH for thni
     ON5      HN7     1   0.09600000    456056.00 ; copied from RIBOSE, MeOH for n5ph
       N       CC     1   0.13500000    359824.00 ; yxu
     CT2      NN2     1   0.14580000    334720.00 ; A & C, yxu
     CT2     NN2B     1   0.14580000    334720.00 ; U & G, yxu
     HB2     CT2P     1   0.10800000    276144.00 ; mj, as in HB2 CT2 in par_all36_prot.prm
     CT2     CT2P     1   0.15300000    186188.00 ; mj, as in CT2 CT2 in par_all36_prot.prm
     CT2        N     1   0.14340000    267776.00 ; 
    CT2P        N     1   0.14340000    267776.00 ; mj, as in CT2 N by yxu
    CN7B     ON2M     1   0.14110000    279742.24 ; CG2R61 OG311 -- PROT MeOH, EMB 10/10/89,
     CN9     ON2M     1   0.14150000    301248.00 ; diethylether, alex
     CN8      CN6     1   0.15000000    334720.00 ; south/north, C6-C1/C5
     CN7      CN6     1   0.15380000    186188.00 ; north, C2-C1
    CN7E     CN8B     1   0.15160000    186188.00 ; south, C4-C5'
     CN6     CN8B     1   0.15320000    186188.00 ; south, C1-C2
     CN6      HN7     1   0.11110000    258571.20 ; south/north, only model compd, C1/C5-H
    CN7E      HN7     1   0.11050000    258571.20 ; south/north, C5-H51/C1-H11
    CN7E      CN6     1   0.15350000    334720.00 ; south/north, C1-C5
    CN7E      CN8     1   0.15000000    334720.00 ; south/north, C1/C5-C6
    CN7E     CN7E     1   0.15120000    186188.00 ; south, C4-C5
     CN7     CN7E     1   0.15100000    186188.00 ; north, C1-C2, and south, C4-C3
     CN6      NN2     1   0.14560000    184096.00 ; C1-N1/N9, A/C
     CN7      NN2     1   0.14560000    184096.00 ; C1-N1/N9, A/C
     CN6     NN2B     1   0.14580000    184096.00 ; C1-N1/N9, G/T/U
     CN7     NN2B     1   0.14580000    184096.00 ; C1-N1/N9, G/T/U
    ON6B     CN8B     1   0.14350000    267776.00 ; LNA, yxu, 12/2016
     CN5     NN2U     1   0.13830000    284512.00 ; U,T adm jr. 11/97
    NN2G      CN8     1   0.14600000    334720.00 ; 9-E-GUA, ADM JR.
    NN2G      CN9     1   0.14600000    334720.00 ; 9-E-GUA, ADM JR.
    CN1T     NN2G     1   0.13830000    284512.00 ; U,T adm jr. 11/97

; bond parameters from toppar_c36_jul22/stream/na/toppar_all36_na_nad_ppi.str
;      i        j  func           b0           kb
    CN3C      HN6     1   0.10900000    312963.20 ; nadh/ppi, jjp1/adm jr. 7/95
     CN3      HN6     1   0.10900000    292880.00 ; nadh, adm jr., 8/98
    CN1A      CN3     1   0.14800000    252713.60 ; nad/ppi, jjp1/adm jr. 7/95
    CN1A      NN1     1   0.13600000    468608.00 ; nad/ppi, jjp1/adm jr. 7/95
    CN1A      ON1     1   0.12300000    719648.00 ; nad/ppi, jjp1/adm jr. 7/95
    CN3A      CN3     1   0.13600000    376560.00 ; nad/ppi, jjp1/adm jr. 7/95
    CN3B      CN3     1   0.13500000    351456.00 ; nad/ppi, jjp1/adm jr. 7/95
    CN3C      CN3     1   0.13200000    351456.00 ; nadh/ppi, jjp1/adm jr. 7/95
     CN3      CN8     1   0.14900000    186188.00 ; nadh/ppi, jjp1/adm jr. 7/95
     CN3     HN3B     1   0.10900000    292880.00 ; nad/ppi, jjp1/adm jr. 7/95
    CN3A     HN3B     1   0.10900000    292880.00 ; nad/ppi, jjp1/adm jr. 7/95
    CN3B     HN3B     1   0.10900000    292880.00 ; nad/ppi, jjp1/adm jr. 7/95
    CN3C      HN3     1   0.10900000    312963.20 ; nadh/ppi, jjp1/adm jr. 7/95
    CN3B      NN2     1   0.13150000    351456.00 ; nad/ppi, jjp1/adm jr. 7/95
    CN3C      NN2     1   0.13550000    351456.00 ; nadh/ppi, jjp1/adm jr. 7/95

; bond parameters from toppar_c36_jul22/stream/prot/toppar_all36_prot_arg0.str
;      i        j  func           b0           kb
    CRN1     NRC4     1   0.13100000    418400.00 ; MGU1, methylguanidine
    CRN1     NRN2     1   0.14400000    376560.00 ; MGU1, methylguanidine
    CRN1     NRN1     1   0.14400000    418400.00 ; MGU2, methylguanidine2
    CR33     NRN1     1   0.14630000    213384.00 ; MGU2, methylguanidine2
    NRC4     HRP2     1   0.10000000    380744.00 ; MGU2, methylguanidine2
    CR33     NRC4     1   0.14400000    259408.00 ; RETINOL SCH1, Schiff's base, deprotonated
    CR33     HRA3     1   0.11110000    269449.60 ; PROT alkane update, adm jr., 3/2/92
    NRN1     HRM1     1   0.10190000    374719.04 ; AMINE aliphatic amines
    NRN2     HRM2     1   0.10140000    379154.08 ; AMINE aliphatic amines
    NRN1      CT2     1   0.14630000    213384.00 ; MGU2, methylguanidine2
    NRC4      CT2     1   0.14400000    259408.00 ; RETINOL SCH1, Schiff's base, deprotonated

; bond parameters from toppar_c36_jul22/stream/prot/toppar_all36_prot_c36m_d_aminoacids.str
;      i        j  func           b0           kb
    CTD1        C     1   0.14900000    209200.00 ; ALLOW   ALI PEP POL ARO
    CTD1       CC     1   0.15220000    167360.00 ; ALLOW   POL
    CTD1       CD     1   0.15220000    167360.00 ; ALLOW   POL
     CT1     CTD1     1   0.15000000    186188.00 ; ALLOW   ALI
     CT2     CTD1     1   0.15380000    186188.00 ; ALLOW   ALI
     CT3     CTD1     1   0.15380000    186188.00 ; ALLOW   ALI
    CT2A     CTD1     1   0.15380000    186188.00 ; from CT2  CT1, Zhu
      HA     CTD1     1   0.11110000    258571.20 ; ALLOW   ALI
     HB1     CTD1     1   0.10800000    276144.00 ; ALLOW   PEP
     NH1     CTD1     1   0.14300000    267776.00 ; ALLOW   ALI PEP POL ARO
     NH3     CTD1     1   0.14800000    167360.00 ; ALLOW   ALI POL
     OH1     CTD1     1   0.14200000    358150.40 ; ALLOW   ALI ALC ARO
    CPD1        C     1   0.14900000    209200.00 ; ALLOW PRO
     CP2     CPD1     1   0.15270000    186188.00 ; ALLOW PRO
     HB1     CPD1     1   0.10800000    276144.00 ; ALLOW PRO
       N     CPD1     1   0.14340000    267776.00 ; ALLOW PRO

; bond parameters from toppar_c36_jul22/stream/prot/toppar_all36_prot_fluoro_alkanes.str
;      i        j  func           b0           kb
     CF3      CT2     1   0.15200000    209200.00 ; from CF3  CT3  for TFE
      F1      CF1     1   0.13740000    351456.00 ; 
      F2      CF2     1   0.13530000    292043.20 ; 
      F3      CF3     1   0.13400000    221752.00 ; 
     CF1      CT3     1   0.15200000    142256.00 ; 
     CF2      CT3     1   0.15200000    165686.40 ; 
     CF3      CT3     1   0.15200000    209200.00 ; 
     CF1      HF1     1   0.10828000    286185.60 ; from: HA   CT3x!From CF1  HA
     CF2      HF2     1   0.10828000    289532.80 ; from: HA   CT3x!From CF2  HA

; bond parameters from toppar_c36_jul22/stream/prot/toppar_all36_prot_heme.str
;      i        j  func           b0           kb
       C        C     1   0.13350000    502080.00 ; ALLOW ARO HEM???
     CST      OST     1   0.11600000    784884.93 ; JES
      SS       FE     1   0.23200000    209200.00 ; force constant a guess
     CPB      CE1     1   0.13800000    376560.00 ; ALLOW HEM
     CPB      CPA     1   0.14432000    250872.64 ; ALLOW HEM
     CPB      CPB     1   0.13464000    285097.76 ; ALLOW HEM
     CPM      CPA     1   0.13716000    301248.00 ; ALLOW HEM
     CT2      CPB     1   0.14900000    192464.00 ; ALLOW HEM
     CT3      CPB     1   0.14900000    192464.00 ; ALLOW HEM
      FE       CM     1   0.19000000    215894.40 ; ALLOW HEM
      FE      CPM     1   0.33814000         0.00 ; ALLOW HEM
      HA      CPM     1   0.10900000    307607.68 ; ALLOW HEM
     NPH      CPA     1   0.13757000    315640.96 ; ALLOW HEM
     NPH       FE     1   0.19580000    226103.36 ; ALLOW HEM
     NR2       FE     1   0.22000000     54392.00 ; ALLOW HEM
      OM       CM     1   0.11280000    933032.00 ; ALLOW HEM
      OM       FE     1   0.18000000    209200.00 ; ALLOW HEM
      OM       OM     1   0.12300000    502080.00 ; ALLOW HEM
     OH1       FE     1   0.20000000    209200.00 ; patch PLOH

; bond parameters from toppar_c36_jul22/stream/prot/toppar_all36_prot_model.str
;      i        j  func           b0           kb
      OC       CD     1   0.12940000    263173.60 ; carbonate
      C3       C3     1   0.15010000    200832.00 ; cyclopropane
      C3      HB2     1   0.10830000    284512.00 ; cyclopropane

; bond parameters from toppar_c36_jul22/stream/prot/toppar_all36_prot_modify_res.str
;      i        j  func           b0           kb
      SS       ZN     1   0.23200000     16736.00 ; Anionic Cys-Zn bond to maintain coordination
     NR2       ZN     1   0.20700000     16736.00 ; Neutral His-Zn bond to maintain coordination
      CT        C     1   0.14900000    209200.00 ; ALLOW   ALI PEP POL ARO
     CT3       CT     1   0.15380000    186188.00 ; ALLOW   ALI
     NH1       CT     1   0.14300000    267776.00 ; ALLOW   ALI PEP POL ARO
    CT2A       CT     1   0.15380000    186188.00 ; from CT2  CT1, Zhu
     NH2       CT     1   0.14550000    200832.00 ; From LSN NH2-CT2
      CT       CC     1   0.15220000    167360.00 ; ALLOW   POL
      CT       CD     1   0.15220000    167360.00 ; ALLOW   POL
     NH3       CT     1   0.14800000    167360.00 ; ALLOW   ALI POL
     CT3        N     1   0.14340000    263592.00 ; DMA, Dimethylacetamide, xxwy
     CT2   NG2R51     1   0.14580000    334720.00 ; protrz, from CG331 NG2R51, penalty= 6
     CT2   CG2R51     1   0.15000000    192154.38 ; from CT2 CPH1, kevo
     CP2      OH1     1   0.14300000    358150.40 ; 
     HA1      CP2     1   0.11110000    258571.20 ; 
     NR1      CT3     1   0.14580000    334720.00 ; NA 9-M-G/T/U, adm jr.
     NR3      CT3     1   0.14580000    334720.00 ; NA 9-M-G/T/U, adm jr.
     CT2    CG1T1     1   0.14650000    343088.00 ; CG1T1 CG331 2BTY, 2-butyne, kevo
  CG2R64        S     1   0.17410000    219241.60 ; CG2R64 SG311 ! 2SMPYR
   NG2S3       HC     1   0.10190000    374719.04 ; NG311  HGPAM1!
     NH3   CG2R64     1   0.13700000    309616.00 ; CG2R64 NG311 ! 4MC
     CT3   CG2R51     1   0.15000000    192154.38 ; PROT his, adm jr., 7/22/89
  NG2R50      CT3     1   0.14630000    213384.00 ; MGU2
  NG2R50      CT2     1   0.14630000    213384.00 ; MGU2
   CG2O1      NH1     1   0.13450000    309616.00 ; PROT Alanine Dipeptide ab initio calc's (LK) CRQ SWG I4G SUI HT7 CRF
  CG2R51      CT1     1   0.15000000    192154.38 ; from CG2R51 CG321, PENALTY= 4 THG2 THG3
  CG2R61      CT1     1   0.14900000    192464.00 ; NAMODEL difluorotoluene 3FG FPG4 D4P PRV CHP 004 FPG2
   CG301      CT1     1   0.15000000    186188.00 ; CA, CHOLIC ACID, cacha, 03/06 I2M DMK BUG HVA
       C    NG2S0     1   0.13500000    359824.00 ; DMA, Dimethylacetamide, xxwy I4G PXU MP8 4FB HZP HYP 8LJ FP9 PRS MAA
       C    NG2S1     1   0.13450000    309616.00 ; PROT Alanine Dipeptide ab initio calc's (LK) SWG SUI HT7 CRF B2H CRO
     CT1    CG2D1     1   0.15020000    305432.00 ; from CG2D1 CG321, PENALTY= 4 LVG
     CT1   CG2R53     1   0.15000000    355640.00 ; from CG2R53 CG321, PENALTY= 4 C12
     CT1    CG311     1   0.15000000    186188.00 ; PROT alkane update, adm jr., 3/2/92 BIU CTH OLT
     CT1    CG321     1   0.15380000    186188.00 ; PROT alkane update, adm jr., 3/2/92 2MR F2F OAS
     CT1    CG322     1   0.15200000    142256.00 ; from CG322 CG331, PENALTY= 10 FVAL
     CT1    CG324     1   0.15300000    186188.00 ; FLAVOP PIP1,2,3 DPP DNP GDPR
     CT1    CG331     1   0.15380000    186188.00 ; PROT alkane update, adm jr., 3/2/92
     CT1   CG3C51     1   0.15280000    186188.00 ; TF2M, viv IGL
       C    NG2D1     1   0.14304000    284202.38 ; from CG2O1 NG2D1, XYG
  CG2R51     CTD1     1   0.15000000    192154.38 ; from CG2R51 CG321, PENALTY= 4 THG2 THG3
  CG2R61     CTD1     1   0.14900000    192464.00 ; NAMODEL difluorotoluene 3FG FPG4 D4P PRV CHP 004 FPG2
    CTD1    CG311     1   0.15000000    186188.00 ; PROT alkane update, adm jr., 3/2/92 BIU CTH OLT
    CTD1    CG321     1   0.15380000    186188.00 ; PROT alkane update, adm jr., 3/2/92 2MR F2F OAS
    CTD1    CG322     1   0.15200000    142256.00 ; from CG322 CG331, PENALTY= 10 FVAL
    CTD1    CG324     1   0.15300000    186188.00 ; FLAVOP PIP1,2,3 DPP DNP GDPR
   CG2O1        N     1   0.13000000    217568.00 ; from N C, ALLOW PEP POL ARO PRO

; bond parameters from toppar_c36_jul22/stream/prot/toppar_all36_prot_na_combined.str
;      i        j  func           b0           kb
      CA     ON2B     1   0.13800000    284512.00 ; phenol phosphate, 6/94, adm jr.
    ON2B        P     1   0.16100000    225936.00 ; phenol phosphate, 6/94, adm jr.
     CT2        P     1   0.18900000    225936.00 ; Benz.Meth.Phosphate, Sasha
     CF2       CA     1   0.14500000    165686.40 ; Benz.Difl.Phosphate
     CF2        P     1   0.18800000    225936.00 ; Benz.Difl.Phosphate
     CT1      ON2     1   0.14330000    259408.00 ; from CN7  ON2
     CT2      ON2     1   0.14400000    267776.00 ; from CN8B ON2
    CN8B        S     1   0.18160000    200832.00 ; sahc
    CN8B       SP     1   0.18160000    165686.40 ; 
     CT2       SP     1   0.18160000    165686.40 ; 
     CT3       SP     1   0.18160000    200832.00 ; 
    CN7B      NR1     1   0.14620000    184096.00 ; From crystal nucleosides A/G (NF)
       S      CN8     1   0.18180000    165686.40 ; fitted to C-S

; bond parameters from toppar_c36_jul22/stream/prot/toppar_all36_prot_retinol.str
;      i        j  func           b0           kb
     HE1     CC1A     1   0.11000000    301666.40 ; 
     HE1     CC1B     1   0.11000000    301666.40 ; 
     HE2      CC2     1   0.11000000    305432.00 ; 
    CC1A     CC1A     1   0.13400000    368192.00 ; 
    CC1B     CC1B     1   0.13400000    368192.00 ; 
    CC1A      CC2     1   0.13420000    418400.00 ; 
    CC1B      CC2     1   0.13420000    418400.00 ; 
    CC1A     CC1B     1   0.14700000    251040.00 ; 
    CC1B      CT3     1   0.15040000    320494.40 ; 
    CC1A      CT2     1   0.15020000    305432.00 ; 
    CC1A       CT     1   0.15020000    305432.00 ; 
    CC1A      CT3     1   0.15040000    320494.40 ; 
      CT      CT2     1   0.15380000    186188.00 ; 
      CA      NH1     1   0.14140000    255224.00 ; 
    CC1A       CD     1   0.14798000    251040.00 ; 
    CC1A       CC     1   0.14890000    368192.00 ; 
    CC1A        C     1   0.14890000    368192.00 ; 
     CT3      NS1     1   0.14400000    259408.00 ; 
     NS1     CC1B     1   0.12760000    418400.00 ; 
     HR1     CC1B     1   0.11000000    301666.40 ; 
     CT3      NS2     1   0.14530000    251040.00 ; 
     NS2     CC1B     1   0.12830000    393296.00 ; 
     NS2       HC     1   0.10000000    380744.00 ; 
     CT2      NS1     1   0.14400000    259408.00 ; 
     CT2      NS2     1   0.14530000    251040.00 ; 

; bond parameters from toppar_c36_jul22/top_all36_prot.rtf
;      i        j  func           b0           kb

; bond parameters from toppar_c36_jul22/toppar_water_ions.str
;      i        j  func           b0           kb
      HT       HT     1   0.15139000         0.00 ; from TIPS3P geometry (for SHAKE w/PARAM)
      HT       OT     1   0.09572000    376560.00 ; from TIPS3P geometry
      OX       HX     1   0.09700000    456056.00 ; hydroxide ion
    HPER     OPER     1   0.09630000    435972.80 ; H2O2
    OPER     OPER     1   0.14420000    238906.40 ; H2O2


[ angletypes ]

; angle parameters from 
;      i        j        k  func       theta0       ktheta          ub0          kub

; angle parameters from toppar_c36_jul22/metals/CHARMM_METAL/par_all22_prot_metals.inp
;      i        j        k  func       theta0       ktheta          ub0          kub
      HA       CA       CA     5   120.000000   242.672000   0.21525000     20920.00 ; ALLOW ARO
      HA       CA      CPT     5   122.000000   343.088000   0.00000000         0.00 ; ALLOW   ARO
      HA       CA       CY     5   125.000000   267.776000   0.21730000     20920.00 ; ALLOW   ARO
      HA      CP2      CP1     5   110.100000   279.742240   0.21790000     18853.10 ; ALLOW ALI PRO
      HA      CP2      CP2     5   110.100000   221.752000   0.21790000     18853.10 ; ALLOW ALI PRO
      HA      CP2      CP3     5   110.100000   221.752000   0.21790000     18853.10 ; ALLOW ALI PRO
      HA      CP2       HA     5   109.000000   297.064000   0.18020000      4518.72 ; ALLOW ALI PRO
      HA      CP3      CP2     5   110.100000   221.752000   0.21790000     18853.10 ; ALLOW ALI PRO
      HA      CP3       HA     5   109.000000   297.064000   0.18020000      4518.72 ; ALLOW ALI PRO
      HA       CS      CT3     5   110.100000   289.532800   0.21790000     18853.10 ; ALLOW SUL
      HA       CS       HA     5   108.400000   297.064000   0.17750000     11715.20 ; ALLOW SUL
      HA      CT1        C     5   109.500000   276.144000   0.21630000     25104.00 ; ALLOW   ALI PEP POL ARO
      HA      CT1       CD     5   109.500000   276.144000   0.21630000     25104.00 ; ALLOW   ALI PEP POL ARO
      HA      CT1      CT1     5   110.100000   288.696000   0.21790000     18853.10 ; ALLOW   ALI
      HA      CT1      CT2     5   110.100000   288.696000   0.21790000     18853.10 ; ALLOW   ALI
      HA      CT1      CT3     5   110.100000   288.696000   0.21790000     18853.10 ; ALLOW   ALI
      HA      CT1       HA     5   109.000000   297.064000   0.18020000      4518.72 ; TEST for test cpd
      HA      CT2        C     5   109.500000   276.144000   0.21630000     25104.00 ; ALLOW   ALI PEP POL ARO
      HA      CT2       CA     5   107.500000   412.542400   0.00000000         0.00 ; ALLOW   ALI ARO
      HA      CT2       CC     5   109.500000   276.144000   0.21630000     25104.00 ; ALLOW   ALI PEP POL ARO
      HA      CT2       CD     5   109.500000   276.144000   0.21630000     25104.00 ; ALLOW   ALI PEP POL ARO
      HA      CT2      CE1     5   111.500000   376.560000   0.00000000         0.00 ; 
      HA      CT2      CPB     5   109.500000   418.400000   0.00000000         0.00 ; ALLOW HEM
      HA      CT2     CPH1     5   109.500000   279.742240   0.00000000         0.00 ; ALLOW ARO
      HA      CT2      CT1     5   110.100000   279.742240   0.21790000     18853.10 ; ALLOW   ALI
      HA      CT2      CT2     5   110.100000   221.752000   0.21790000     18853.10 ; ALLOW   ALI
      HA      CT2      CT3     5   110.100000   289.532800   0.21790000     18853.10 ; ALLOW   ALI
      HA      CT2       CY     5   109.500000   279.742240   0.00000000         0.00 ; ALLOW ARO
      HA      CT2       HA     5   109.000000   297.064000   0.18020000      4518.72 ; ALLOW   ALI
      HA      CT3        C     5   109.500000   276.144000   0.21630000     25104.00 ; ALLOW   ALI PEP POL ARO
      HA      CT3       CA     5   107.500000   412.542400   0.00000000         0.00 ; ALLOW   ALI ARO
      HA      CT3       CC     5   109.500000   276.144000   0.21630000     25104.00 ; ALLOW   ALI PEP POL ARO
      HA      CT3       CD     5   109.500000   276.144000   0.21630000     25104.00 ; ALLOW   ALI PEP POL ARO
      HA      CT3      CE1     5   111.500000   351.456000   0.00000000         0.00 ; 
      HA      CT3      CPB     5   109.500000   418.400000   0.00000000         0.00 ; ALLOW HEM
      HA      CT3     CPH1     5   109.500000   279.742240   0.00000000         0.00 ; ALLOW ARO
      HA      CT3       CS     5   110.100000   289.532800   0.21790000     18853.10 ; ALLOW SUL
      HA      CT3      CT1     5   110.100000   279.742240   0.21790000     18853.10 ; ALLOW   ALI
      HA      CT3      CT2     5   110.100000   289.532800   0.21790000     18853.10 ; ALLOW   ALI
      HA      CT3      CT3     5   110.100000   313.800000   0.21790000     18853.10 ; ALLOW   ALI
      HA      CT3       HA     5   108.400000   297.064000   0.18020000      4518.72 ; ALLOW   ALI
      HA       CY       CA     5   126.400000   167.360000   0.21860000     20920.00 ; ALLOW   ARO
      HA       CY      CPT     5   126.400000   267.776000   0.22550000     20920.00 ; ALLOW   ARO
      HB      CP1        C     5   112.000000   418.400000   0.00000000         0.00 ; ALLOW PEP PRO
      HB      CP1       CC     5   112.000000   418.400000   0.00000000         0.00 ; ALLOW PEP PRO
      HB      CP1       CD     5   112.000000   418.400000   0.00000000         0.00 ; ALLOW PEP POL PRO
      HB      CP1      CP2     5   118.000000   292.880000   0.00000000         0.00 ; ALLOW PEP PRO
      HB      CT1        C     5   109.500000   418.400000   0.00000000         0.00 ; ALLOW  PEP
      HB      CT1       CC     5   109.500000   418.400000   0.00000000         0.00 ; ALLOW  PEP POL
      HB      CT1       CD     5   109.500000   418.400000   0.00000000         0.00 ; ALLOW  PEP POL
      HB      CT1      CT1     5   111.000000   292.880000   0.00000000         0.00 ; ALLOW  PEP
      HB      CT1      CT2     5   111.000000   292.880000   0.00000000         0.00 ; ALLOW  PEP
      HB      CT1      CT3     5   111.000000   292.880000   0.00000000         0.00 ; ALLOW  PEP
      HB      CT2        C     5   109.500000   418.400000   0.00000000         0.00 ; ALLOW  PEP
      HB      CT2       CC     5   109.500000   418.400000   0.00000000         0.00 ; ALLOW  PEP POL
      HB      CT2       CD     5   109.500000   418.400000   0.00000000         0.00 ; ALLOW  PEP POL
      HB      CT2       HB     5   115.000000   301.248000   0.00000000         0.00 ; ALLOW   PEP
      HB      CT3        C     5   109.500000   418.400000   0.00000000         0.00 ; ALLOW  PEP
       N      CP1       HB     5   112.000000   401.664000   0.00000000         0.00 ; ALLOW PEP PRO
       N      CP3       HA     5   108.000000   401.664000   0.00000000         0.00 ; ALLOW PEP PRO
     NC2      CT2       HA     5   107.500000   430.952000   0.00000000         0.00 ; ALLOW   ALI POL
     NC2      CT3       HA     5   107.500000   430.952000   0.00000000         0.00 ; ALLOW   ALI POL
     NH1      CT1       HB     5   108.000000   401.664000   0.00000000         0.00 ; ALLOW PEP
     NH1      CT2       HA     5   109.500000   430.952000   0.00000000         0.00 ; ALLOW   ALI PEP POL ARO
     NH1      CT2       HB     5   108.000000   401.664000   0.00000000         0.00 ; ALLOW PEP
     NH1      CT3       HA     5   109.500000   430.952000   0.00000000         0.00 ; ALLOW   ALI PEP POL ARO
     NH2       CC       HA     5   111.000000   368.192000   0.19800000     41840.00 ; ALLOW POL
     NH2      CT2       HA     5   109.500000   317.984000   0.21400000     41840.00 ; 
     NH2      CT2       HB     5   109.500000   317.984000   0.21400000     41840.00 ; 
     NH2      CT3       HA     5   109.500000   317.984000   0.21400000     41840.00 ; ALLOW POL
     NH3      CT1       HB     5   107.500000   430.952000   0.00000000         0.00 ; ALLOW   ALI POL PEP
     NH3      CT2       HA     5   107.500000   376.560000   0.21010000     29288.00 ; ALLOW   ALI POL
     NH3      CT2       HB     5   107.500000   430.952000   0.00000000         0.00 ; ALLOW   ALI POL PEP
     NH3      CT3       HA     5   107.500000   376.560000   0.21010000     29288.00 ; ALLOW   ALI POL
      NP      CP1       HB     5   107.500000   430.952000   0.00000000         0.00 ; ALLOW ALI POL PEP PRO
      NP      CP3       HA     5   109.150000   430.952000   0.00000000         0.00 ; ALLOW PEP PRO
      NY       CA       HA     5   125.000000   267.776000   0.21770000     20920.00 ; ALLOW   ARO
       O       CC       HA     5   122.000000   368.192000   0.00000000         0.00 ; ALLOW POL
      OC      CT2       HA     5   118.300000   543.920000   0.00000000         0.00 ; ALLOW  ALC
      OC      CT3       HA     5   118.300000   543.920000   0.00000000         0.00 ; ALLOW  ALC
     OH1      CT1       HA     5   108.890000   384.091200   0.00000000         0.00 ; ALLOW   ALI ALC ARO
     OH1      CT2       HA     5   108.890000   384.091200   0.00000000         0.00 ; ALLOW   ALI ALC ARO
     OH1      CT3       HA     5   108.890000   384.091200   0.00000000         0.00 ; ALLOW   ALI ALC ARO
      OS      CT2       HA     5   109.500000   502.080000   0.00000000         0.00 ; ALLOW PEP POL
      OS      CT3       HA     5   109.500000   502.080000   0.00000000         0.00 ; ALLOW PEP POL
       S      CT2       HA     5   111.300000   385.764800   0.00000000         0.00 ; ALLOW   ALI SUL ION
       S      CT3       HA     5   111.300000   385.764800   0.00000000         0.00 ; ALLOW   ALI SUL ION
      SM      CT2       HA     5   111.000000   317.984000   0.00000000         0.00 ; ALLOW   ALI SUL ION
      SM      CT3       HA     5   111.000000   317.984000   0.00000000         0.00 ; ALLOW   ALI SUL ION
      SS       CS       HA     5   112.300000   334.720000   0.00000000         0.00 ; ALLOW SUL

; angle parameters from toppar_c36_jul22/metals/CHARMM_METAL/top_all22_prot_metals.inp
;      i        j        k  func       theta0       ktheta          ub0          kub

; angle parameters from toppar_c36_jul22/par_all35_ethers.prm
;      i        j        k  func       theta0       ktheta          ub0          kub
   HCA1A    CC31A    CC31A     5   110.100000   288.696000   0.21790000     18853.10 ; alkane, 3/92
   HCA1A    CC31A    CC32A     5   110.100000   288.696000   0.21790000     18853.10 ; alkane, 3/92
   HCA1A    CC31A    CC33A     5   110.100000   288.696000   0.21790000     18853.10 ; alkane, 3/92
   HCA2A    CC32A    CC30A     5   110.100000   221.752000   0.21790000     18853.10 ; alkane, 4/98
   HCA2A    CC32A    CC31A     5   110.100000   221.752000   0.21790000     18853.10 ; alkane, 4/98
   HCA2A    CC32A    CC32A     5   110.100000   221.752000   0.21790000     18853.10 ; alkane, 4/98
   HCA2A    CC32A    CC33A     5   110.100000   289.532800   0.21790000     18853.10 ; alkane, 4/98
   HCA3A    CC33A    CC30A     5   110.100000   279.742240   0.21790000     18853.10 ; alkane, 4/98
   HCA3A    CC33A    CC31A     5   110.100000   279.742240   0.21790000     18853.10 ; alkane, 4/98
   HCA3A    CC33A    CC32A     5   110.100000   289.532800   0.21790000     18853.10 ; alkane, 4/98
   HCA3A    CC33A    CC33A     5   110.100000   313.800000   0.21790000     18853.10 ; alkane, 4/98
   HCA2A    CC32A    HCA2A     5   109.000000   297.064000   0.18020000      4518.72 ; alkane, 3/92
   HCA3A    CC33A    HCA3A     5   108.400000   297.064000   0.18020000      4518.72 ; alkane, 3/92
   CC30A    CC32A    CC32A     5   113.500000   488.272800   0.25610000      9338.69 ; glycerol
   CC30A    CC32A    CC33A     5   113.500000   488.272800   0.25610000      9338.69 ; glycerol
   CC31A    CC31A    CC31A     5   111.000000   446.432800   0.25610000      6694.40 ; alkane, 3/92
   CC31A    CC31A    CC32A     5   113.500000   488.272800   0.25610000      9338.69 ; glycerol
   CC31A    CC31A    CC33A     5   108.500000   446.432800   0.25610000      6694.40 ; alkane, 3/92
   CC31A    CC32A    CC31A     5   113.500000   488.272800   0.25610000      9338.69 ; glycerol
   CC31A    CC32A    CC32A     5   113.500000   488.272800   0.25610000      9338.69 ; glycerol
   CC31A    CC32A    CC33A     5   113.500000   488.272800   0.25610000      9338.69 ; glycerol
   CC32A    CC30A    CC32A     5   113.500000   488.272800   0.25610000      9338.69 ; glycerol
   CC32A    CC31A    CC32A     5   113.500000   488.272800   0.25610000      9338.69 ; glycerol
   CC32A    CC32A    CC32A     5   113.600000   488.272800   0.25610000      9338.69 ; alkane, 3/92
   CC32A    CC32A    CC33A     5   115.000000   485.344000   0.25610000      6694.40 ; alkane, 3/92
   CC33A    CC30A    CC33A     5   114.000000   446.432800   0.25610000      6694.40 ; alkane 3/2/92
   CC33A    CC31A    CC32A     5   114.000000   446.432800   0.25610000      6694.40 ; alkane 3/2/92
   CC33A    CC31A    CC33A     5   114.000000   446.432800   0.25610000      6694.40 ; alkane 3/2/92
   CC33A    CC32A    CC33A     5   114.000000   446.432800   0.25610000      6694.40 ; alkane 3/2/92
  CC325A   CC325A   CC325A     5   106.000000   485.344000   0.25610000      9338.69 ; CPEN 10/17/05 viv
  HCA25A   CC325A   CC325A     5   111.400000   292.880000   0.21790000     18853.10 ; CPEN 10/17/05 viv
  HCA25A   CC325A   HCA25A     5   106.800000   322.168000   0.18020000      4518.72 ; CPEN 10/17/05 viv
  HCA25A   CC325B   CC325B     5   111.400000   292.880000   0.21790000     18853.10 ; TF2M, viv
  HCA25A   CC325B   HCA25A     5   106.800000   322.168000   0.18020000      4518.72 ; THF, 10/17/05 viv
  CC325B   CC325B   CC325B     5   109.500000   485.344000   0.25610000      9338.69 ; THF, nucleotide CSD/NDB survey, 05/30/06, viv
  OC305A   CC325B   CC325B     5   111.100000   376.560000   0.00000000         0.00 ; THF 10/21/05, viv
  CC325B   OC305A   CC325B     5   111.000000   794.960000   0.00000000         0.00 ; THF 10/21/05, viv
  HCA25A   CC325B   OC305A     5   107.300000   585.760000   0.00000000         0.00 ; THF 10/21/05, viv
   HCA3A    CC33A   CC325B     5   110.100000   289.532800   0.21790000     18853.10 ; TF2M viv
  CC325B   CC325B    CC33A     5   115.000000   485.344000   0.25610000      6694.40 ; TF2M viv
  HCA25A   CC325B    CC33A     5   110.100000   289.532800   0.21790000     18853.10 ; TF2M viv
  OC305A   CC325B    CC33A     5   111.500000   376.560000   0.00000000         0.00 ; TF2M, viv
   CC32A    OC30A    CC32A     5   109.700000   794.960000   0.00000000         0.00 ; DEET, diethylether, alex
   CC33A    OC30A    CC32A     5   109.700000   794.960000   0.00000000         0.00 ; DEET, diethylether, alex
   CC33A    OC30A    CC33A     5   109.700000   794.960000   0.00000000         0.00 ; DEET, diethylether, alex
   OC30A    CC32A    CC32A     5   111.500000   376.560000   0.00000000         0.00 ; DEET, diethylether, alex
   OC30A    CC32A    CC33A     5   111.500000   376.560000   0.00000000         0.00 ; DEET, diethylether, alex
   HCA3A    CC33A    OC30A     5   109.500000   502.080000   0.00000000         0.00 ; phosphate, alex
   HCA2A    CC32A    OC30A     5   109.500000   502.080000   0.00000000         0.00 ; phosphate, alex
   HCA2A   CC326A   CC326A     5   110.100000   288.696000   0.21790000     18853.10 ; THP, sng cyclohexane 12/05
   HCA2A   CC326A    HCA2A     5   109.000000   297.064000   0.18020000      4518.72 ; THP, viv
  CC326A   CC326A   CC326A     5   112.000000   488.272800   0.25610000      9338.69 ; THP, sng cyclohexane 12/05
   OC30A   CC326A   CC326A     5   111.500000   376.560000   0.00000000         0.00 ; THP, viv
  CC326A    OC30A   CC326A     5   109.700000   794.960000   0.00000000         0.00 ; THP, viv
   HCA2A   CC326A    OC30A     5   109.500000   376.560000   0.00000000         0.00 ; THP, sng 02/06

; angle parameters from toppar_c36_jul22/par_all36_carb.prm
;      i        j        k  func       theta0       ktheta          ub0          kub
   CC311    CC311    CC321     5   111.000000   446.432800   0.25610000      6694.40 ; par22 CT2 CT1 CT1
   CC322    CC312    CC322     5   111.000000   376.560000   0.00000000         0.00 ; adm 11/08, glycerol
   CC312    CC312    CC322     5   111.000000   376.560000   0.00000000         0.00 ; adm 11/08, glycerol
   CC312    CC2O3    OC2D3     5   121.500000   627.600000   0.00000000         0.00 ; ketone, par22 O    CD   CT2
   CC331    CC2O3    OC2D3     5   121.500000   627.600000   0.00000000         0.00 ; ketone, par22 aldehydes.str
   CC322    CC2O3    OC2D3     5   121.500000   627.600000   0.00000000         0.00 ; ketone, par22 O    CD   CT2
   CC331    CC2O3    CC331     5   116.000000   292.880000   0.00000000         0.00 ; ketone, C-C-C
   CC312    CC2O3    CC322     5   116.000000   292.880000   0.00000000         0.00 ; ketone
   CC322    CC2O3    CC322     5   116.000000   292.880000   0.00000000         0.00 ; ketone
   CC312    CC312    CC2O3     5   113.800000   502.080000   0.00000000         0.00 ; ketone, par22 str  CT3  CT2  CD
   CC2O3    CC331     HCA3     5   109.500000   418.400000   0.00000000         0.00 ; ketone
   CC2O3    CC322     HCA2     5   109.500000   418.400000   0.00000000         0.00 ; ketone, par22 HB   CT2  CD
    HCA1    CC312    CC2O3     5   109.500000   418.400000   0.00000000         0.00 ; ketone, par22 HB   CT1  CD
   OC311    CC312    CC2O3     5   108.890000   460.240000   0.00000000         0.00 ; ketone, og 1/06 EtOH NIST IR fit
   CC2O3    CC322    OC311     5   108.890000   460.240000   0.00000000         0.00 ; ketone, og 1/06 EtOH NIST IR fit
   OC2D4    CC2O4     HCR1     5   118.000000   543.920000   0.00000000         0.00 ; acetaldehyde, adm
    HCR1    CC2O4    CC331     5   116.000000   543.920000   0.00000000         0.00 ; acetaldehyde, adm
    HCR1    CC2O4    CC312     5   116.000000   543.920000   0.00000000         0.00 ; acetaldehyde, adm
   CC312    CC2O4    OC2D4     5   126.000000   376.560000   0.00000000         0.00 ; acetaldehyde, adm
   CC331    CC2O4    OC2D4     5   126.000000   376.560000   0.00000000         0.00 ; acetaldehyde, adm
   CC312    CC312    CC2O4     5   113.800000   502.080000   0.00000000         0.00 ; aldehyde, par22 CT3 CT2  CD
   OC311    CC312    CC2O4     5   108.890000   460.240000   0.00000000         0.00 ; aldehyde, og 1/06 EtOH NIST IR fit
   CC2O4    CC312     HCA1     5   109.500000   276.144000   0.21630000     25104.00 ; acetaldehyde, adm
   CC2O4    CC331     HCA3     5   109.500000   276.144000   0.21630000     25104.00 ; acetaldehyde, adm
  CC3161   CC3161   CC3161     5   111.000000   446.432800   0.25610000      6694.40 ; par22 CT1 CT1 CT1
  CC3261   CC3161   CC3161     5   111.000000   446.432800   0.25610000      6694.40 ; par22 CT2 CT1 CT1
  CC3161   CC3161   CC3163     5   111.000000   446.432800   0.25610000      6694.40 ; par22 CT1 CT1 CT1
  CC3161   CC3161   CC3263     5   111.000000   446.432800   0.25610000      6694.40 ; par22 CT1 CT1 CT1; erh transferred by analogy
   CC312    CC312    CC312     5   111.000000   376.560000   0.00000000         0.00 ; adm 11/08, glycerol
  CC3162   CC3161   CC3161     5   111.000000   446.432800   0.25610000      6694.40 ; par22 CT1 CT1 CT1
  CC3163    CC312    CC312     5   111.000000   446.432800   0.25610000      6694.40 ; par22 CT1 CT1 CT1
  CC3062   CC3261   CC3161     5   113.500000   488.272800   0.25610000      9338.69 ; par22 CT1 CT2 CT1
  CC3161   CC3163    CC321     5   113.500000   488.272800   0.25610000      9338.69 ; sng
  CC3161   CC3163    CC312     5   113.500000   488.272800   0.25610000      9338.69 ; from CC3161 CC3163 CC321
  CC3161   CC3163    CC331     5   113.500000   488.272800   0.25610000      9338.69 ; CC3161 CC3163 CC321 og xylose xtal ok
   CC2O2    CC311    CC331     5   108.000000   435.136000   0.00000000         0.00 ; par22 CT3  CT1  CC
   CC2O2   CC3163   CC3161     5   108.000000   435.136000   0.00000000         0.00 ; par22 CT1  CT1  CC
   CC2O2    CC301    CC331     5   112.000000   435.136000   0.00000000         0.00 ; og amol mp2/6-31g*
   CC2O2   CC3062   CC3261     5   112.000000   435.136000   0.00000000         0.00 ; from CC2O2 CC301 CC331 for ne5ac
   CC321    CC321    CC321     5   113.600000   488.272800   0.25610000      9338.69 ; par22 CT2 CT2 CT2
   CC331    CC321    CC321     5   115.000000   485.344000   0.25610000      6694.40 ; par22 CT3 CT2 CT2
   CC331    CC311    CC331     5   114.000000   446.432800   0.25610000      6694.40 ; par22 CT3 CT1 CT3
  CC321C   CC321C   CC321C     5   112.000000   488.272800   0.25610000      9338.69 ; sng cyclohexane 12/05
  CC321C   CC311C   CC321C     5   112.000000   488.272800   0.25610000      9338.69 ; sng cyclohexane 12/05
  CC321D   CC321C   CC311C     5   112.000000   488.272800   0.25610000      9338.69 ; sng cyclohexane 12/05
  CC321D   CC311C   CC321C     5   112.000000   488.272800   0.25610000      9338.69 ; sng cyclohexane 12/05
  CC321D   CC321C   CC321C     5   112.000000   488.272800   0.25610000      9338.69 ; sng cyclohexane 12/05
  CC311D   CC321C   CC321C     5   112.000000   488.272800   0.25610000      9338.69 ; sng cyclohexane 12/05
  CC311C   CC321C   CC321C     5   112.000000   488.272800   0.25610000      9338.69 ; sng cyclohexane 12/05
  CC321C   CC321D   CC321C     5   112.000000   488.272800   0.25610000      9338.69 ; sng cyclohexane 12/05
   CC321   CC311C   CC321C     5   113.500000   488.272800   0.25610000      9338.69 ; from CC3161 CC3163 CC321
   CC2O2    CC321    CC331     5   108.000000   435.136000   0.00000000         0.00 ; par22 CT2  CT2  CC
   CC312    CC312     HCA1     5   110.100000   288.696000   0.21790000     18853.10 ; par22 HA  CT1 CT1
   CC312   CC3163     HCA1     5   110.100000   288.696000   0.21790000     18853.10 ; par22 HA  CT1 CT1
  CC3161   CC3161     HCA1     5   110.100000   288.696000   0.21790000     18853.10 ; par22 HA  CT1 CT1
  CC3161   CC3162     HCA1     5   110.100000   288.696000   0.21790000     18853.10 ; par22 HA  CT1 CT1
  CC3261   CC3161     HCA1     5   110.100000   288.696000   0.21790000     18853.10 ; par22 HA  CT1 CT2
  CC3162   CC3161     HCA1     5   110.100000   288.696000   0.21790000     18853.10 ; par22 HA  CT1 CT1
  CC3163   CC3161     HCA1     5   110.100000   288.696000   0.21790000     18853.10 ; par22 HA  CT1 CT1
  CC3161   CC3163     HCA1     5   110.100000   288.696000   0.21790000     18853.10 ; par22 HA  CT1 CT1
  CC3163    CC312     HCA1     5   110.100000   288.696000   0.21790000     18853.10 ; par22 HA  CT1 CT1
   CC322    CC312     HCA1     5   110.100000   288.696000   0.21790000     18853.10 ; par22 HA  CT1 CT2
   CC321   CC3163     HCA1     5   110.100000   288.696000   0.21790000     18853.10 ; par22 HA  CT1 CT2
   CC331    CC311     HCA1     5   110.100000   288.696000   0.21790000     18853.10 ; par22 HA  CT1 CT3
   CC331   CC3163     HCA1     5   110.100000   288.696000   0.21790000     18853.10 ; par22 HA  CT1 CT3
  CC3263   CC3161     HCA1     5   110.100000   288.696000   0.21790000     18853.10 ; par22 HA  CT1 CT2
   CC321    CC311     HCA1     5   110.100000   288.696000   0.21790000     18853.10 ; par22 HA  CT1 CT2
   CC312    CC322     HCA2     5   110.100000   279.742240   0.21790000     18853.10 ; par22 HA  CT2 CT1
  CC3163    CC321     HCA2     5   110.100000   279.742240   0.21790000     18853.10 ; par22 HA  CT2 CT1
  CC3062   CC3261     HCA2     5   110.100000   279.742240   0.21790000     18853.10 ; par22 HA  CT2 CT1
  CC3161   CC3261     HCA2     5   110.100000   279.742240   0.21790000     18853.10 ; par22 HA  CT2 CT1
   CC311    CC321     HCA2     5   110.100000   279.742240   0.21790000     18853.10 ; par22 HA  CT2 CT1
  CC3161   CC3263     HCA2     5   110.100000   279.742240   0.21790000     18853.10 ; par22 HA  CT2 CT1
  CC3163    CC331     HCA3     5   110.100000   279.742240   0.21790000     18853.10 ; par22 HA  CT3 CT1
   CC311    CC331     HCA3     5   110.100000   279.742240   0.21790000     18853.10 ; par22 HA  CT3 CT1
   CC301    CC331     HCA3     5   110.100000   279.742240   0.21790000     18853.10 ; par22 HA  CT3 CT1
   CC2O2   CC3163     HCA1     5   109.500000   418.400000   0.00000000         0.00 ; par 22 HB   CT1  CC
   CC2O2    CC311     HCA1     5   109.500000   418.400000   0.00000000         0.00 ; par 22 HB   CT1  CC
   CC2O1    CC331     HCA3     5   109.500000   276.144000   0.21630000     25104.00 ; par22 HA  CT3 C
    HCA1   CC311C    CC321     5   110.100000   288.696000   0.21790000     18853.10 ; par22 HA   CT1  CT2
    HCA1   CC311D   CC321C     5   110.100000   288.696000   0.21790000     18853.10 ; par22 HA   CT1  CT2
    HCA1   CC311C   CC321C     5   110.100000   288.696000   0.21790000     18853.10 ; par22 HA   CT1  CT2
    HCA1   CC311C   CC321D     5   110.100000   288.696000   0.21790000     18853.10 ; par22 HA   CT1  CT2
    HCA2    CC321   CC311C     5   110.100000   279.742240   0.21790000     18853.10 ; par22 HA   CT2  CT1
    HCA2    CC321    CC321     5   110.100000   221.752000   0.21790000     18853.10 ; par22 HA   CT2  CT2
    HCA2    CC321    CC331     5   110.100000   289.532800   0.21790000     18853.10 ; par22 HA   CT2  CT3
    HCA3    CC331    CC321     5   110.100000   289.532800   0.21790000     18853.10 ; par22 HA   CT3  CT2
    HCA2   CC321C   CC321C     5   110.100000   288.696000   0.21790000     18853.10 ; sng cyclohexane 12/05
    HCA2   CC321D   CC321C     5   110.100000   288.696000   0.21790000     18853.10 ; sng cyclohexane 12/05
    HCA2   CC321C   CC321D     5   110.100000   288.696000   0.21790000     18853.10 ; sng cyclohexane 12/05
    HCA2   CC321C   CC311D     5   110.100000   288.696000   0.21790000     18853.10 ; sng cyclohexane 12/05
    HCA2   CC321C   CC311C     5   110.100000   288.696000   0.21790000     18853.10 ; sng cyclohexane 12/05
    HCA2   CC321D   CC311C     5   110.100000   288.696000   0.21790000     18853.10 ; sng cyclohexane 12/05
   CC2O2    CC321     HCA2     5   109.500000   276.144000   0.21630000     25104.00 ; par22 HA   CT2  CC
  CC3161   CC3161    NC2D1     5   113.500000   585.760000   0.00000000         0.00 ; par22 NH1  CT1  CT1
  CC3162   CC3161    NC2D1     5   113.500000   585.760000   0.00000000         0.00 ; par22 NH1  CT1  CT1
  CC3163   CC3161    NC2D1     5   113.500000   585.760000   0.00000000         0.00 ; par22 NH1  CT1  CT1
   CC331    CC311    NC2D1     5   113.500000   585.760000   0.00000000         0.00 ; par22 NH1  CT1  CT3
   NC2D1    CC2O1    CC331     5   116.500000   669.440000   0.00000000         0.00 ; par22 NH1  C    CT3
  CC3161    NC2D1    CC2O1     5   120.000000   418.400000   0.00000000         0.00 ; par22 CT1  NH1  C
   CC2O1    NC2D1    CC311     5   120.000000   418.400000   0.00000000         0.00 ; par22 CT1  NH1  C
   CC2O1    NC2D1    CC331     5   120.000000   418.400000   0.00000000         0.00 ; par22 CT3  NH1  C
   NC2D1    CC2O1    OC2D1     5   122.500000   669.440000   0.00000000         0.00 ; par22 O    C    NH1
   NC2D1   CC3161     HCA1     5   108.000000   401.664000   0.00000000         0.00 ; par22 NH1  CT1  HB
   NC2D1    CC311     HCA1     5   108.000000   401.664000   0.00000000         0.00 ; par22 NH1  CT1  HB
   NC2D1    CC331     HCA3     5   109.500000   430.952000   0.00000000         0.00 ; par22 NH1  CT3  HA
    HCP1    NC2D1    CC2O1     5   123.000000   284.512000   0.00000000         0.00 ; par22 H    NH1  C
  CC3161    NC2D1     HCP1     5   117.000000   292.880000   0.00000000         0.00 ; par22 H    NH1  CT1
    HCP1    NC2D1    CC311     5   117.000000   292.880000   0.00000000         0.00 ; par22 H    NH1  CT1
    HCP1    NC2D1    CC331     5   117.000000   292.880000   0.00000000         0.00 ; par22 H    NH1  CT3
    HCA2    CC321     HCA2     5   109.000000   297.064000   0.18020000      4518.72 ; par22 HA  CT2 HA
    HCA2    CC322     HCA2     5   109.000000   297.064000   0.18020000      4518.72 ; par22 HA  CT2 HA
    HCA2   CC321C     HCA2     5   109.000000   297.064000   0.18020000      4518.72 ; par22 HA  CT2 HA
    HCA2   CC321D     HCA2     5   109.000000   297.064000   0.18020000      4518.72 ; par22 HA  CT2 HA
    HCA2   CC3261     HCA2     5   109.000000   297.064000   0.18020000      4518.72 ; par22 HA  CT2 HA
    HCA2   CC3263     HCA2     5   109.000000   297.064000   0.18020000      4518.72 ; par22 HA  CT2 HA
    HCA3    CC331     HCA3     5   108.400000   297.064000   0.18020000      4518.72 ; par22 HA  CT3 HA
  CC3161   CC3163   OC3C61     5   110.000000   376.560000   0.00000000         0.00 ; sng mod (qm and crystal data)
  CC3161   CC3263   OC3C61     5   110.000000   376.560000   0.00000000         0.00 ; CC3161 CC3163 OC3C61 + og xtal xylose
  CC3161   CC3162   OC3C61     5   106.000000   376.560000   0.00000000         0.00 ; og crystal analysis
  OC3C61   CC3062   CC3261     5   111.500000   376.560000   0.00000000         0.00 ; og xtal kemyac
   CC321   CC3163   OC3C61     5   109.000000   376.560000   0.00000000         0.00 ; sng mod (qm and crystal data) II
   CC312   CC3163   OC3C61     5   109.000000   376.560000   0.00000000         0.00 ; from C321 CC3163 OC3C61
   CC331   CC3163   OC3C61     5   111.500000   376.560000   0.00000000         0.00 ; par34 OC30A    CC32A    CC33A
   CC2O2    CC311    OC301     5   103.000000   376.560000   0.00000000         0.00 ; og amop mp2/631gd
   CC2O2   CC3163   OC3C61     5   103.000000   376.560000   0.00000000         0.00 ; og amop mp2/631gd + xtals
   CC2O2    CC301    OC301     5   103.000000   376.560000   0.00000000         0.00 ; from CC2O2 CC311 OC301; og amol ok
   CC2O2   CC3062    OC301     5   103.000000   376.560000   0.00000000         0.00 ; from CC2O2   CC301   OC301
   CC2O2   CC3062   OC3C61     5   103.000000   376.560000   0.00000000         0.00 ; from CC2O2 CC301 OC301
  CC3161   CC3162    OC311     5   107.000000   633.457600   0.00000000         0.00 ; sng mod (qm and crystal data) III
   CC312    CC312    OC311     5   108.000000   633.457600   0.00000000         0.00 ; adm 11/08, glycerol
  CC3161   CC3161    OC311     5   110.100000   633.457600   0.00000000         0.00 ; par22 OH1  CT1  CT1
  CC3261   CC3161    OC311     5   110.100000   633.457600   0.00000000         0.00 ; par22 OH1  CT1  CT1
  CC3162   CC3161    OC311     5   110.100000   633.457600   0.00000000         0.00 ; par22 OH1  CT1  CT1
  CC3163   CC3161    OC311     5   110.100000   633.457600   0.00000000         0.00 ; par22 OH1  CT1  CT1
  CC3163    CC312    OC311     5   110.100000   633.457600   0.00000000         0.00 ; par22 OH1  CT1  CT1
  CC3263   CC3161    OC311     5   110.100000   633.457600   0.00000000         0.00 ; par22 OH1  CT1  CT1
   CC312    CC322    OC311     5   106.000000   418.400000   0.00000000         0.00 ; adm 11/08, glycerol
  CC3163    CC321    OC311     5   110.100000   633.457600   0.00000000         0.00 ; par22 OH1  CT2  CT1
   CC311    CC321    OC311     5   110.100000   633.457600   0.00000000         0.00 ; par22 OH1  CT2  CT1
   CC321    CC311    OC311     5   110.100000   633.457600   0.00000000         0.00 ; par22 OH1  CT1  CT1/CT3
   CC322    CC312    OC311     5   108.000000   633.457600   0.00000000         0.00 ; adm 11/08, glycerol
   CC331    CC301    OC311     5   113.000000   633.457600   0.00000000         0.00 ; og amol mp2/631g*
  CC3261   CC3062    OC311     5   113.000000   633.457600   0.00000000         0.00 ; from CC331 CC301  OC311  for ne5ac
   CC2O2    CC301    OC311     5   110.100000   633.457600   0.00000000         0.00 ; par22 OH1  CT1  CT3; og amol ok
   CC2O2   CC3062    OC311     5   110.100000   633.457600   0.00000000         0.00 ; from CC2O2 CC301 OC311 for ne5ac
  CC3163    CC2O2    OC2D2     5   114.000000   334.720000   0.23880000     41840.00 ; og amop amol and xtals
  CC3062    CC2O2    OC2D2     5   114.000000   334.720000   0.23880000     41840.00 ; og amop amol and xtals
   CC311    CC2O2    OC2D2     5   114.000000   334.720000   0.23880000     41840.00 ; og amop amol and xtals
   CC301    CC2O2    OC2D2     5   114.000000   334.720000   0.23880000     41840.00 ; og amop amol and xtals
   CC321    CC2O2    OC2D2     5   114.000000   334.720000   0.23880000     41840.00 ; og amop amol and xtals
   OC2D1    CC2O1    CC331     5   121.000000   669.440000   0.00000000         0.00 ; par22 O    C    CT3
   OC301    CC311    CC331     5   111.500000   376.560000   0.00000000         0.00 ; par35 OC30A CC32A  CC33A
   OC301    CC321    CC321     5   111.500000   376.560000   0.00000000         0.00 ; par35 OC30A CC32A  CC32A
   OC301    CC301    CC331     5   109.000000   376.560000   0.00000000         0.00 ; og amol mp2/631g*
  OC3C61   CC311C    CC321     5   109.000000   376.560000   0.00000000         0.00 ; from CC321 CC3163 OC3C61
  OC3C61   CC311C   CC321C     5   111.500000   376.560000   0.00000000         0.00 ; par34 OC30A CC326A CC326A
  OC3C61   CC321C   CC321C     5   111.500000   376.560000   0.00000000         0.00 ; par34 OC30A CC326A CC326A
  OC3C61   CC321C   CC311C     5   111.500000   376.560000   0.00000000         0.00 ; par34 OC30A CC326A CC326A
  OC3C61   CC321D   CC321C     5   111.500000   376.560000   0.00000000         0.00 ; par34 OC30A CC326A CC326A
  OC3C61   CC321D   CC311C     5   111.500000   376.560000   0.00000000         0.00 ; par34 OC30A CC326A CC326A
  OC3C61   CC311D   CC321C     5   111.500000   376.560000   0.00000000         0.00 ; par34 OC30A CC326A CC326A
   OC301   CC311D   CC321C     5   109.000000   376.560000   0.00000000         0.00 ; og OMeTHP qm compounds 2 and 3
   OC301   CC3162   CC3161     5   105.000000   376.560000   0.00000000         0.00 ; og/rmv disac crystal analysis
   OC301   CC3062   CC3261     5   105.000000   376.560000   0.00000000         0.00 ; from OC301   CC3162  CC3161
   OC302   CC311D   CC321C     5   109.000000   376.560000   0.00000000         0.00 ; og OMeTHP qm compounds 2 and 3
   OC302   CC3162   CC3161     5   105.000000   376.560000   0.00000000         0.00 ; og/rmv disac crystal analysis
   OC301   CC311C   CC321C     5   109.000000   376.560000   0.00000000         0.00 ; og OMeTHP qm compounds 2 and 3
   OC301   CC3161   CC3161     5   109.000000   376.560000   0.00000000         0.00 ; og OMeTHP qm compounds 2 and 3
   OC301   CC3161   CC3163     5   109.000000   376.560000   0.00000000         0.00 ; og OMeTHP qm compounds 2 and 3
   OC301   CC311C   CC321D     5   109.000000   376.560000   0.00000000         0.00 ; og OMeTHP qm compounds 2 and 3
   OC301   CC3161   CC3162     5   109.000000   376.560000   0.00000000         0.00 ; og OMeTHP qm compounds 2 and 3
   OC301    CC321   CC311C     5   106.000000   376.560000   0.00000000         0.00 ; og fit compounds 11 and 12
   OC301    CC321   CC3163     5   106.000000   376.560000   0.00000000         0.00 ; og fit compounds 11 and 12
   CC321    CC321   OC311M     5   110.100000   633.457600   0.00000000         0.00 ; From CN7  CN8B  ON5
   CC331    CC321   OC311M     5   110.100000   633.457600   0.00000000         0.00 ; par22 OH1 CT2 CT3
   CC331    CC311   OC311M     5   110.100000   633.457600   0.00000000         0.00 ; par22 OH1 CT2 CT3
  CC3161    OC311     HCP1     5   109.000000   418.400000   0.00000000         0.00 ; sng mod (qm and crystal data) II
   CC321    OC311     HCP1     5   109.000000   418.400000   0.00000000         0.00 ; sng mod (qm and crystal data)
  CC3162    OC311     HCP1     5   109.000000   418.400000   0.00000000         0.00 ; sng mod (qm and crystal data) II
  CC3062    OC311     HCP1     5   109.000000   418.400000   0.00000000         0.00 ; from CC3162 OC311  HCP1 for ne5ac
    HCP1    OC311    CC311     5   106.000000   418.400000   0.00000000         0.00 ; og 1/06 EtOH IR fit
    HCP1    OC311    CC312     5   106.000000   418.400000   0.00000000         0.00 ; og 1/06 EtOH IR fit
    HCP1    OC311    CC301     5   106.000000   418.400000   0.00000000         0.00 ; og 1/06 EtOH IR fit
    HCP1    OC311    CC322     5   106.000000   418.400000   0.00000000         0.00 ; og 1/06 EtOH IR fit
    HCP1   OC311M    CC321     5   106.000000   418.400000   0.00000000         0.00 ; og 1/06 EtOH IR fit
   HCP1M   OC311M    CC321     5   106.000000   418.400000   0.00000000         0.00 ; og 1/06 EtOH IR fit for egly
    HCP1   OC311M    CC311     5   106.000000   418.400000   0.00000000         0.00 ; og 1/06 EtOH IR fit
    HCP1   OC311M    CC331     5   106.000000   481.160000   0.00000000         0.00 ; par22 H OH1 CT3
   OC311   CC3162   OC3C61     5   116.500000   376.560000   0.00000000         0.00 ; og crystal analysis
   OC311    CC301    OC301     5   116.500000   376.560000   0.00000000         0.00 ; OC311 CC3162 OC3C61; og amol ok
   OC311   CC3062   OC3C61     5   113.000000   376.560000   0.00000000         0.00 ; og xtal kemyac
   OC2D2    CC2O2    OC2D2     5   132.000000   836.800000   0.22250000     58576.00 ; og amop amol and xtals
   OC301   CC311D   OC3C61     5   110.000000   753.120000   0.00000000         0.00 ; og OMeTHP qm compounds 2 and 3
   OC301   CC3162   OC3C61     5   112.000000   753.120000   0.00000000         0.00 ; og/rmv disac crystal analysis
   OC301   CC3062   OC3C61     5   112.000000   753.120000   0.00000000         0.00 ; from OC301   CC3162  OC3C61
   OC302   CC311D   OC3C61     5   110.000000   753.120000   0.00000000         0.00 ; og OMeTHP qm compounds 2 and 3
   OC302   CC3162   OC3C61     5   112.000000   753.120000   0.00000000         0.00 ; og/rmv disac crystal analysis
  CC3163   OC3C61   CC3162     5   109.700000   794.960000   0.00000000         0.00 ; par35 CC326A OC30A CC326A
  CC3163   OC3C61   CC3062     5   109.700000   794.960000   0.00000000         0.00 ; par35 CC326A OC30A CC326A
  CC3263   OC3C61   CC3162     5   109.700000   794.960000   0.00000000         0.00 ; par35 CC326A OC30A CC326A
   CC311    OC301    CC331     5   109.700000   794.960000   0.00000000         0.00 ; par35 CC32A  OC30A CC32A
   CC301    OC301    CC331     5   109.700000   794.960000   0.00000000         0.00 ; par35 CC33A  OC30A CC32A
  CC321C   OC3C61   CC321C     5   109.700000   794.960000   0.00000000         0.00 ; par35 CC326A OC30A CC326A
  CC321D   OC3C61   CC321C     5   109.700000   794.960000   0.00000000         0.00 ; par35 CC326A OC30A CC326A
  CC321D   OC3C61   CC311C     5   109.700000   794.960000   0.00000000         0.00 ; par35 CC326A OC30A CC326A
  CC311D   OC3C61   CC321C     5   109.700000   794.960000   0.00000000         0.00 ; par35 CC326A OC30A CC326A
  CC311D    OC301    CC331     5   109.700000   794.960000   0.00000000         0.00 ; par35 CC33A  OC30A CC32A
  CC3162    OC301    CC331     5   109.700000   794.960000   0.00000000         0.00 ; par35 CC33A  OC30A CC32A
  CC3162    OC301    CC321     5   109.700000   794.960000   0.00000000         0.00 ; par35 CC33A  OC30A CC32A
   CC321    OC301    CC331     5   109.700000   794.960000   0.00000000         0.00 ; par35 CC33A  OC30A CC32A
  CC311D    OC302   CC311D     5   111.500000   418.400000   0.00000000         0.00 ; og QM theta vs phi/psi comp 4 to 6
  CC3162    OC302   CC3162     5   111.500000   418.400000   0.00000000         0.00 ; og QM theta vs phi/psi comp 4 to 6
  CC311C    OC301   CC311D     5   109.200000   418.400000   0.00000000         0.00 ; og QM theta vs phi/psi comp 7 to 10
  CC3161    OC301   CC3162     5   109.200000   418.400000   0.00000000         0.00 ; og QM theta vs phi/psi comp 7 to 10
  CC3161    OC301   CC3062     5   109.200000   418.400000   0.00000000         0.00 ; from CC3161  OC301   CC3162
    HCA1    CC312    OC311     5   108.890000   460.240000   0.00000000         0.00 ; og 1/06 EtOH NIST IR fit
    HCA1   CC3161    OC311     5   108.890000   460.240000   0.00000000         0.00 ; og 1/06 EtOH NIST IR fit
    HCA1   CC3162    OC311     5   108.890000   460.240000   0.00000000         0.00 ; og 1/06 EtOH NIST IR fit
    HCA1   CC3163    OC311     5   108.890000   460.240000   0.00000000         0.00 ; og 1/06 EtOH NIST IR fit
    HCA2    CC321    OC311     5   108.890000   460.240000   0.00000000         0.00 ; og 1/06 EtOH NIST IR fit
    HCA2    CC322    OC311     5   108.890000   460.240000   0.00000000         0.00 ; og 1/06 EtOH NIST IR fit
    HCA1   CC3162   OC3C61     5   109.500000   376.560000   0.00000000         0.00 ; sng from thp
    HCA1   CC3163   OC3C61     5   109.500000   376.560000   0.00000000         0.00 ; sng from thp
    HCA2   CC3263   OC3C61     5   109.500000   376.560000   0.00000000         0.00 ; sng from thp
    HCA1    CC311    OC301     5   109.500000   502.080000   0.00000000         0.00 ; par34 HCA2 CC32A OC30A
   OC301    CC321     HCA2     5   109.500000   502.080000   0.00000000         0.00 ; par34 HCA2 CC32A OC30A
   OC301    CC331     HCA3     5   109.500000   502.080000   0.00000000         0.00 ; par34 HCA3 CC33A OC30A
    HCA3    CC331   OC311M     5   108.890000   460.240000   0.00000000         0.00 ; og 1/06 MeOH NIST IR fit
    HCA2    CC321   OC311M     5   108.890000   460.240000   0.00000000         0.00 ; og 1/06 EtOH NIST IR fit
    HCA1    CC311   OC311M     5   108.890000   460.240000   0.00000000         0.00 ; og 1/06 EtOH NIST IR fit
    HCA2   CC321C   OC3C61     5   109.500000   376.560000   0.00000000         0.00 ; sng from thp
    HCA2   CC321D   OC3C61     5   109.500000   376.560000   0.00000000         0.00 ; sng from thp
    HCA1   CC311C   OC3C61     5   109.500000   376.560000   0.00000000         0.00 ; sng from thp
    HCA1   CC311D   OC3C61     5   109.500000   376.560000   0.00000000         0.00 ; sng from thp
    HCA1   CC311D    OC301     5   109.500000   502.080000   0.00000000         0.00 ; par35 HCA2 CC32A OC30A
    HCA1   CC3162    OC301     5   109.500000   502.080000   0.00000000         0.00 ; par35 HCA2 CC32A OC30A
    HCA1   CC311D    OC302     5   109.500000   502.080000   0.00000000         0.00 ; par35 HCA2 CC32A OC30A
    HCA1   CC3162    OC302     5   109.500000   502.080000   0.00000000         0.00 ; par35 HCA2 CC32A OC30A
    HCA1   CC311C    OC301     5   109.500000   502.080000   0.00000000         0.00 ; par35 HCA2 CC32A OC30A
    HCA1   CC3161    OC301     5   109.500000   502.080000   0.00000000         0.00 ; par35 HCA2 CC32A OC30A
  CC322C   CC322C   CC322C     5   109.500000   485.344000   0.25610000      9338.69 ; THF, nucleotide CSD/NDB survey, 05/30/06, viv
  HCA2C2   CC322C   CC322C     5   111.400000   292.880000   0.21790000     18853.10 ; viv cyclopentane 10/17/05
  HCA2C2   CC322C   HCA2C2     5   106.800000   322.168000   0.18020000      4518.72 ; viv cyclopentane 10/17/05
  OC3C5M   CC322C   CC322C     5   111.100000   376.560000   0.00000000         0.00 ; viv THF 10/21/05
  CC322C   OC3C5M   CC322C     5   111.000000   794.960000   0.00000000         0.00 ; viv THF 10/21/05
  HCA2C2   CC322C   OC3C5M     5   107.300000   585.760000   0.00000000         0.00 ; viv THF 10/21/05
    HCA3    CC331   CC312C     5   110.100000   279.742240   0.21790000     18853.10 ; par22 HA  CT3 CT1
  CC322C   CC312C    CC331     5   114.000000   446.432800   0.25610000      6694.40 ; par22 CT3  CT1  CT2
  HCA1C2   CC312C    CC331     5   110.100000   288.696000   0.21790000     18853.10 ; par22 HA  CT1 CT3
  OC3C5M   CC312C    CC331     5   111.500000   376.560000   0.00000000         0.00 ; viv TF2M (DEE)
  HCA1C2   CC312C   CC322C     5   111.400000   292.880000   0.21790000     18853.10 ; viv cyclopentane 10/17/05; erh 7/08
  HCA2C2   CC322C   CC312C     5   111.400000   292.880000   0.21790000     18853.10 ; viv cyclopentane 10/17/05; erh 7/08
  CC312C   CC322C   CC322C     5   109.500000   485.344000   0.25610000      9338.69 ; THF, nucleotide CSD/NDB survey, 05/30/06, viv ; erh 7/08
  CC322C   CC312C   CC322C     5   109.500000   485.344000   0.25610000      9338.69 ; THF, nucleotide CSD/NDB survey, 05/30/06, viv ; erh 7/08
  OC3C5M   CC312C   CC322C     5   111.100000   376.560000   0.00000000         0.00 ; viv THF 10/21/05; erh 7/08
  CC312C   OC3C5M   CC322C     5   111.000000   794.960000   0.00000000         0.00 ; viv THF 10/21/05; erh 7/08
  HCA1C2   CC312C   OC3C5M     5   107.300000   585.760000   0.00000000         0.00 ; viv THF 10/21/05; erh 7/08
  HCA1C2   CC312C    OC301     5   109.500000   502.080000   0.00000000         0.00 ; par35 HCA2 CC32A OC30A
   OC301   CC312C   CC322C     5   106.500000   376.560000   0.00000000         0.00 ; erh xtal analysis on disac
  CC312C    OC301    CC331     5   109.700000   794.960000   0.00000000         0.00 ; par35 CC33A  OC30A CC32A
   OC301   CC312C   OC3C5M     5   112.000000   753.120000   0.00000000         0.00 ; og,erh xtal analysis on disac
  OC3C51   CC3152   CC3251     5   111.100000   376.560000   0.00000000         0.00 ; THF par_carb OC3C5M CC322C CC322C
  OC3C51   CC3051   CC3251     5   111.100000   376.560000   0.00000000         0.00 ; THF par_carb OC3C5M CC322C CC322C
  OC3C51   CC3152   CC3151     5   111.100000   376.560000   0.00000000         0.00 ; THF par_carb OC3C5M CC322C CC322C
  OC3C51   CC3051   CC3151     5   111.100000   376.560000   0.00000000         0.00 ; THF par_carb OC3C5M CC322C CC322C
  OC3C51   CC3153   CC3151     5   111.100000   376.560000   0.00000000         0.00 ; THF par_carb OC3C5M CC322C CC322C
  OC3C51   CC3153    CC321     5   108.000000   376.560000   0.00000000         0.00 ; erh crystal analysis on furanose 3/09
  OC3C51   CC3051    CC321     5   108.000000   376.560000   0.00000000         0.00 ; erh crystal analysis on furanose 3/09
   OC311   CC3151   CC3251     5   110.100000   633.457600   0.00000000         0.00 ; par22 OH1  CT1  CT1; par_Sugars, CC3263  CC3161  OC311
   OC311   CC3151   CC3153     5   110.100000   633.457600   0.00000000         0.00 ; par22 OH1  CT1  CT1
   OC311   CC3151   CC3152     5   110.100000   633.457600   0.00000000         0.00 ; par22 OH1  CT1  CT1
   OC311   CC3151   CC3051     5   110.100000   633.457600   0.00000000         0.00 ; par22 OH1  CT1  CT1
   OC311   CC3151   CC3151     5   110.100000   633.457600   0.00000000         0.00 ; par22 OH1  CT1  CT1
   OC311    CC321   CC3153     5   110.100000   633.457600   0.00000000         0.00 ; par22 OH1  CT2  CT1
   OC311    CC321   CC3152     5   110.100000   633.457600   0.00000000         0.00 ; par22 OH1  CT2  CT1; erh 3/08
   OC311    CC321   CC3051     5   110.100000   633.457600   0.00000000         0.00 ; par22 OH1  CT2  CT1; erh 3/08
   OC311   CC3152   CC3251     5   110.100000   633.457600   0.00000000         0.00 ; par22 OH1  CT1  CT1; par_carb, CC3263  CC3161  OC311
   OC311   CC3051   CC3251     5   110.100000   633.457600   0.00000000         0.00 ; par22 OH1  CT1  CT1; par_carb, CC3263  CC3161  OC311
   OC311   CC3152    CC321     5   110.100000   633.457600   0.00000000         0.00 ; par22 OH1  CT1  CT1/CT3
   OC311   CC3051    CC321     5   110.100000   633.457600   0.00000000         0.00 ; par22 OH1  CT1  CT1/CT3
   OC311   CC3152   CC3151     5   110.100000   633.457600   0.00000000         0.00 ; par22 OH1  CT1  CT1
   OC311   CC3051   CC3151     5   110.100000   633.457600   0.00000000         0.00 ; par22 OH1  CT1  CT1
  OC3C51   CC3152    OC311     5   116.500000   376.560000   0.00000000         0.00 ; par_carb, OC3C61 CC3162 OC311
  OC3C51   CC3051    OC311     5   116.500000   376.560000   0.00000000         0.00 ; par_carb, OC3C61 CC3162 OC311
  OC3C51   CC3152     HCA1     5   107.300000   585.760000   0.00000000         0.00 ; THF, par_carb,  OC3C5M CC322C HCA2C2
  OC3C51   CC3153     HCA1     5   107.300000   585.760000   0.00000000         0.00 ; THF, par_carb,  OC3C5M CC322C HCA2C2
   OC311   CC3152     HCA1     5   108.890000   460.240000   0.00000000         0.00 ; og 1/06 EtOH NIST IR fit; par_carb, HCA1    CC3162  OC311
   OC311   CC3151     HCA1     5   108.890000   460.240000   0.00000000         0.00 ; og 1/06 EtOH NIST IR fit; par_carb, HCA1    CC3161  OC311
  CC3152    OC311     HCP1     5   109.000000   418.400000   0.00000000         0.00 ; par_carb CC3162  OC311   HCP1
  CC3051    OC311     HCP1     5   109.000000   418.400000   0.00000000         0.00 ; par_carb CC3162  OC311   HCP1
  CC3151    OC311     HCP1     5   109.000000   418.400000   0.00000000         0.00 ; par_carb CC3161  OC311   HCP1
  CC3153   OC3C51   CC3152     5   111.000000   794.960000   0.00000000         0.00 ; THF, par_carb CC322C OC3C5M CC322C
  CC3153   OC3C51   CC3051     5   111.000000   794.960000   0.00000000         0.00 ; THF, par_carb CC322C OC3C5M CC322C
  CC3152   CC3251   CC3151     5   109.500000   485.344000   0.25610000      9338.69 ; THF, par_carb CC322C CC322C CC322C
  CC3051   CC3251   CC3151     5   109.500000   485.344000   0.25610000      9338.69 ; THF, par_carb CC322C CC322C CC322C
  CC3152   CC3151   CC3151     5   109.500000   485.344000   0.25610000      9338.69 ; THF, par_carb CC322C CC322C CC322C
  CC3051   CC3151   CC3151     5   109.500000   485.344000   0.25610000      9338.69 ; THF, par_carb CC322C CC322C CC322C
  CC3251   CC3151   CC3153     5   109.500000   485.344000   0.25610000      9338.69 ; THF, par_carb CC322C CC322C CC322C
  CC3151   CC3151   CC3153     5   109.500000   485.344000   0.25610000      9338.69 ; THF, par_carb CC322C CC322C CC322C
  CC3151   CC3153    CC321     5   113.500000   488.272800   0.25610000      9338.69 ; sng, par_carb CC3161 CC3163 CC321; erh 7/08
  CC3151   CC3051    CC321     5   113.500000   488.272800   0.25610000      9338.69 ; sng, par_carb CC3161 CC3163 CC321; erh 7/08
  CC3152   CC3251     HCA2     5   111.400000   292.880000   0.21790000     18853.10 ; cyclopentane, par_carb HCA2C2 CC322C CC322C
  CC3051   CC3251     HCA2     5   111.400000   292.880000   0.21790000     18853.10 ; cyclopentane, par_carb HCA2C2 CC322C CC322C
  CC3251   CC3152     HCA1     5   111.400000   292.880000   0.21790000     18853.10 ; cyclopentane, par_carb HCA2C2 CC322C CC322C
  CC3251   CC3151     HCA1     5   111.400000   292.880000   0.21790000     18853.10 ; cyclopentane, par_carb HCA2C2 CC322C CC322C
  CC3151   CC3251     HCA2     5   111.400000   292.880000   0.21790000     18853.10 ; cyclopentane, par_carb HCA2C2 CC322C CC322C
  CC3153   CC3151     HCA1     5   111.400000   292.880000   0.21790000     18853.10 ; cyclopentane, par_carb HCA2C2 CC322C CC322C
  CC3152   CC3151     HCA1     5   111.400000   292.880000   0.21790000     18853.10 ; cyclopentane, par_carb HCA2C2 CC322C CC322C
  CC3051   CC3151     HCA1     5   111.400000   292.880000   0.21790000     18853.10 ; cyclopentane, par_carb HCA2C2 CC322C CC322C
  CC3151   CC3151     HCA1     5   111.400000   292.880000   0.21790000     18853.10 ; cyclopentane, par_carb HCA2C2 CC322C CC322C
  CC3151   CC3152     HCA1     5   111.400000   292.880000   0.21790000     18853.10 ; cyclopentane, par_carb HCA2C2 CC322C CC322C
  CC3151   CC3153     HCA1     5   111.400000   292.880000   0.21790000     18853.10 ; cyclopentane, par_carb HCA2C2 CC322C CC322C
  CC3153    CC321     HCA2     5   110.100000   279.742240   0.21790000     18853.10 ; par22 HA  CT2 CT1; erh 7/08
  CC3152    CC321     HCA2     5   110.100000   279.742240   0.21790000     18853.10 ; par22 HA  CT2 CT1; erh 7/08
  CC3051    CC321     HCA2     5   110.100000   279.742240   0.21790000     18853.10 ; par22 HA  CT2 CT1; erh 7/08
   CC321   CC3153     HCA1     5   110.100000   288.696000   0.21790000     18853.10 ; par22 HA  CT1 CT2
    HCA2   CC3251     HCA2     5   106.800000   322.168000   0.18020000      4518.72 ; cyclopentane, par_carb HCA2C2 CC322C HCA2C2
    HCA1   CC3152    OC301     5   109.500000   502.080000   0.00000000         0.00 ; par35 HCA2 CC32A OC30A
   OC301   CC3152   CC3151     5   105.000000   376.560000   0.00000000         0.00 ; erh xtal anal on disac/furanose 3/09
  CC3152    OC301    CC331     5   111.000000   794.960000   0.00000000         0.00 ; erh xtal anal on furanose 3/09
   OC301   CC3152   OC3C51     5   112.000000   753.120000   0.00000000         0.00 ; erh xtal anal on disac
  CC321C   CC311D   CC321C     5   112.000000   488.272800   0.25610000      9338.69 ; sng cyclohexane 12/05
  CC321D   CC311D   CC321C     5   112.000000   488.272800   0.25610000      9338.69 ; sng cyclohexane 12/05
  CC311D   CC311D   CC321C     5   112.000000   488.272800   0.25610000      9338.69 ; sng cyclohexane 12/05
  OC3C61   CC311D   CC311D     5   111.500000   376.560000   0.00000000         0.00 ; par34 OC30A CC326A CC326A
  OC3C61   CC321D   CC311D     5   111.500000   376.560000   0.00000000         0.00 ; par34 OC30A CC326A CC326A
    HCA1   CC311D   CC311D     5   110.100000   288.696000   0.21790000     18853.10 ; par22 HA   CT1  CT2
    HCA2   CC321D   CC311D     5   110.100000   288.696000   0.21790000     18853.10 ; sng cyclohexane 12/05
    HCA1   CC311D   CC321D     5   110.100000   288.696000   0.21790000     18853.10 ; par22 HA   CT1  CT2
   OC30P   CC311D   CC321C     5   107.000000   376.560000   0.00000000         0.00 ; og OMeTHP qm compounds 2 and 3
   OC30P   CC311D   CC311D     5   107.000000   376.560000   0.00000000         0.00 ; og OMeTHP qm compounds 2 and 3
   OC30P   CC3161   CC3161     5   107.000000   376.560000   0.00000000         0.00 ; og OMeTHP qm compounds 2 and 3
   OC30P   CC3161   CC3163     5   107.000000   376.560000   0.00000000         0.00 ; og OMeTHP qm compounds 2 and 3
   OC30P   CC311D   CC321D     5   109.000000   376.560000   0.00000000         0.00 ; 
   OC30P   CC3162   CC3161     5   109.000000   376.560000   0.00000000         0.00 ; 
   OC30P   CC3161   CC3162     5   109.000000   376.560000   0.00000000         0.00 ; 
   OC30P    CC321   CC311C     5   107.500000   633.457600   0.00000000         0.00 ; 
   OC30P    CC321   CC3163     5   107.500000   633.457600   0.00000000         0.00 ; 
   OC30P   CC311D   OC3C61     5   110.000000   753.120000   0.00000000         0.00 ; og OMeTHP qm compounds 2 and 3
   OC30P   CC3162   OC3C61     5   110.000000   753.120000   0.00000000         0.00 ; 
   OC30P    CC321     HCA2     5   109.500000   502.080000   0.00000000         0.00 ; 
   OC30P   CC3162     HCA1     5   109.500000   502.080000   0.00000000         0.00 ; par35 HCA2 CC32A OC30A
   OC30P   CC3161     HCA1     5   109.500000   502.080000   0.00000000         0.00 ; par35 HCA2 CC32A OC30A
   OC30P   CC311D     HCA1     5   109.500000   502.080000   0.00000000         0.00 ; par35 HCA2 CC32A OC30A
   OC30P       PC    OC2DP     5   111.600000   827.595200   0.00000000         0.00 ; 
   OC2DP       PC    OC2DP     5   120.000000  1004.160000   0.00000000         0.00 ; 
   OC2DP       PC    OC312     5   113.230000   827.595200   0.00000000         0.00 ; ON3  P    ON4     98.9     108.23 !MP_1, ADM Jr. !
   OC312       PC    OC312     5   104.413000   827.595200   0.00000000         0.00 ; ON4  P    ON4     98.9     104.0  !MP_0, ADM Jr. !
   OC30P       PC    OC312     5   108.000000   402.500800   0.00000000         0.00 ; ON2  P    ON4     48.1     108.0  !MP_1, ADM Jr. !
    HCP1    OC312       PC     5   115.000000   251.040000   0.23500000     33472.00 ; 
  CC3161    OC30P       PC     5   120.000000   167.360000   0.23300000     29288.00 ; 
  CC311D    OC30P       PC     5   120.000000   167.360000   0.23300000     29288.00 ; 
  CC3162    OC30P       PC     5   120.000000   167.360000   0.23300000     29288.00 ; 
  CC311D    OC30P       SC     5   109.000000   125.520000   0.19000000     22593.60 ; methylsulfate
  CC3161    OC30P       SC     5   109.000000   125.520000   0.19000000     22593.60 ; methylsulfate
   CC321    OC30P       SC     5   110.100000   125.520000   0.19000000     22593.60 ; methylsulfate
   OC2DP       SC    OC2DP     5   109.470000  1087.840000   0.24500000     29288.00 ; methylsulfate
   OC30P       SC    OC2DP     5    98.000000   711.280000   0.00000000         0.00 ; methylsulfate
  CC311D    OC301    CC321     5   109.700000   794.960000   0.00000000         0.00 ; pram, OMeTHP CC311D  OC301   CC331
   OC301    CC321    CC331     5   111.500000   376.560000   0.00000000         0.00 ; pram, par35  OC3C7M  CC321   CC331
   OC301   CC312D   OC3C5M     5   112.000000   753.120000   0.00000000         0.00 ; OMe-THF OC301   CC312C  OC3C5M
    HCA1   CC312D    OC301     5   109.500000   502.080000   0.00000000         0.00 ; OMe-THF HCA1C2  CC312C  OC301
   OC301   CC312D   CC322C     5   106.500000   376.560000   0.00000000         0.00 ; OMe-THF OC301   CC312C  CC322C
  CC312D    OC301    CC331     5   109.700000   794.960000   0.00000000         0.00 ; OMe-THF CC312C  OC301   CC331
  CC311D    OC302   CC312D     5   111.500000   418.400000   0.00000000         0.00 ; THP-O-THP CC311D  OC302   CC311D
  CC312D   OC3C5M   CC322C     5   111.000000   794.960000   0.00000000         0.00 ; THF w/me  CC312C OC3C5M CC322C
   OC302   CC312D   OC3C5M     5   112.000000   753.120000   0.00000000         0.00 ; OMe-THF   OC301   CC312C  OC3C5M
  HCA2C2   CC322C   CC312D     5   111.400000   292.880000   0.21790000     18853.10 ; THF w/me  HCA2C2 CC322C CC312C
  CC312D   CC322C   CC322C     5   109.500000   485.344000   0.25610000      9338.69 ; THF w/me  CC312C CC322C CC322C
  OC3C5M   CC312D   CC322C     5   111.100000   376.560000   0.00000000         0.00 ; THF w/me  OC3C5M CC312C CC322C
   OC302   CC312D   CC322C     5   106.500000   376.560000   0.00000000         0.00 ; OMe-THF   OC301   CC312C  CC322C
    HCA1   CC312D    OC302     5   109.500000   502.080000   0.00000000         0.00 ; OMe-THF   HCA1C2  CC312C  OC301
    HCA1   CC312D   OC3C5M     5   107.300000   585.760000   0.00000000         0.00 ; THF w/me  HCA1C2 CC312C OC3C5M
    HCA1   CC312D   CC322C     5   111.400000   292.880000   0.21790000     18853.10 ; THF w/me  HCA1C2 CC312C CC322C
    HCA1   CC312C   OC3C5M     5   107.300000   585.760000   0.00000000         0.00 ; THF w/me  HCA1C2 CC312C OC3C5M
    HCA1   CC312C   CC322C     5   111.400000   292.880000   0.21790000     18853.10 ; THF w/me  HCA1C2 CC312C CC322C
   CC321   CC312C   CC322C     5   113.000000   488.272800   0.25610000      9338.69 ; pram, angle eq. value modified (from CC321   CC311C  CC321C),QM minima, MOLVIB on model compound 2 (raman et. al)
    HCA1   CC312C    CC321     5   110.100000   288.696000   0.21790000     18853.10 ; THF w/me  HCA1C2 CC312C CC331
    HCA2    CC321   CC312C     5   110.100000   279.742240   0.21790000     18853.10 ; COCA-THP2 HCA2 CC321   CC311C
   OC301    CC321   CC312C     5   106.000000   376.560000   0.00000000         0.00 ; COCA-THP2 OC301   CC321   CC311C
  OC3C5M   CC312C    CC321     5   109.000000   502.080000   0.00000000         0.00 ; pram, modified (from OC3C61  CC311C  CC321),QM minima, MOLVIB on model compound 2 (raman et. al)
  CC312C    OC303    CC331     5   109.700000   794.960000   0.00000000         0.00 ; OMe-THF CC312C  OC301   CC331
   OC303    CC331     HCA3     5   109.500000   502.080000   0.00000000         0.00 ; OMe-THF
   OC303   CC311D   CC321C     5   109.000000   376.560000   0.00000000         0.00 ; OC301   CC311D  CC321C
   OC303   CC311D   OC3C61     5   110.000000   753.120000   0.00000000         0.00 ; OC301   CC311D  OC3C61
    HCA1   CC311D    OC303     5   109.500000   502.080000   0.00000000         0.00 ; HCA1    CC311D  OC301
    HCA1   CC312C    OC303     5   109.500000   502.080000   0.00000000         0.00 ; HCA1C2  CC312C  OC301
   OC303   CC312C   CC322C     5   110.500000   376.560000   0.00000000         0.00 ; pram, modified (from OC301   CC312C  CC322C), model compound 3 (raman et. al) QM minima
  CC311D    OC303   CC312C     5   109.500000   418.400000   0.00000000         0.00 ; pram, modified (from CC311D  OC302   CC311D), model compound 3 (raman et. al) QM minima, MOLVIB
  OC3C5M   CC322C   CC312C     5   111.100000   376.560000   0.00000000         0.00 ; THF OC3C5M  CC322C  CC322C
  CC311C    OC301   CC312D     5   109.200000   418.400000   0.00000000         0.00 ; CC311C  OC301   CC311D
  CC3162    OC302   CC3051     5   111.500000   418.400000   0.00000000         0.00 ; CC3162  OC302   CC3162
   OC302   CC3051   OC3C51     5   112.000000   753.120000   0.00000000         0.00 ; OC301   CC312C  OC3C51
   OC302   CC3051    CC321     5   110.100000   633.457600   0.00000000         0.00 ; OC311   CC3051  CC321
   OC302   CC3051   CC3151     5   105.000000   376.560000   0.00000000         0.00 ; OC301   CC3152  CC3151
    HCA1   CC3162    OC303     5   109.500000   502.080000   0.00000000         0.00 ; pram, model compound 3(raman et al)  HCA1    CC311D  OC303
   OC303   CC3162   OC3C61     5   112.000000   753.120000   0.00000000         0.00 ; OC301   CC3162  OC3C61
   OC303   CC3162   CC3161     5   105.000000   376.560000   0.00000000         0.00 ; OC301   CC3162  CC3161
  CC3162    OC303   CC3151     5   109.500000   418.400000   0.00000000         0.00 ; pram, model compound 3(raman et al)  CC311D  OC303   CC312C
   OC303   CC3151   CC3153     5   110.500000   376.560000   0.00000000         0.00 ; pram, model compound 3(raman et al)  OC303   CC312C  CC322C
   OC303   CC3151   CC3151     5   110.500000   376.560000   0.00000000         0.00 ; pram, model compound 3(raman et al)  OC303   CC312C  CC322C
   OC303   CC3151     HCA1     5   109.500000   502.080000   0.00000000         0.00 ; pram, model compound 3(raman et al)  HCA1    CC312C  OC303
   OC303   CC3151   CC3051     5   110.500000   376.560000   0.00000000         0.00 ; pram, model compound 3(raman et al) OC303   CC312C  CC322C
  CC3051    CC321    OC301     5   106.000000   376.560000   0.00000000         0.00 ; pram, model compound 2 OC301   CC321   CC312C
   CC321    OC301   CC3051     5   112.200000   794.960000   0.00000000         0.00 ; pram, modified based on KESTOS,CELGIJ,PEKHES(2) crystal simulations (from OMe-thf CC312C  OC301  CC331) 2/15/2010
   OC301   CC3051   OC3C51     5   112.000000   753.120000   0.00000000         0.00 ; OMe-THF OC301   CC312C  OC3C5M
   OC301   CC3051    CC321     5   110.100000   633.457600   0.00000000         0.00 ; OC311  CC3051 CC321
   OC301   CC3051   CC3151     5   106.500000   376.560000   0.00000000         0.00 ; OMe-thf OC301   CC312C  CC322C
  CC3153    CC321    OC301     5   106.000000   376.560000   0.00000000         0.00 ; pram, model compound 2(raman et al) OC301   CC321   CC312C
  CC3152    OC301    CC321     5   111.000000   794.960000   0.00000000         0.00 ; CC3152  OC301   CC331
  CC3161    OC301   CC3152     5   109.200000   418.400000   0.00000000         0.00 ; CC311C  OC301   CC311D, model compound 4
   OC301   CC3161   CC3263     5   109.000000   376.560000   0.00000000         0.00 ; from OC301   CC3161  CC3163
  CC3162    OC30P       SC     5   109.000000   125.520000   0.19000000     22593.60 ; sairam
   CC321    OC301   CC3062     5   109.700000   794.960000   0.00000000         0.00 ; from CC3162  OC301   CC321; mjyang
   OC301    CC312    CC312     5   106.000000   376.560000   0.00000000         0.00 ; OC301   CC321   CC3163
   OC301    CC312    CC322     5   106.000000   376.560000   0.00000000         0.00 ; OC301   CC321   CC3163
   CC312    OC301   CC3062     5   109.700000   794.960000   0.00000000         0.00 ; from CC3162  OC301   CC321
   OC301    CC312     HCA1     5   109.500000   502.080000   0.00000000         0.00 ; OC301   CC321   HCA2
   OC301    CC322     HCA2     5   109.500000   502.080000   0.00000000         0.00 ; OC301   CC321   HCA2
   OC301    CC322    CC312     5   106.000000   376.560000   0.00000000         0.00 ; OC301   CC321   CC3163
   CC322    OC301   CC3062     5   109.700000   794.960000   0.00000000         0.00 ; from CC3162  OC301   CC321
  CC3162   CC3161   CC3261     5   111.000000   446.432800   0.25610000      6694.40 ; from CC3162  CC3161  CC3161
  CC3161   CC3261   CC3161     5   111.000000   446.432800   0.25610000      6694.40 ; from CC3161  CC3161  CC3161
  CC3261   CC3161   CC3163     5   111.000000   446.432800   0.25610000      6694.40 ; from CC3161  CC3161  CC3163
  CC3261   CC3161    OC301     5   110.100000   633.457600   0.00000000         0.00 ; CC3261  CC3161  OC311
   CC331    CC2O5    OC301     5   109.000000   460.240000   0.23260000     16736.00 ; CG331  CG2O2  OG302
   CC331    CC2O5    OC2D1     5   125.000000   585.760000   0.24420000     16736.00 ; CG331  CG2O2  OG2D1
   CC2O5    CC331     HCA3     5   109.500000   276.144000   0.21630000     25104.00 ; CG2O2  CG331  HGA3
   OC2D1    CC2O5    OC301     5   125.900000   753.120000   0.22576000    133888.00 ; OG2D1  CG2O2  OG302
   CC2O5    OC301   CC3161     5   109.600000   334.720000   0.22651000     25104.00 ; CG2O2  OG302  CG311
   OC2DP       SC    NC311     5   103.000000   711.280000   0.00000000         0.00 ; SUFMA/B, xxwy
      SC    NC311     HCP1     5   118.000000   401.664000   0.00000000         0.00 ; SUFMA/B, xxwy
  CC3161    NC311     HCP1     5   111.000000   401.664000   0.00000000         0.00 ; SUFMA/B, xxwy
      SC    NC311   CC3161     5   113.000000   418.400000   0.00000000         0.00 ; SUFMA/B, xxwy
  CC3161   CC3161    NC311     5   109.000000   435.136000   0.00000000         0.00 ; SUFMA/B, xxwy
  CC3162   CC3161    NC311     5   109.000000   435.136000   0.00000000         0.00 ; SUFMA/B, xxwy
   NC311   CC3161     HCA1     5   109.500000   301.248000   0.00000000         0.00 ; SUFMA/B, xxwy

; angle parameters from toppar_c36_jul22/par_all36_cgenff.prm
;      i        j        k  func       theta0       ktheta          ub0          kub
  CG2R51    CG1N1    NG1T1     5   180.000000   334.720000   0.00000000         0.00 ; DCG, yxu, RNA
  CG2R61    CG1N1    NG1T1     5   180.000000   334.720000   0.00000000         0.00 ; 3CYP, 3-Cyanopyridine (PYRIDINE pyr-CN), yin
   CG321    CG1N1    NG1T1     5   180.000000   177.401600   0.00000000         0.00 ; CYU, from CG331 CG1N1 NG1T1, yxu, RNA
   CG331    CG1N1    NG1T1     5   180.000000   177.401600   0.00000000         0.00 ; ACN, acetonitrile, kevo
   NG1T1    CG1N1    SG311     5   179.930000   340.577600   0.00000000         0.00 ; XCN, by ac_aa
   CG1T1    CG1T1    CG331     5   180.000000   158.992000   0.00000000         0.00 ; 2BTY, 2-butyne, kevo
   CG1T2    CG1T1    CG2D1     5   180.000000    92.048000   0.00000000         0.00 ; BEYN, pchat
   CG1T2    CG1T1    CG321     5   180.000000    92.048000   0.00000000         0.00 ; BUTY , PNTY, HPTY, HXYN,OCTY , pchat
   CG1T2    CG1T1    CG331     5   180.000000    92.048000   0.00000000         0.00 ; PRPY, propyne, kevo
   CG1T1    CG1T2   HGPAM1     5   180.000000    66.944000   0.00000000         0.00 ; PRPY, propyne, xxwy & kevo
  CG25C1   CG251O   CG2R53     5   125.000000   334.720000   0.00000000         0.00 ; OIRD, oxindol-3-ylidene rhodanine, kevo & xxwy
  CG25C1   CG251O   NG2R53     5   124.000000   334.720000   0.00000000         0.00 ; OIHY, 5-(oxindol-3-ylidene)hydantoin, complete ring system, xxwy
  CG25C1   CG251O    SG311     5   124.000000   334.720000   0.00000000         0.00 ; OIRD, oxindol-3-ylidene rhodanine, kevo & xxwy
  CG2DC1   CG251O   CG2R53     5   119.000000   334.720000   0.00000000         0.00 ; from CG2DC3 CG251O CG2R53, PENALTY= 3.5 CRQ SWG CRF CRO PIA GYS CH6 CR2 DYG NRQ
  CG2DC1   CG251O   NG2R50     5   122.220000   360.326080   0.00000000         0.00 ; NRQ DYG, by ac_aa
  CG2DC3   CG251O   CG2R53     5   119.000000   334.720000   0.00000000         0.00 ; MRDN, methylidene rhodanine, kevo & xxwy
  CG2DC3   CG251O   NG2R50     5   133.180000   335.724160   0.00000000         0.00 ; MDO, by ac_aa
  CG2DC3   CG251O   NG2R53     5   130.000000   334.720000   0.00000000         0.00 ; MHYO, 5-methylenehydantoin, xxwy
  CG2DC3   CG251O    SG311     5   130.000000   334.720000   0.00000000         0.00 ; MRDN, methylidene rhodanine, kevo & xxwy
  CG2R53   CG251O   NG2R50     5   110.350000   987.591360   0.00000000         0.00 ; NRQ DYG MDO, by ac_aa
  CG2R53   CG251O   NG2R53     5   111.000000   970.688000   0.00000000         0.00 ; MHYO, 5-methylenehydantoin, xxwy
  CG2R53   CG251O    SG311     5   111.000000   920.480000   0.00000000         0.00 ; MRDN, methylidene rhodanine, kevo & xxwy
  CG25C2   CG252O   CG2R53     5   125.000000   334.720000   0.00000000         0.00 ; OIRD, oxindol-3-ylidene rhodanine, kevo & xxwy
  CG25C2   CG252O   NG2R53     5   124.000000   334.720000   0.00000000         0.00 ; OIHY, 5-(oxindol-3-ylidene)hydantoin, complete ring system, xxwy
  CG25C2   CG252O    SG311     5   124.000000   334.720000   0.00000000         0.00 ; OIRD, oxindol-3-ylidene rhodanine, kevo & xxwy
  CG2DC2   CG252O   CG2R53     5   119.000000   334.720000   0.00000000         0.00 ; from CG2DC3 CG251O CG2R53, PENALTY= 3.5 CRQ SWG CRF CRO PIA GYS CH6 CR2 DYG NRQ
  CG2DC2   CG252O   NG2R50     5   122.220000   360.326080   0.00000000         0.00 ; NRQ DYG, by ac_aa
  CG2DC3   CG252O   CG2R53     5   119.000000   334.720000   0.00000000         0.00 ; MRDN, methylidene rhodanine, kevo & xxwy
  CG2DC3   CG252O   NG2R50     5   133.180000   335.724160   0.00000000         0.00 ; MDO, by ac_aa
  CG2DC3   CG252O   NG2R53     5   130.000000   334.720000   0.00000000         0.00 ; MHYO, 5-methylenehydantoin, xxwy
  CG2DC3   CG252O    SG311     5   130.000000   334.720000   0.00000000         0.00 ; MRDN, methylidene rhodanine, kevo & xxwy
  CG2R53   CG252O   NG2R50     5   110.350000   987.591360   0.00000000         0.00 ; NRQ DYG MDO, by ac_aa
  CG2R53   CG252O   NG2R53     5   111.000000   970.688000   0.00000000         0.00 ; MHYO, 5-methylenehydantoin, xxwy
  CG2R53   CG252O    SG311     5   111.000000   920.480000   0.00000000         0.00 ; MRDN, methylidene rhodanine, kevo & xxwy
  CG251O   CG25C1   CG2R53     5   113.000000   276.144000   0.00000000         0.00 ; OIRD, oxindol-3-ylidene rhodanine, kevo & xxwy
  CG251O   CG25C1   CG2RC0     5   131.500000   276.144000   0.00000000         0.00 ; OIRD, oxindol-3-ylidene rhodanine, kevo & xxwy
  CG2DC3   CG25C1   CG2R53     5   115.500000   276.144000   0.00000000         0.00 ; MEOI, methyleneoxindole, kevo & xxwy
  CG2DC3   CG25C1   CG2RC0     5   130.000000   276.144000   0.00000000         0.00 ; MEOI, methyleneoxindole, kevo & xxwy
  CG2R53   CG25C1   CG2RC0     5   114.500000   376.560000   0.00000000         0.00 ; MEOI, methyleneoxindole, kevo & xxwy
  CG252O   CG25C2   CG2R53     5   113.000000   276.144000   0.00000000         0.00 ; OIRD, oxindol-3-ylidene rhodanine, kevo & xxwy
  CG252O   CG25C2   CG2RC0     5   131.500000   276.144000   0.00000000         0.00 ; OIRD, oxindol-3-ylidene rhodanine, kevo & xxwy
  CG2DC3   CG25C2   CG2R53     5   115.500000   276.144000   0.00000000         0.00 ; MEOI, methyleneoxindole, kevo & xxwy
  CG2DC3   CG25C2   CG2RC0     5   130.000000   276.144000   0.00000000         0.00 ; MEOI, methyleneoxindole, kevo & xxwy
  CG2R53   CG25C2   CG2RC0     5   114.500000   376.560000   0.00000000         0.00 ; MEOI, methyleneoxindole, kevo & xxwy
   CG1T1    CG2D1    CG2D2     5   126.000000   401.664000   0.00000000         0.00 ; BEYN, pchat
   CG1T1    CG2D1     HGA4     5   116.000000   334.720000   0.00000000         0.00 ; BEYN, pchat
   CG2D1    CG2D1    CG301     5   123.500000   401.664000   0.00000000         0.00 ; CHOLEST cholesterol
   CG2D1    CG2D1    CG311     5   123.500000   401.664000   0.00000000         0.00 ; from CG2D1 CG2D1 CG321, PENALTY= 0.6 ACZ
   CG2D1    CG2D1    CG314     5   121.960000   353.464320   0.00000000         0.00 ; ACZ, by ac_aa
   CG2D1    CG2D1    CG321     5   123.500000   401.664000   0.00000000         0.00 ; LIPID  2-butene, yin,adm jr., 12/95
   CG2D1    CG2D1    CG324     5   122.500000   326.352000   0.00000000         0.00 ; IAU, yxu, RNA
   CG2D1    CG2D1    CG331     5   123.500000   401.664000   0.00000000         0.00 ; LIPID 2-butene, yin,adm jr., 12/95
   CG2D1    CG2D1     HGA4     5   119.500000   435.136000   0.00000000         0.00 ; LIPID 2-butene, yin,adm jr., 12/95
  CG2D1O    CG2D1    CG321     5   127.500000   334.720000   0.00000000         0.00 ; PY01, 4h-pyran
  CG2D1O    CG2D1     HGA4     5   119.500000   435.136000   0.00000000         0.00 ; PY01, 4h-pyran
   CG2D2    CG2D1    CG321     5   126.000000   401.664000   0.00000000         0.00 ; LIPID 1-butene; propene, yin,adm jr., 12/95
   CG2D2    CG2D1    CG331     5   125.200000   393.296000   0.00000000         0.00 ; LIPID propene, yin,adm jr., 12/95
   CG2D2    CG2D1     HGA4     5   118.000000   351.456000   0.00000000         0.00 ; LIPID propene, yin,adm jr., 12/95
  CG2D2O    CG2D1    CG321     5   127.500000   334.720000   0.00000000         0.00 ; PY01, 4h-pyran
  CG2D2O    CG2D1     HGA4     5   119.500000   435.136000   0.00000000         0.00 ; PY01, 4h-pyran
   CG301    CG2D1    CG321     5   113.000000   418.400000   0.00000000         0.00 ; CHOLEST cholesterol
   CG301    CG2D1    CG331     5   123.500000   401.664000   0.00000000         0.00 ; RETINOL TMCH
   CG311    CG2D1     HGA4     5   116.000000   334.720000   0.00000000         0.00 ; from CG321 CG2D1 HGA4, PENALTY= 0.6 ACZ
   CG314    CG2D1     HGA4     5   115.830000   295.892480   0.00000000         0.00 ; ACZ, by ac_aa
   CG321    CG2D1    CG331     5   123.500000   401.664000   0.00000000         0.00 ; RETINOL TMCH
   CG321    CG2D1     HGA4     5   116.000000   334.720000   0.00000000         0.00 ; LIPID 1-butene; propene, yin,adm jr., 12/95
   CG324    CG2D1     HGA4     5   118.000000   309.616000   0.00000000         0.00 ; IAU, yxu, RNA
   CG331    CG2D1    CG331     5   119.000000   460.240000   0.00000000         0.00 ; IAU, yxu, RNA
   CG331    CG2D1    NG2D1     5   123.000000   669.440000   0.00000000         0.00 ; RETINOL SCH1, Schiff's base, deprotonated, adjusted for improper, xxwy
   CG331    CG2D1    NG2P1     5   125.600000   393.296000   0.00000000         0.00 ; RETINOL SCH2, Schiff's base, protonated, adjusted for improper, xxwy
   CG331    CG2D1     HGA4     5   117.000000   184.096000   0.00000000         0.00 ; LIPID propene, yin,adm jr., 12/95
   CG331    CG2D1    HGR52     5   120.400000   351.456000   0.00000000         0.00 ; RETINOL SCH2, Schiff's base, protonated
   NG2D1    CG2D1     HGA4     5   119.500000   410.032000   0.00000000         0.00 ; RETINOL SCH1, Schiff's base, deprotonated, adjusted for improper, xxwy
   NG2P1    CG2D1    HGR52     5   114.000000   326.352000   0.00000000         0.00 ; RETINOL SCH2, Schiff's base, protonated, adjusted for improper, xxwy
   CG2D1   CG2D1O    NG301     5   122.000000   502.080000   0.00000000         0.00 ; NADH, NDPH; Kenno: reverted to nadh/ppi, jjp1/adm jr. 7/95
   CG2D1   CG2D1O    NG311     5   122.000000   502.080000   0.00000000         0.00 ; NICH; Kenno: reverted to nadh/ppi, jjp1/adm jr. 7/95
   CG2D1   CG2D1O   OG3R60     5   126.000000   334.720000   0.00000000         0.00 ; PY01, 4h-pyran, maintain 360 around apex angle
   CG2D1   CG2D1O     HGA4     5   122.000000   435.136000   0.00000000         0.00 ; PY01, 4h-pyran
   CG2D2   CG2D1O    NG321     5   128.000000   669.440000   0.00000000         0.00 ; AMET, ethenamine; mp2-geom, molvib; pram
   CG2D2   CG2D1O    OG301     5   123.500000   543.920000   0.00000000         0.00 ; MOET, Methoxyethene, xxwy
   CG2D2   CG2D1O     HGA4     5   121.000000   368.192000   0.00000000         0.00 ; MOET, Methoxyethene, xxwy
  CG2DC1   CG2D1O    CG2O1     5   117.500000   401.998720   0.00000000         0.00 ; DYAP, by ac_aa
  CG2DC1   CG2D1O    CG2O5     5   108.060000   502.080000   0.00000000         0.00 ; TPQ, by ac_aa
  CG2DC1   CG2D1O    NG2D1     5   125.000000   753.120000   0.00000000         0.00 ; ABSB, amide base, sr
  CG2DC1   CG2D1O    NG2S1     5   120.740000   506.347680   0.00000000         0.00 ; DYAP, by ac_aa
  CG2DC1   CG2D1O    NG301     5   122.000000   502.080000   0.00000000         0.00 ; NADH, NDPH; Kenno: reverted to nadh/ppi, jjp1/adm jr. 7/95
  CG2DC1   CG2D1O    NG311     5   122.000000   502.080000   0.00000000         0.00 ; NICH; Kenno: reverted to nadh/ppi, jjp1/adm jr. 7/95
  CG2DC1   CG2D1O    OG301     5   124.500000   468.608000   0.00000000         0.00 ; MOBU, 1-Methoxy-1,3-butadiene, xxwy
  CG2DC1   CG2D1O    OG311     5   124.500000   468.608000   0.00000000         0.00 ; from CG2DC1 CG2D1O OG301, PENALTY= 5 TPQP
  CG2DC1   CG2D1O    OG312     5   137.910000   447.353280   0.00000000         0.00 ; TPQ, by ac_aa
  CG2DC1   CG2D1O   OG3R60     5   128.000000   334.720000   0.00000000         0.00 ; PY02, 2h-pyran
  CG2DC1   CG2D1O     HGA4     5   120.000000   351.456000   0.00000000         0.00 ; PY02, 2h-pyran
   CG2O1   CG2D1O    NG2S1     5   120.660000   658.143200   0.00000000         0.00 ; DYAP, by ac_aa
   CG2O5   CG2D1O    OG311     5   111.880000   574.128480   0.00000000         0.00 ; TPQP, by ac_aa
   CG2O5   CG2D1O    OG312     5   120.730000   557.225120   0.00000000         0.00 ; TPQ, by ac_aa
   CG331   CG2D1O    NG2D1     5   121.170000   637.306880   0.00000000         0.00 ; FZN, by ac_aa
   CG331   CG2D1O    SG311     5   117.280000   298.402880   0.00000000         0.00 ; FZN, by ac_aa
   NG2D1   CG2D1O    SG311     5   119.560000   607.516800   0.00000000         0.00 ; FZN, by ac_aa
   NG2D1   CG2D1O     HGA4     5   119.500000   410.032000   0.00000000         0.00 ; ABSB, amide base, sr
   NG301   CG2D1O     HGA4     5   119.000000   351.456000   0.00000000         0.00 ; NADH, NDPH; Kenno: reverted to nad/ppi, jjp1/adm jr. 7/95
   NG311   CG2D1O     HGA4     5   119.000000   351.456000   0.00000000         0.00 ; NICH; Kenno: reverted to nad/ppi, jjp1/adm jr. 7/95
   NG321   CG2D1O     HGA4     5   113.000000   251.040000   0.00000000         0.00 ; AMET, ethenamine; mp2-geom, molvib; pram
   OG301   CG2D1O     HGA4     5   115.500000   251.040000   0.00000000         0.00 ; MOET, Methoxyethene, xxwy
  OG3R60   CG2D1O     HGA4     5   112.000000   251.040000   0.00000000         0.00 ; PY01, 4h-pyran
   CG2D1    CG2D2     HGA5     5   120.500000   376.560000   0.00000000         0.00 ; LIPID propene, yin,adm jr., 12/95
  CG2D1O    CG2D2     HGA5     5   120.500000   292.880000   0.00000000         0.00 ; MOET, Methoxyethene, xxwy
   CG2D2    CG2D2     HGA5     5   120.500000   464.424000   0.00000000         0.00 ; LIPID ethene, yin,adm jr., 12/95
  CG2D2O    CG2D2     HGA5     5   120.500000   292.880000   0.00000000         0.00 ; MOET, Methoxyethene, xxwy
    HGA5    CG2D2     HGA5     5   119.000000   158.992000   0.00000000         0.00 ; LIPID propene, yin,adm jr., 12/95
   CG2D1   CG2D2O    NG301     5   122.000000   502.080000   0.00000000         0.00 ; NADH, NDPH; Kenno: reverted to nadh/ppi, jjp1/adm jr. 7/95
   CG2D1   CG2D2O    NG311     5   122.000000   502.080000   0.00000000         0.00 ; NICH; Kenno: reverted to nadh/ppi, jjp1/adm jr. 7/95
   CG2D1   CG2D2O   OG3R60     5   126.000000   334.720000   0.00000000         0.00 ; PY01, 4h-pyran, maintain 360 around apex angle
   CG2D1   CG2D2O     HGA4     5   122.000000   435.136000   0.00000000         0.00 ; PY01, 4h-pyran
   CG2D2   CG2D2O    NG321     5   128.000000   669.440000   0.00000000         0.00 ; AMET, ethenamine; mp2-geom, molvib; pram
   CG2D2   CG2D2O    OG301     5   123.500000   543.920000   0.00000000         0.00 ; MOET, Methoxyethene, xxwy
   CG2D2   CG2D2O     HGA4     5   121.000000   368.192000   0.00000000         0.00 ; MOET, Methoxyethene, xxwy
  CG2DC2   CG2D2O    CG2O1     5   117.500000   401.998720   0.00000000         0.00 ; DYAP, by ac_aa
  CG2DC2   CG2D2O    CG2O5     5   108.060000   502.080000   0.00000000         0.00 ; TPQ, by ac_aa
  CG2DC2   CG2D2O    NG2D1     5   125.000000   753.120000   0.00000000         0.00 ; ABSB, amide base, sr
  CG2DC2   CG2D2O    NG2S1     5   120.740000   506.347680   0.00000000         0.00 ; DYAP, by ac_aa
  CG2DC2   CG2D2O    NG301     5   122.000000   502.080000   0.00000000         0.00 ; NADH, NDPH; Kenno: reverted to nadh/ppi, jjp1/adm jr. 7/95
  CG2DC2   CG2D2O    NG311     5   122.000000   502.080000   0.00000000         0.00 ; NICH; Kenno: reverted to nadh/ppi, jjp1/adm jr. 7/95
  CG2DC2   CG2D2O    OG301     5   124.500000   468.608000   0.00000000         0.00 ; MOBU, 1-Methoxy-1,3-butadiene, xxwy
  CG2DC2   CG2D2O    OG311     5   124.500000   468.608000   0.00000000         0.00 ; from CG2DC1 CG2D1O OG301, PENALTY= 5 TPQP
  CG2DC2   CG2D2O    OG312     5   137.910000   447.353280   0.00000000         0.00 ; TPQ, by ac_aa
  CG2DC2   CG2D2O   OG3R60     5   128.000000   334.720000   0.00000000         0.00 ; PY02, 2h-pyran
  CG2DC2   CG2D2O     HGA4     5   120.000000   351.456000   0.00000000         0.00 ; PY02, 2h-pyran
   CG2O1   CG2D2O    NG2S1     5   120.660000   658.143200   0.00000000         0.00 ; DYAP, by ac_aa
   CG2O5   CG2D2O    OG311     5   111.880000   574.128480   0.00000000         0.00 ; TPQP, by ac_aa
   CG2O5   CG2D2O    OG312     5   120.730000   557.225120   0.00000000         0.00 ; TPQ, by ac_aa
   CG331   CG2D2O    NG2D1     5   121.170000   637.306880   0.00000000         0.00 ; FZN, by ac_aa
   CG331   CG2D2O    SG311     5   117.280000   298.402880   0.00000000         0.00 ; FZN, by ac_aa
   NG2D1   CG2D2O    SG311     5   119.560000   607.516800   0.00000000         0.00 ; FZN, by ac_aa
   NG2D1   CG2D2O     HGA4     5   119.500000   410.032000   0.00000000         0.00 ; ABSB, amide base, sr
   NG301   CG2D2O     HGA4     5   119.000000   351.456000   0.00000000         0.00 ; NADH, NDPH; Kenno: reverted to nad/ppi, jjp1/adm jr. 7/95
   NG311   CG2D2O     HGA4     5   119.000000   351.456000   0.00000000         0.00 ; NICH; Kenno: reverted to nad/ppi, jjp1/adm jr. 7/95
   NG321   CG2D2O     HGA4     5   113.000000   251.040000   0.00000000         0.00 ; AMET, ethenamine; mp2-geom, molvib; pram
   OG301   CG2D2O     HGA4     5   115.500000   251.040000   0.00000000         0.00 ; MOET, Methoxyethene, xxwy
  OG3R60   CG2D2O     HGA4     5   112.000000   251.040000   0.00000000         0.00 ; PY01, 4h-pyran
  CG251O   CG2DC1   CG2R51     5   122.000000   242.672000   0.00000000         0.00 ; SWG, by ac_aa
  CG251O   CG2DC1   CG2R61     5   110.070000   247.692800   0.00000000         0.00 ; XYG, by ac_aa
  CG251O   CG2DC1    CG331     5   118.450000   370.535040   0.00000000         0.00 ; DYG NRQ, by ac_aa
  CG251O   CG2DC1     HGA4     5   116.190000   252.713600   0.00000000         0.00 ; NRQ DYG, by ac_aa
  CG2D1O   CG2DC1   CG2DC2     5   120.000000   401.664000   0.00000000         0.00 ; PY02, 2h-pyran
  CG2D1O   CG2DC1    CG2O1     5   113.000000   543.920000   0.00000000         0.00 ; NICH; Kenno: nad/ppi, jjp1/adm jr. 7/95 says 5.0 107.8 but that's too unlikely ==> re-optimize
  CG2D1O   CG2DC1    CG2O2     5   113.000000   543.920000   0.00000000         0.00 ; from CG2D1O CG2DC1 CG2O1, PENALTY= 2.5 DYA
  CG2D1O   CG2DC1    CG2O3     5   123.500000   401.664000   0.00000000         0.00 ; from CG2DC1 CG2DC1 CG2O3, PENALTY= 3.5 DYA
  CG2D1O   CG2DC1    CG2O5     5   113.000000   543.920000   0.00000000         0.00 ; from CG2D1O CG2DC1 CG2O1, PENALTY= 3 TPQ TPQP
  CG2D1O   CG2DC1    CG321     5   126.500000   364.008000   0.00000000         0.00 ; NICH; Kenno: nadh/ppi, jjp1/adm jr. 7/95 says 43.50 128.00 but that's unlikely ==> re-optimize
  CG2D1O   CG2DC1    CG331     5   126.500000   364.008000   0.00000000         0.00 ; from CG2D1O CG2DC1 CG321, sm071
  CG2D1O   CG2DC1     HGA4     5   122.000000   351.456000   0.00000000         0.00 ; PY02, 2h-pyran
  CG2DC1   CG2DC1   CG2DC2     5   123.000000   401.664000   0.00000000         0.00 ; RETINOL 13DP, Pentadiene @@@@@ Kenno: 123.5-->123.0 @@@@@
  CG2DC1   CG2DC1    CG2O1     5   123.500000   401.664000   0.00000000         0.00 ; RETINOL CROT
  CG2DC1   CG2DC1    CG2O3     5   123.500000   401.664000   0.00000000         0.00 ; RETINOL PRAC
  CG2DC1   CG2DC1    CG2O4     5   120.000000   502.080000   0.00000000         0.00 ; RETINOL RTAL unmodified
  CG2DC1   CG2DC1    CG2O5     5   120.000000   502.080000   0.00000000         0.00 ; from CG2DC1 CG2DC1 CG2O4, PENALTY= 0.5 TPQ TPQP TRQ
  CG2DC1   CG2DC1   CG2R51     5   120.920000   242.420960   0.00000000         0.00 ; TRQ, by ac_aa
  CG2DC1   CG2DC1   CG2R61     5   122.000000   242.672000   0.00000000         0.00 ; from CG2DC3 CG2DC1 CG2R61, PENALTY= 3.5 STYA
  CG2DC1   CG2DC1    CG301     5   123.500000   401.664000   0.00000000         0.00 ; RETINOL MECH
  CG2DC1   CG2DC1    CG321     5   123.500000   401.664000   0.00000000         0.00 ; RETINOL MECH
  CG2DC1   CG2DC1    CG331     5   123.500000   401.664000   0.00000000         0.00 ; RETINOL BTE2, 2-butene
  CG2DC1   CG2DC1     HGA4     5   119.000000   351.456000   0.00000000         0.00 ; RETINOL BTE2, 2-butene
  CG2DC2   CG2DC1   CG2DC2     5   122.960000   390.450880   0.00000000         0.00 ; CR8D, by ac_aa
  CG2DC2   CG2DC1   CG2DC3     5   123.500000   401.664000   0.00000000         0.00 ; RETINOL 13DB, 1,3-Butadiene
  CG2DC2   CG2DC1    CG2O5     5   121.570000   403.002880   0.00000000         0.00 ; sb_ot 2021, from CG2O5  CG2DC2 CG2DC1
  CG2DC2   CG2DC1    CG301     5   123.500000   401.664000   0.00000000         0.00 ; RETINOL MECH
  CG2DC2   CG2DC1    CG331     5   113.000000   401.664000   0.00000000         0.00 ; RETINOL DMB1, 2-methyl-1,3-butadiene
  CG2DC2   CG2DC1    NG2D1     5   121.530000   470.030560   0.00000000         0.00 ; sb_ot 2021, from CG2DC1 CG2DC2 NG2D1
  CG2DC2   CG2DC1    NG2P1     5   125.600000   334.720000   0.00000000         0.00 ; RETINOL SCH3, Schiff's base, protonated
  CG2DC2   CG2DC1     HGA4     5   118.000000   351.456000   0.00000000         0.00 ; RETINOL 13DB, 1,3-Butadiene
  CG2DC2   CG2DC1    HGR52     5   120.400000   351.456000   0.00000000         0.00 ; RETINOL SCH3, Schiff's base, protonated
  CG2DC3   CG2DC1    CG2O3     5   119.000000   334.720000   0.25267000     29288.00 ; RETINOL PRAC
  CG2DC3   CG2DC1    CG2O4     5   120.000000   502.080000   0.00000000         0.00 ; RETINOL PRAL unmodified
  CG2DC3   CG2DC1    CG2O5     5   118.600000   292.880000   0.00000000         0.00 ; BEON, butenone, kevo
  CG2DC3   CG2DC1   CG2R51     5   122.000000   242.672000   0.00000000         0.00 ; from CG2DC3 CG2DC1 CG2R61, PENALTY= 8.5 SWG
  CG2DC3   CG2DC1   CG2R61     5   122.000000   242.672000   0.00000000         0.00 ; STYR, styrene, xxwy & oashi
  CG2DC3   CG2DC1    CG321     5   123.500000   401.664000   0.00000000         0.00 ; from CG2DC3 CG2DC2 CG331, PENALTY= 0.9 2NP
  CG2DC3   CG2DC1    CG331     5   123.500000   401.664000   0.00000000         0.00 ; RETINOL DMB1, 2-methyl-1,3-butadiene
  CG2DC3   CG2DC1     HGA4     5   118.000000   351.456000   0.00000000         0.00 ; RETINOL 13DB, 1,3-Butadiene
   CG2O1   CG2DC1    CG321     5   123.500000   543.920000   0.00000000         0.00 ; NICH; Kenno: nadh/ppi, jjp1/adm jr. 7/95 says 125.0 124.2 but that's unlikely ==> re-optimize
   CG2O1   CG2DC1     HGA4     5   119.500000   435.136000   0.00000000         0.00 ; RETINOL CROT
   CG2O2   CG2DC1     HGA4     5   122.000000   267.776000   0.00000000         0.00 ; from CG2O4 CG2DC2 HGA4, PENALTY= 1.5 DYA
   CG2O3   CG2DC1    CG321     5   123.500000   543.920000   0.00000000         0.00 ; from CG2O1 CG2DC1 CG321, PENALTY= 7.5 2NP
   CG2O3   CG2DC1    CG331     5   123.500000   543.920000   0.00000000         0.00 ; from CG2O1 CG2DC2 CG321, penalty= 8.4 KPI MCL
   CG2O3   CG2DC1    NG2D1     5   129.030000   272.713120   0.00000000         0.00 ; MCL, by ac_aa
   CG2O3   CG2DC1     HGA4     5   119.500000   435.136000   0.00000000         0.00 ; RETINOL PRAC
   CG2O4   CG2DC1     HGA4     5   122.000000   267.776000   0.00000000         0.00 ; RETINOL RTAL unmodified
   CG2O5   CG2DC1    CG321     5   123.500000   543.920000   0.00000000         0.00 ; from CG2O1 CG2DC2 CG321, PENALTY= 3 TPQ TPQP
   CG2O5   CG2DC1    NG2D1     5   114.690000   506.012960   0.00000000         0.00 ; sb_ot 2021, from CG2O5  CG2DC2 NG2D1
   CG2O5   CG2DC1     HGA4     5   123.400000   267.776000   0.00000000         0.00 ; BEON, butenone, kevo
  CG2R51   CG2DC1     HGA4     5   120.000000   267.776000   0.00000000         0.00 ; 23 , from CG2R61 CG2DC1 HGA4, penalty= 8.5 TQQ TRQ  SWG CRF CR8D
  CG2R53   CG2DC1    CG321     5   127.340000   405.345920   0.00000000         0.00 ; from CG331 CG2DC1 CG2R53, CRQ
  CG2R53   CG2DC1    CG331     5   127.340000   405.345920   0.00000000         0.00 ; NRQ, by ac_aa
  CG2R53   CG2DC1    NG2D1     5   117.000000   468.608000   0.00000000         0.00 ; from CG2R61 CG2DC1 NG2D1, PENALTY= 8.5 CRQ XYG NRQ
  CG2R61   CG2DC1    NG2D1     5   117.000000   468.608000   0.00000000         0.00 ; HDZ1b, hydrazone model cmpd 1b, kevo
  CG2R61   CG2DC1     HGA4     5   120.000000   267.776000   0.00000000         0.00 ; HDZ1b, hydrazone model cmpd 1b; STYR, styrene; kevo, xxwy, oashi
   CG321   CG2DC1    CG331     5   123.500000   401.664000   0.00000000         0.00 ; RETINOL MECH
   CG321   CG2DC1    NG2D1     5   142.240000   463.168800   0.00000000         0.00 ; from NG2D1 CG2DC1 CG331, CRQ
   CG321   CG2DC1     HGA4     5   116.000000   334.720000   0.00000000         0.00 ; RETINOL PROL
   CG331   CG2DC1    CG331     5   113.000000   393.296000   0.00000000         0.00 ; RETINOL DMP1, 4-methyl-1,3-pentadiene
   CG331   CG2DC1    NG2D1     5   142.240000   463.168800   0.00000000         0.00 ; MCL, by ac_aa
   CG331   CG2DC1     HGA4     5   117.500000   351.456000   0.00000000         0.00 ; RETINOL BTE2, 2-butene
   NG2D1   CG2DC1     HGA4     5   123.000000   317.984000   0.00000000         0.00 ; HDZ1b, hydrazone model cmpd 1b, kevo
   NG2P1   CG2DC1    HGR52     5   114.000000   317.984000   0.00000000         0.00 ; RETINOL SCH2, Schiff's base, protonated
  CG252O   CG2DC2   CG2R51     5   122.000000   242.672000   0.00000000         0.00 ; SWG, by ac_aa
  CG252O   CG2DC2   CG2R61     5   110.070000   247.692800   0.00000000         0.00 ; XYG, by ac_aa
  CG252O   CG2DC2    CG331     5   118.450000   370.535040   0.00000000         0.00 ; DYG NRQ, by ac_aa
  CG252O   CG2DC2     HGA4     5   116.190000   252.713600   0.00000000         0.00 ; NRQ DYG, by ac_aa
  CG2D2O   CG2DC2   CG2DC1     5   120.000000   401.664000   0.00000000         0.00 ; PY02, 2h-pyran
  CG2D2O   CG2DC2    CG2O1     5   113.000000   543.920000   0.00000000         0.00 ; NICH; Kenno: nad/ppi, jjp1/adm jr. 7/95 says 5.0 107.8 but that's too unlikely ==> re-optimize
  CG2D2O   CG2DC2    CG2O2     5   113.000000   543.920000   0.00000000         0.00 ; from CG2D1O CG2DC1 CG2O1, PENALTY= 2.5 DYA
  CG2D2O   CG2DC2    CG2O3     5   123.500000   401.664000   0.00000000         0.00 ; from CG2DC1 CG2DC1 CG2O3, PENALTY= 3.5 DYA
  CG2D2O   CG2DC2    CG2O5     5   113.000000   543.920000   0.00000000         0.00 ; from CG2D1O CG2DC1 CG2O1, PENALTY= 3 TPQ TPQP
  CG2D2O   CG2DC2    CG321     5   126.500000   364.008000   0.00000000         0.00 ; NICH; Kenno: nadh/ppi, jjp1/adm jr. 7/95 says 43.50 128.00 but that's unlikely ==> re-optimize
  CG2D2O   CG2DC2    CG331     5   126.500000   364.008000   0.00000000         0.00 ; from CG2D1O CG2DC1 CG321, sm071
  CG2D2O   CG2DC2     HGA4     5   122.000000   351.456000   0.00000000         0.00 ; PY02, 2h-pyran
  CG2DC1   CG2DC2   CG2DC1     5   122.960000   390.450880   0.00000000         0.00 ; CR8D, by ac_aa
  CG2DC1   CG2DC2   CG2DC2     5   123.000000   401.664000   0.00000000         0.00 ; RETINOL 13DP, Pentadiene @@@@@ Kenno: 123.5-->123.0 @@@@@
  CG2DC1   CG2DC2   CG2DC3     5   123.500000   401.664000   0.00000000         0.00 ; RETINOL 13DB, 1,3-Butadiene
  CG2DC1   CG2DC2    CG2O5     5   121.570000   403.002880   0.00000000         0.00 ; sb_ot 2021, from CG2O5  CG2DC2 CG2DC1
  CG2DC1   CG2DC2    CG301     5   123.500000   401.664000   0.00000000         0.00 ; RETINOL MECH
  CG2DC1   CG2DC2    CG331     5   113.000000   401.664000   0.00000000         0.00 ; RETINOL DMB1, 2-methyl-1,3-butadiene
  CG2DC1   CG2DC2    NG2D1     5   121.530000   470.030560   0.00000000         0.00 ; sb_ot 2021, from CG2DC1 CG2DC2 NG2D1
  CG2DC1   CG2DC2    NG2P1     5   125.600000   334.720000   0.00000000         0.00 ; RETINOL SCH3, Schiff's base, protonated
  CG2DC1   CG2DC2     HGA4     5   118.000000   351.456000   0.00000000         0.00 ; RETINOL 13DB, 1,3-Butadiene
  CG2DC1   CG2DC2    HGR52     5   120.400000   351.456000   0.00000000         0.00 ; RETINOL SCH3, Schiff's base, protonated
  CG2DC2   CG2DC2    CG2O1     5   123.500000   401.664000   0.00000000         0.00 ; RETINOL CROT
  CG2DC2   CG2DC2    CG2O3     5   123.500000   401.664000   0.00000000         0.00 ; RETINOL PRAC
  CG2DC2   CG2DC2    CG2O4     5   120.000000   502.080000   0.00000000         0.00 ; RETINOL RTAL unmodified
  CG2DC2   CG2DC2    CG2O5     5   120.000000   502.080000   0.00000000         0.00 ; from CG2DC1 CG2DC1 CG2O4, PENALTY= 0.5 TPQ TPQP TRQ
  CG2DC2   CG2DC2   CG2R51     5   120.920000   242.420960   0.00000000         0.00 ; TRQ, by ac_aa
  CG2DC2   CG2DC2   CG2R61     5   122.000000   242.672000   0.00000000         0.00 ; from CG2DC3 CG2DC1 CG2R61, PENALTY= 3.5 STYA
  CG2DC2   CG2DC2    CG301     5   123.500000   401.664000   0.00000000         0.00 ; RETINOL MECH
  CG2DC2   CG2DC2    CG321     5   123.500000   401.664000   0.00000000         0.00 ; RETINOL MECH
  CG2DC2   CG2DC2    CG331     5   123.500000   401.664000   0.00000000         0.00 ; RETINOL BTE2, 2-butene
  CG2DC2   CG2DC2     HGA4     5   119.000000   351.456000   0.00000000         0.00 ; RETINOL BTE2, 2-butene
  CG2DC3   CG2DC2    CG2O3     5   119.000000   334.720000   0.25267000     29288.00 ; RETINOL PRAC
  CG2DC3   CG2DC2    CG2O4     5   120.000000   502.080000   0.00000000         0.00 ; RETINOL PRAL unmodified
  CG2DC3   CG2DC2    CG2O5     5   118.600000   292.880000   0.00000000         0.00 ; BEON, butenone, kevo
  CG2DC3   CG2DC2   CG2R51     5   122.000000   242.672000   0.00000000         0.00 ; from CG2DC3 CG2DC1 CG2R61, PENALTY= 8.5 SWG
  CG2DC3   CG2DC2   CG2R61     5   122.000000   242.672000   0.00000000         0.00 ; STYR, styrene, xxwy & oashi
  CG2DC3   CG2DC2    CG321     5   123.500000   401.664000   0.00000000         0.00 ; from CG2DC3 CG2DC2 CG331, PENALTY= 0.9 2NP
  CG2DC3   CG2DC2    CG331     5   123.500000   401.664000   0.00000000         0.00 ; RETINOL DMB1, 2-methyl-1,3-butadiene
  CG2DC3   CG2DC2     HGA4     5   118.000000   351.456000   0.00000000         0.00 ; RETINOL 13DB, 1,3-Butadiene
   CG2O1   CG2DC2    CG321     5   123.500000   543.920000   0.00000000         0.00 ; NICH; Kenno: nadh/ppi, jjp1/adm jr. 7/95 says 125.0 124.2 but that's unlikely ==> re-optimize
   CG2O1   CG2DC2     HGA4     5   119.500000   435.136000   0.00000000         0.00 ; RETINOL CROT
   CG2O2   CG2DC2     HGA4     5   122.000000   267.776000   0.00000000         0.00 ; from CG2O4 CG2DC2 HGA4, PENALTY= 1.5 DYA
   CG2O3   CG2DC2    CG321     5   123.500000   543.920000   0.00000000         0.00 ; from CG2O1 CG2DC1 CG321, PENALTY= 7.5 2NP
   CG2O3   CG2DC2    CG331     5   123.500000   543.920000   0.00000000         0.00 ; from CG2O1 CG2DC2 CG321, penalty= 8.4 KPI MCL
   CG2O3   CG2DC2    NG2D1     5   129.030000   272.713120   0.00000000         0.00 ; MCL, by ac_aa
   CG2O3   CG2DC2     HGA4     5   119.500000   435.136000   0.00000000         0.00 ; RETINOL PRAC
   CG2O4   CG2DC2     HGA4     5   122.000000   267.776000   0.00000000         0.00 ; RETINOL RTAL unmodified
   CG2O5   CG2DC2    CG321     5   123.500000   543.920000   0.00000000         0.00 ; from CG2O1 CG2DC2 CG321, PENALTY= 3 TPQ TPQP
   CG2O5   CG2DC2    NG2D1     5   114.690000   506.012960   0.00000000         0.00 ; sb_ot 2021, from CG2O5  CG2DC2 NG2D1
   CG2O5   CG2DC2     HGA4     5   123.400000   267.776000   0.00000000         0.00 ; BEON, butenone, kevo
  CG2R51   CG2DC2     HGA4     5   120.000000   267.776000   0.00000000         0.00 ; 23 , from CG2R61 CG2DC1 HGA4, penalty= 8.5 TQQ TRQ  SWG CRF CR8D
  CG2R53   CG2DC2    CG321     5   127.340000   405.345920   0.00000000         0.00 ; from CG331 CG2DC1 CG2R53, CRQ
  CG2R53   CG2DC2    CG331     5   127.340000   405.345920   0.00000000         0.00 ; NRQ, by ac_aa
  CG2R53   CG2DC2    NG2D1     5   117.000000   468.608000   0.00000000         0.00 ; from CG2R61 CG2DC1 NG2D1, PENALTY= 8.5 CRQ XYG NRQ
  CG2R61   CG2DC2    NG2D1     5   117.000000   468.608000   0.00000000         0.00 ; HDZ1b, hydrazone model cmpd 1b, kevo
  CG2R61   CG2DC2     HGA4     5   120.000000   267.776000   0.00000000         0.00 ; HDZ1b, hydrazone model cmpd 1b; STYR, styrene; kevo, xxwy, oashi
   CG321   CG2DC2    CG331     5   123.500000   401.664000   0.00000000         0.00 ; RETINOL MECH
   CG321   CG2DC2    NG2D1     5   142.240000   463.168800   0.00000000         0.00 ; from NG2D1 CG2DC1 CG331, CRQ
   CG321   CG2DC2     HGA4     5   116.000000   334.720000   0.00000000         0.00 ; RETINOL PROL
   CG331   CG2DC2    CG331     5   113.000000   393.296000   0.00000000         0.00 ; RETINOL DMP1, 4-methyl-1,3-pentadiene
   CG331   CG2DC2    NG2D1     5   142.240000   463.168800   0.00000000         0.00 ; MCL, by ac_aa
   CG331   CG2DC2     HGA4     5   117.500000   351.456000   0.00000000         0.00 ; RETINOL BTE2, 2-butene
   NG2D1   CG2DC2     HGA4     5   123.000000   317.984000   0.00000000         0.00 ; HDZ1b, hydrazone model cmpd 1b, kevo
   NG2P1   CG2DC2    HGR52     5   114.000000   317.984000   0.00000000         0.00 ; RETINOL SCH2, Schiff's base, protonated
  CG251O   CG2DC3     HGA5     5   120.500000   292.880000   0.00000000         0.00 ; MRDN, methylidene rhodanine, kevo & xxwy
  CG252O   CG2DC3     HGA5     5   120.500000   292.880000   0.00000000         0.00 ; MRDN, methylidene rhodanine, kevo & xxwy
  CG25C1   CG2DC3     HGA5     5   120.500000   376.560000   0.00000000         0.00 ; MEOI, methyleneoxindole; from RETINOL 13DB, 1,3-Butadiene (re-optimize); kevo
  CG25C2   CG2DC3     HGA5     5   120.500000   376.560000   0.00000000         0.00 ; MEOI, methyleneoxindole; from RETINOL 13DB, 1,3-Butadiene (re-optimize); kevo
  CG2DC1   CG2DC3     HGA5     5   120.500000   376.560000   0.00000000         0.00 ; RETINOL 13DB, 1,3-Butadiene
  CG2DC2   CG2DC3     HGA5     5   120.500000   376.560000   0.00000000         0.00 ; RETINOL 13DB, 1,3-Butadiene
    HGA5   CG2DC3     HGA5     5   119.000000   158.992000   0.00000000         0.00 ; RETINOL 13DB, 1,3-Butadiene
   NG2D1    CG2N1    NG311     5   125.000000   418.400000   0.00000000         0.00 ; MGU2, methylguanidine2
   NG2D1    CG2N1    NG321     5   125.000000   836.800000   0.00000000         0.00 ; MGU1, methylguanidine; MGU2, methylguanidine2
   NG2P1    CG2N1    NG2P1     5   120.000000   435.136000   0.23642000     75312.00 ; PROT changed from 60.0/120.3 for guanidinium (KK)
   NG311    CG2N1    NG321     5   113.000000   418.400000   0.00000000         0.00 ; MGU2, methylguanidine2 kevo: sum=363 (deliberate)
   NG321    CG2N1    NG321     5   113.000000   627.600000   0.00000000         0.00 ; MGU1, methylguanidine kevo: sum=363 (deliberate)
  CG2R51    CG2N2    NG2P1     5   118.500000   527.184000   0.00000000         0.00 ; RCG, yxu, RNA
  CG2R61    CG2N2    NG2P1     5   118.500000   669.440000   0.00000000         0.00 ; BAMI, benzamidinium, mp2 geom & movib, pram
   CG331    CG2N2    NG2P1     5   118.500000   435.136000   0.00000000         0.00 ; AMDN, amidinium, mp2 geom, pram
   NG2D1    CG2N2    NG2D1     5   132.000000   585.760000   0.00000000         0.00 ; ABSB, amide base, sr
   NG2D1    CG2N2    NG321     5   127.000000   711.280000   0.00000000         0.00 ; MT2A, fylin
   NG2D1    CG2N2    SG311     5   116.400000   309.616000   0.00000000         0.00 ; MT2A, fylin
   NG2P1    CG2N2    NG2P1     5   123.000000   435.136000   0.23642000     75312.00 ; AMDN, amidinium, mp2 geom & movib, pram
   NG321    CG2N2    SG311     5   116.600000   468.608000   0.00000000         0.00 ; MT2A, fylin
  CG2D1O    CG2O1    NG2S1     5   116.500000   669.440000   0.00000000         0.00 ; from CG2DC1 CG2O1 NG2S1, PENALTY= 3.5 DYA
  CG2D1O    CG2O1    OG2D1     5   122.500000   669.440000   0.00000000         0.00 ; from CG2DC1 CG2O1 OG2D1, PENALTY= 3.5 DYA
  CG2D2O    CG2O1    NG2S1     5   116.500000   669.440000   0.00000000         0.00 ; from CG2DC1 CG2O1 NG2S1, PENALTY= 3.5 DYA
  CG2D2O    CG2O1    OG2D1     5   122.500000   669.440000   0.00000000         0.00 ; from CG2DC1 CG2O1 OG2D1, PENALTY= 3.5 DYA
  CG2DC1    CG2O1    NG2D1     5   107.500000   836.800000   0.00000000         0.00 ; ABSB, amide base, sr
  CG2DC1    CG2O1    NG2S1     5   116.500000   669.440000   0.00000000         0.00 ; RETINOL CROT
  CG2DC1    CG2O1    NG2S2     5   113.000000   711.280000   0.24600000     66944.00 ; NICH; Kenno: reverted to nad/ppi, jjp1/adm jr. 7/95
  CG2DC1    CG2O1    OG2D1     5   122.500000   669.440000   0.00000000         0.00 ; RETINOL CROT
  CG2DC2    CG2O1    NG2D1     5   107.500000   836.800000   0.00000000         0.00 ; ABSB, amide base, sr
  CG2DC2    CG2O1    NG2S1     5   116.500000   669.440000   0.00000000         0.00 ; RETINOL CROT
  CG2DC2    CG2O1    NG2S2     5   113.000000   711.280000   0.24600000     66944.00 ; NICH; Kenno: reverted to nad/ppi, jjp1/adm jr. 7/95
  CG2DC2    CG2O1    OG2D1     5   122.500000   669.440000   0.00000000         0.00 ; RETINOL CROT
  CG2R51    CG2O1    NG2S1     5   115.500000   435.136000   0.00000000         0.00 ; INCA model for D3R, xxwy
  CG2R51    CG2O1    OG2D1     5   122.000000   376.560000   0.00000000         0.00 ; INCA model for D3R, xxwy
  CG2R61    CG2O1    NG2D1     5   117.000000   669.440000   0.00000000         0.00 ; ABBM, amide base, sr
  CG2R61    CG2O1    NG2S1     5   116.500000   669.440000   0.00000000         0.00 ; HDZ2, hydrazone model cmpd 2
  CG2R61    CG2O1    NG2S2     5   110.230000   418.400000   0.00000000         0.00 ; 3NAP, nicotamide (PYRIDINE pyr-CONH2), yin
  CG2R61    CG2O1    OG2D1     5   121.000000   251.040000   0.00000000         0.00 ; reverted to 3NAP, nicotamide. Kenno: compromise with NMA and HDZ2 ==> 124.5 --> 121.00
  CG2R62    CG2O1    NG2S2     5   113.000000   711.280000   0.24600000     66944.00 ; NA nad/ppi, jjp1/adm jr. 7/95
  CG2R62    CG2O1    OG2D1     5   118.500000   711.280000   0.24300000     16736.00 ; NA nad/ppi, jjp1/adm jr. 7/95
   CG311    CG2O1    NG2D1     5   108.810000   669.440000   0.00000000         0.00 ; XYG, by ac_aa
   CG311    CG2O1    NG2S0     5   112.500000   167.360000   0.00000000         0.00 ; PROT AcProNH2, ProNH2, AcProNHCH3 RLD 4/23/93
   CG311    CG2O1    NG2S1     5   116.500000   669.440000   0.00000000         0.00 ; PROT NMA Vib Modes (LK)
   CG311    CG2O1    NG2S2     5   116.500000   418.400000   0.24500000     41840.00 ; PROT adm jr. 8/13/90  geometry and vibrations
   CG311    CG2O1    OG2D1     5   121.000000   669.440000   0.00000000         0.00 ; PROT Alanine Dipeptide ab initio calc's (LK)
   CG314    CG2O1    NG2S0     5   112.500000   167.360000   0.00000000         0.00 ; PROT AcProNH2, ProNH2, AcProNHCH3 RLD 4/23/93
   CG314    CG2O1    NG2S1     5   116.500000   669.440000   0.00000000         0.00 ; PROT NMA Vib Modes (LK)
   CG314    CG2O1    NG2S2     5   116.500000   418.400000   0.24500000     41840.00 ; PROT adm jr. 8/13/90  geometry and vibrations
   CG314    CG2O1    OG2D1     5   121.000000   669.440000   0.00000000         0.00 ; PROT Alanine Dipeptide ab initio calc's (LK)
   CG321    CG2O1    NG2S0     5   112.500000   167.360000   0.00000000         0.00 ; PROT AcProNH2, ProNH2, AcProNHCH3 RLD 4/23/93
   CG321    CG2O1    NG2S1     5   116.500000   669.440000   0.00000000         0.00 ; PROT NMA Vib Modes (LK)
   CG321    CG2O1    NG2S2     5   116.500000   418.400000   0.24500000     41840.00 ; PROT adm jr. 8/13/90  geometry and vibrations
   CG321    CG2O1    OG2D1     5   121.000000   669.440000   0.00000000         0.00 ; PROT Alanine Dipeptide ab initio calc's (LK)
   CG321    CG2O1    SG2D1     5   123.760000   455.470240   0.00000000         0.00 ; GL3, by ac_aa
   CG324    CG2O1    NG2S0     5   112.500000   167.360000   0.00000000         0.00 ; PROT AcProNH2, ProNH2, AcProNHCH3 RLD 4/23/93
   CG324    CG2O1    NG2S1     5   116.500000   669.440000   0.00000000         0.00 ; PROT NMA Vib Modes (LK)
   CG324    CG2O1    NG2S2     5   116.500000   418.400000   0.24500000     41840.00 ; PROT adm jr. 8/13/90  geometry and vibrations
   CG324    CG2O1    OG2D1     5   121.000000   669.440000   0.00000000         0.00 ; PROT Alanine Dipeptide ab initio calc's (LK)
   CG331    CG2O1    NG2D1     5   109.650000   590.613440   0.00000000         0.00 ; NRQ, by ac_aa
   CG331    CG2O1    NG2S0     5   115.000000   334.720000   0.00000000         0.00 ; DMF, Dimethylformamide, xxwy
   CG331    CG2O1    NG2S1     5   116.500000   669.440000   0.00000000         0.00 ; PROT NMA Vib Modes (LK)
   CG331    CG2O1    NG2S2     5   116.500000   418.400000   0.24500000     41840.00 ; PROT adm jr. 8/13/90  geometry and vibrations
   CG331    CG2O1    OG2D1     5   121.000000   669.440000   0.00000000         0.00 ; PROT Alanine Dipeptide ab initio calc's (LK)
  CG3C50    CG2O1    NG2S1     5   116.500000   669.440000   0.00000000         0.00 ; from CG3C51 CG2O1 NG2S1, sm140
  CG3C50    CG2O1    OG2D1     5   118.000000   669.440000   0.00000000         0.00 ; from CG3C51 CG2O1 OG2D1, PENALTY= 0.8 PXU
  CG3C51    CG2O1    NG2S0     5   112.500000   167.360000   0.00000000         0.00 ; PROT AcProNH2, ProNH2, AcProNHCH3 RLD 4/23/93
  CG3C51    CG2O1    NG2S1     5   116.500000   669.440000   0.00000000         0.00 ; PROT AcProNH2, ProNH2, AcProNHCH3 RLD 4/23/93
  CG3C51    CG2O1    NG2S2     5   112.500000   669.440000   0.00000000         0.00 ; PROT AcProNH2, ProNH2, AcProNHCH3 RLD 4/23/93
  CG3C51    CG2O1    OG2D1     5   118.000000   669.440000   0.00000000         0.00 ; PROT AcProNH2, ProNH2, AcProNHCH3 RLD 4/23/93
  CG3C53    CG2O1    NG2S0     5   112.500000   167.360000   0.00000000         0.00 ; PROT AcProNH2, ProNH2, AcProNHCH3 RLD 4/23/93
  CG3C53    CG2O1    NG2S1     5   116.500000   669.440000   0.00000000         0.00 ; PROT AcProNH2, ProNH2, AcProNHCH3 RLD 4/23/93
  CG3C53    CG2O1    NG2S2     5   112.500000   669.440000   0.00000000         0.00 ; PROT AcProNH2, ProNH2, AcProNHCH3 RLD 4/23/93
  CG3C53    CG2O1    OG2D1     5   118.000000   669.440000   0.00000000         0.00 ; PROT AcProNH2, ProNH2, AcProNHCH3 RLD 4/23/93
   NG2D1    CG2O1    OG2D1     5   120.540000   669.440000   0.00000000         0.00 ; NRQ, by ac_aa
   NG2S0    CG2O1    OG2D1     5   124.000000   669.440000   0.00000000         0.00 ; DMF, Dimethylformamide, xxwy
   NG2S0    CG2O1    HGR52     5   115.000000   359.824000   0.00000000         0.00 ; DMF, Dimethylformamide, xxwy
   NG2S1    CG2O1    OG2D1     5   122.500000   669.440000   0.00000000         0.00 ; PROT NMA Vib Modes (LK)
   NG2S1    CG2O1    SG2D1     5   126.520000   343.171680   0.00000000         0.00 ; GL3, by ac_aa
   NG2S1    CG2O1    HGR52     5   111.000000   368.192000   0.19800000     41840.00 ; amba, from NG2S2 CG2O1 HGR52, not optimized, yxu, RNA
   NG2S2    CG2O1    OG2D1     5   122.500000   627.600000   0.23700000     41840.00 ; PROT adm jr. 4/10/91, acetamide update
   NG2S2    CG2O1    HGR52     5   111.000000   368.192000   0.19800000     41840.00 ; PROT, formamide
   OG2D1    CG2O1    HGR52     5   122.000000   368.192000   0.00000000         0.00 ; kevo reverted to adm jr., 5/13/91, formamide geometry and vibrations
  CG2DC1    CG2O2    OG2D1     5   121.800000   585.760000   0.00000000         0.00 ; from CG2DC2 CG2O5 OG2D3, PENALTY= 10.5 DYA
  CG2DC1    CG2O2    OG311     5   112.470000   334.552640   0.23436000     25078.90 ; DYAP, by ac_aa
  CG2DC2    CG2O2    OG2D1     5   121.800000   585.760000   0.00000000         0.00 ; from CG2DC2 CG2O5 OG2D3, PENALTY= 10.5 DYA
  CG2DC2    CG2O2    OG311     5   112.470000   334.552640   0.23436000     25078.90 ; DYAP, by ac_aa
  CG2R61    CG2O2    OG2D1     5   123.100000   585.760000   0.24420000     16736.00 ; ZOIC, benzoic acid, MBOA, methylbenzoate, jal
  CG2R61    CG2O2    OG302     5   111.000000   418.400000   0.23600000     16736.00 ; MBOA, methylbenzoate (UB term has been adjusted), jal
  CG2R61    CG2O2    OG311     5   113.900000   334.720000   0.23700000     25104.00 ; ZOIC, benzoic acid (UB term has been adjusted), jal
  CG2R61    CG2O2    SG311     5   114.540000   364.259040   0.26826000     15572.85 ; JJJ, by ac_aa
   CG311    CG2O2    OG2D1     5   125.000000   585.760000   0.24420000     16736.00 ; PROT adm jr. 5/02/91, acetic acid pure solvent; LIPID methyl acetate
   CG311    CG2O2    OG302     5   109.000000   460.240000   0.23260000     16736.00 ; AMGA, Alpha Methyl Glut Acid CDCA Amide
   CG311    CG2O2    OG311     5   110.500000   460.240000   0.00000000         0.00 ; drug design project, xxwy
   CG321    CG2O2    OG2D1     5   125.000000   585.760000   0.24420000     16736.00 ; PROT adm jr. 5/02/91, acetic acid pure solvent; LIPID methyl acetate
   CG321    CG2O2    OG302     5   109.000000   460.240000   0.23260000     16736.00 ; LIPID methyl acetate
   CG321    CG2O2    OG303     5   109.000000   460.240000   0.23260000     16736.00 ; from CG321 CG2O2 OG302, PENALTY= 2.5 PHD PHDP
   CG321    CG2O2    OG311     5   110.500000   460.240000   0.00000000         0.00 ; PROT adm jr, 10/17/90, acetic acid vibrations
   CG321    CG2O2    SG311     5   112.730000   331.289120   0.27670000     16677.42 ; MCS, by ac_aa
   CG331    CG2O2    OG2D1     5   125.000000   585.760000   0.24420000     16736.00 ; PROT adm jr. 5/02/91, acetic acid pure solvent; LIPID methyl acetate
   CG331    CG2O2    OG302     5   109.000000   460.240000   0.23260000     16736.00 ; LIPID methyl acetate
   CG331    CG2O2    OG311     5   110.500000   460.240000   0.00000000         0.00 ; PROT adm jr, 10/17/90, acetic acid vibrations
   CG331    CG2O2    SG311     5   116.030000   358.485120   0.27788000     16685.79 ; CYG, by ac_aa
   OG2D1    CG2O2    OG302     5   125.900000   753.120000   0.22576000    133888.00 ; LIPID acetic acid
   OG2D1    CG2O2    OG303     5   125.900000   753.120000   0.22576000    133888.00 ; from OG2D1 CG2O2 OG302, PENALTY= 2.5 PHD PHDP
   OG2D1    CG2O2    OG311     5   123.000000   418.400000   0.22620000    175728.00 ; PROT adm jr, 10/17/90, acetic acid vibrations
   OG2D1    CG2O2    SG311     5   122.400000   572.203840   0.27094000     16476.59 ; JJJ MCS CYG, by ac_aa
   OG2D1    CG2O2    HGR52     5   119.000000   326.352000   0.00000000         0.00 ; FORH, formic acid, xxwy
   OG311    CG2O2    HGR52     5   105.000000   393.296000   0.00000000         0.00 ; FORH, formic acid, xxwy
  CG2DC1    CG2O3    OG2D2     5   116.000000   334.720000   0.23530000     41840.00 ; RETINOL PRAC
  CG2DC2    CG2O3    OG2D2     5   116.000000   334.720000   0.23530000     41840.00 ; RETINOL PRAC
   CG2O5    CG2O3    OG2D2     5   116.000000   794.960000   0.00000000         0.00 ; BIPHENYL ANALOGS unmodified, peml
  CG2R61    CG2O3    OG2D2     5   116.000000   334.720000   0.23530000     41840.00 ; 3CPY, pyridine-3-carboxylate (PYRIDINE nicotinic acid), yin
   CG301    CG2O3    OG2D2     5   116.000000   334.720000   0.23530000     41840.00 ; AMOL, alpha-methoxy-lactic acid, og
   CG311    CG2O3    OG2D2     5   116.000000   334.720000   0.23530000     41840.00 ; PROT adm jr. 7/23/91, correction, ACETATE (KK)
   CG314    CG2O3    OG2D2     5   116.000000   334.720000   0.23530000     41840.00 ; PROT adm jr. 7/23/91, correction, ACETATE (KK)
   CG321    CG2O3    OG2D2     5   116.000000   334.720000   0.23530000     41840.00 ; PROT adm jr. 7/23/91, correction, ACETATE (KK)
   CG322    CG2O3    OG2D2     5   104.010000   259.240640   0.24370000     41831.63 ; FGA4, by ac_aa
   CG324    CG2O3    OG2D2     5   116.000000   334.720000   0.23530000     41840.00 ; PROT adm jr. 7/23/91, correction, ACETATE (KK)
   CG331    CG2O3    OG2D2     5   116.000000   334.720000   0.23530000     41840.00 ; PROT adm jr. 7/23/91, correction, ACETATE (KK)
  CG3C51    CG2O3    OG2D2     5   116.000000   334.720000   0.23530000     41840.00 ; PROT AcProNH2, ProNH2, AcProNHCH3 RLD 4/23/93
  CG3C53    CG2O3    OG2D2     5   116.000000   334.720000   0.23530000     41840.00 ; PROT AcProNH2, ProNH2, AcProNHCH3 RLD 4/23/93
   NG2S1    CG2O3    OG2D2     5   105.910000   665.088640   0.00000000         0.00 ; KCX, by ac_aa
   OG2D2    CG2O3    OG2D2     5   128.000000   836.800000   0.22587000     58576.00 ; PROT adm jr. 7/23/91, correction, ACETATE (KK)
   OG2D2    CG2O3    HGR52     5   116.000000   376.560000   0.00000000         0.00 ; FORA, formate, kevo (sum=360)
  CG2DC1    CG2O4    OG2D1     5   126.000000   627.600000   0.00000000         0.00 ; RETINOL PRAL only angle modified
  CG2DC1    CG2O4    HGR52     5   116.000000   125.520000   0.00000000         0.00 ; RETINOL PRAL only angle modified
  CG2DC2    CG2O4    OG2D1     5   126.000000   627.600000   0.00000000         0.00 ; RETINOL PRAL only angle modified
  CG2DC2    CG2O4    HGR52     5   116.000000   125.520000   0.00000000         0.00 ; RETINOL PRAL only angle modified
  CG2R61    CG2O4    OG2D1     5   126.000000   627.600000   0.00000000         0.00 ; ALDEHYDE benzaldehyde only angle unmodified
  CG2R61    CG2O4    HGR52     5   116.000000   125.520000   0.00000000         0.00 ; ALDEHYDE benzaldehyde only angle unmodified
  CG2R62    CG2O4    OG2D1     5   126.000000   627.600000   0.00000000         0.00 ; 5FC, from CG2R61 CG2O4 OG2D1, yxu, RNA
  CG2R62    CG2O4    HGR52     5   114.000000   184.096000   0.00000000         0.00 ; 5FC, yxu, RNA
   CG311    CG2O4    OG2D1     5   126.000000   376.560000   0.00000000         0.00 ; amba, from CG321 CG2O4 OG2D1, not optimized, yxu, RNA
   CG311    CG2O4    HGR52     5   116.000000   543.920000   0.00000000         0.00 ; amba, from CG321 CG2O4 HGR52, not optimized, yxu, RNA
   CG321    CG2O4    OG2D1     5   126.000000   376.560000   0.00000000         0.00 ; ALDEHYDE propionaldehyde adm 11/08
   CG321    CG2O4    HGR52     5   116.000000   543.920000   0.00000000         0.00 ; ALDEHYDE propionaldehyde adm 11/08
   CG331    CG2O4    OG2D1     5   126.000000   376.560000   0.00000000         0.00 ; ALDEHYDE acetaldehyde adm 11/08
   CG331    CG2O4    HGR52     5   116.000000   543.920000   0.00000000         0.00 ; ALDEHYDE acetaldehyde adm 11/08
  CG3C41    CG2O4   CG3C41     5    98.000000   744.752000   0.00000000         0.00 ; 3OXT, ozyo
  CG3C41    CG2O4    OG2D1     5   134.000000   585.760000   0.00000000         0.00 ; 2OXT, ozyo, 04/19
  CG3C41    CG2O4    OG2D3     5   134.000000   669.440000   0.00000000         0.00 ; 3OXT, ozyo
  CG3C41    CG2O4   OG3C51     5    99.000000   744.752000   0.00000000         0.00 ; 2OXT, ozyo
   OG2D1    CG2O4   OG3C51     5   127.000000   585.760000   0.00000000         0.00 ; 2OXT, ozyo, 04/19
   OG2D1    CG2O4    HGR52     5   118.000000   543.920000   0.00000000         0.00 ; ALDEHYDE acetaldehyde adm 11/08
  CG2D1O    CG2O5   CG2DC1     5   107.730000   339.657120   0.00000000         0.00 ; TPQ, by ac_aa
  CG2D1O    CG2O5    OG2D3     5   121.800000   585.760000   0.00000000         0.00 ; from CG2DC1 CG2O5 OG2D3, PENALTY= 3.5 TPQ TPQP
  CG2D2O    CG2O5   CG2DC2     5   107.730000   339.657120   0.00000000         0.00 ; TPQ, by ac_aa
  CG2D2O    CG2O5    OG2D3     5   121.800000   585.760000   0.00000000         0.00 ; from CG2DC1 CG2O5 OG2D3, PENALTY= 3.5 TPQ TPQP
  CG2DC1    CG2O5   CG2DC1     5   102.840000   301.248000   0.00000000         0.00 ; TPQ, by ac_aa
  CG2DC1    CG2O5    CG2O5     5   117.430000   308.360800   0.00000000         0.00 ; TRQ, by ac_aa
  CG2DC1    CG2O5   CG2R51     5   108.420000   335.389440   0.00000000         0.00 ; sb_ot 2021, from CG2R51 CG2O5  CG2DC2
  CG2DC1    CG2O5    CG331     5   116.000000   292.880000   0.00000000         0.00 ; BEON, butenone; from PHMK, phenyl methyl ketone; kevo
  CG2DC1    CG2O5    OG2D3     5   121.800000   585.760000   0.00000000         0.00 ; BEON, butenone; from PHMK, phenyl methyl ketone; kevo
  CG2DC2    CG2O5   CG2DC2     5   102.840000   301.248000   0.00000000         0.00 ; TPQ, by ac_aa
  CG2DC2    CG2O5    CG2O5     5   117.430000   308.360800   0.00000000         0.00 ; TRQ, by ac_aa
  CG2DC2    CG2O5   CG2R51     5   108.420000   335.389440   0.00000000         0.00 ; sb_ot 2021, from CG2R51 CG2O5  CG2DC2
  CG2DC2    CG2O5    CG331     5   116.000000   292.880000   0.00000000         0.00 ; BEON, butenone; from PHMK, phenyl methyl ketone; kevo
  CG2DC2    CG2O5    OG2D3     5   121.800000   585.760000   0.00000000         0.00 ; BEON, butenone; from PHMK, phenyl methyl ketone; kevo
   CG2O3    CG2O5   CG2R61     5   117.200000   334.720000   0.00000000         0.00 ; BIPHENYLS BF7 C37, sum of equilibrium angles, kevo
   CG2O3    CG2O5    CG321     5   108.190000   167.360000   0.00000000         0.00 ; 26P, by ac_aa
   CG2O3    CG2O5    OG2D3     5   121.500000   794.960000   0.00000000         0.00 ; BIPHENYLS BF7, C37 new init guess by Kenno based on ACO adm 11/08 ==> re-optimize
   CG2O5    CG2O5   CG2R51     5   107.150000   323.339520   0.00000000         0.00 ; TRQ, by ac_aa
   CG2O5    CG2O5    OG2D3     5   116.550000   751.781120   0.00000000         0.00 ; TRQ, by ac_aa
  CG2R51    CG2O5    OG2D3     5   121.300000   585.760000   0.00000000         0.00 ; 23 , from CG2R61 CG2O5 OG2D3, penalty= 8.5 8.5 TQQ TRQ
  CG2R61    CG2O5   CG2R61     5   107.750000   334.134240   0.00000000         0.00 ; PBF, by ac_aa
  CG2R61    CG2O5    CG311     5   117.200000   334.720000   0.00000000         0.00 ; BIPHENYLS BF6 C36, sum of equilibrium angles, kevo
  CG2R61    CG2O5    CG321     5   116.500000   167.360000   0.00000000         0.00 ; PHEK, phenyl ethyl ketone; from 3ACP, 3-acetylpyridine; mcs
  CG2R61    CG2O5    CG331     5   116.500000   502.080000   0.00000000         0.00 ; PHMK, phenyl methyl ketone, mcs
  CG2R61    CG2O5    OG2D3     5   121.300000   585.760000   0.00000000         0.00 ; 3ACP, 3-acetylpyridine; BF6 BF7 C36 C37; PHMK, phenyl methyl ketone; verified by mcs
   CG311    CG2O5    OG2D3     5   121.500000   794.960000   0.00000000         0.00 ; BIPHENYLS BF6, C36 new init guess by Kenno based on ACO adm 11/08 ==> re-optimize
   CG321    CG2O5    CG321     5   115.600000   292.880000   0.00000000         0.00 ; CHON, cyclohexanone; from ACO, acetone; yapol
   CG321    CG2O5    CG331     5   115.600000   292.880000   0.00000000         0.00 ; BTON, butanone; from ACO, acetone; yapol
   CG321    CG2O5    OG2D3     5   122.200000   627.600000   0.00000000         0.00 ; BTON, butanone; from ACO, acetone; yapol
   CG331    CG2O5    CG331     5   115.600000   292.880000   0.00000000         0.00 ; ACO, acetone adm 11/08
   CG331    CG2O5    OG2D3     5   122.200000   627.600000   0.00000000         0.00 ; ACO, acetone adm 11/08
   NG2D1    CG2O6    NG2S1     5   112.500000   599.148800   0.00000000         0.00 ; flavin
   NG2D1    CG2O6    OG2D1     5   125.440000   733.120480   0.00000000         0.00 ; flavin
  NG2R51    CG2O6    NG2S1     5   112.300000   418.400000   0.00000000         0.00 ; TICA model for D3R, xxwy
  NG2R51    CG2O6    OG2D1     5   122.000000   585.760000   0.00000000         0.00 ; TICA model for D3R, xxwy
   NG2S0    CG2O6    NG2S1     5   112.900000   589.944000   0.00000000         0.00 ; H2U, yxu, 21/2/14, RNA
   NG2S0    CG2O6    OG2D1     5   125.700000   524.673600   0.00000000         0.00 ; H2U, yxu, RNA
   NG2S0    CG2O6    OG302     5   110.300000   753.120000   0.00000000         0.00 ; from NG2S1 CG2O6 OG302, penalty= 1 BXT
   NG2S1    CG2O6    NG2S1     5   115.000000   585.760000   0.00000000         0.00 ; HNA, from NG2S2 CG2O6 NG2S2, cgenff_xyu, yxu, RNA
   NG2S1    CG2O6    NG2S2     5   115.000000   585.760000   0.00000000         0.00 ; from NG2S2 CG2O6 NG2S2, PENALTY= 1 CIR THIC
   NG2S1    CG2O6    OG2D1     5   125.700000   502.080000   0.00000000         0.00 ; DMCB & DECB, dimethyl & diehtyl carbamate, cacha & kevo
   NG2S1    CG2O6    OG302     5   110.300000   753.120000   0.00000000         0.00 ; DMCB & DECB, dimethyl & diehtyl carbamate, cacha & kevo
   NG2S1    CG2O6    SG2D1     5   129.090000   602.579680   0.00000000         0.00 ; THIC, by ac_aa
   NG2S2    CG2O6    NG2S2     5   115.000000   585.760000   0.00000000         0.00 ; UREA, Urea
   NG2S2    CG2O6    OG2D1     5   122.500000   627.600000   0.23700000     41840.00 ; UREA, Urea. Uses a slack parameter from PROT adm jr. 4/10/91, acetamide update ==> re-optimize
   NG2S2    CG2O6    SG2D1     5   128.930000   695.631840   0.00000000         0.00 ; THIC, by ac_aa
   NG2S2    CG2O6    SG311     5   112.270000   346.602560   0.00000000         0.00 ; QCS, by ac_aa
   OG2D1    CG2O6    OG302     5   123.500000   585.760000   0.00000000         0.00 ; DMCB & DECB & DMCA, dimethyl & diehtyl carbamate and dimethyl carbonate, cacha & kevo
   OG2D1    CG2O6    SG311     5   122.090000   347.690400   0.00000000         0.00 ; QCS, by ac_aa
   OG2D2    CG2O6    OG2D2     5   120.000000   334.720000   0.22412700     83261.60 ; PROTMOD carbonate
   OG2D2    CG2O6    OG311     5   120.000000   661.072000   0.00000000         0.00 ; CO31, bicarbonate, xxwy
   OG302    CG2O6    OG302     5   105.000000   711.280000   0.00000000         0.00 ; DMCA, dimethyl carbonate, xxwy
   SG2D1    CG2O6    SG311     5   124.000000   585.760000   0.00000000         0.00 ; DMTT, dimethyl trithiocarbonate, kevo
   SG311    CG2O6    SG311     5   112.000000   334.720000   0.00000000         0.00 ; DMTT, dimethyl trithiocarbonate, kevo
   NG2D1    CG2O7    OG2D5     5   172.000000   351.456000   0.00000000         0.00 ; MICY, EICY: isocyanates, xxwy
   OG2D5    CG2O7    OG2D5     5   180.000000   376.560000   0.00000000         0.00 ; PROT CO2, JES; re-optimized by kevo
   CG1N1   CG2R51   CG2R51     5   128.700000   376.560000   0.00000000         0.00 ; DCG, yxu, RNA
   CG1N1   CG2R51   CG2RC0     5   126.700000   334.720000   0.00000000         0.00 ; DCG, yxu, RNA
  CG2DC1   CG2R51   CG2R51     5   154.350000   291.875840   0.00000000         0.00 ; TRQ, by ac_aa
  CG2DC1   CG2R51   CG2RC0     5   152.490000   292.210560   0.00000000         0.00 ; SWG, by ac_aa
  CG2DC1   CG2R51   NG2R50     5   153.480000   292.880000   0.25191000     16342.70 ; CR8D, by ac_aa
  CG2DC2   CG2R51   CG2R51     5   154.350000   291.875840   0.00000000         0.00 ; TRQ, by ac_aa
  CG2DC2   CG2R51   CG2RC0     5   152.490000   292.210560   0.00000000         0.00 ; SWG, by ac_aa
  CG2DC2   CG2R51   NG2R50     5   153.480000   292.880000   0.25191000     16342.70 ; CR8D, by ac_aa
   CG2N2   CG2R51   CG2R51     5   125.300000   125.520000   0.00000000         0.00 ; RCG, yxu, RNA
   CG2N2   CG2R51   CG2RC0     5   128.000000   125.520000   0.00000000         0.00 ; RCG, yxu, RNA
   CG2O1   CG2R51   CG2R51     5   130.000000   292.880000   0.00000000         0.00 ; INCA model for D3R, xxwy
   CG2O1   CG2R51   NG2R51     5   124.000000   292.880000   0.00000000         0.00 ; INCA model for D3R, xxwy
   CG2O5   CG2R51   CG2R51     5   130.000000   292.880000   0.00000000         0.00 ; 23 , from CG2O1 CG2R51 CG2R51, penalty= 3 3 TQQ TRQ
   CG2O5   CG2R51   NG2R51     5   124.000000   292.880000   0.00000000         0.00 ; 23 , from CG2O1 CG2R51 NG2R51, penalty= 3 3 TQQ TRQ
  CG2R51   CG2R51   CG2R51     5   107.200000   753.120000   0.00000000         0.00 ; PYRL, pyrrole
  CG2R51   CG2R51   CG2R52     5   106.000000   753.120000   0.00000000         0.00 ; PYRZ, pyrazole
  CG2R51   CG2R51   CG2R53     5   116.500000   836.800000   0.00000000         0.00 ; B2FO, 5H-furan-2-one, ctsai
  CG2R51   CG2R51   CG2R57     5   107.200000   753.120000   0.00000000         0.00 ; 13BPO, 1,3-bipyrrole; from CG2R51 CG2R51 CG2R51; lf
  CG2R51   CG2R51   CG2RC0     5   105.700000   711.280000   0.22610000     20920.00 ; adm,dec06(106.4) INDO/TRP
  CG2R51   CG2R51   CG2RC7     5   106.900000   585.760000   0.00000000         0.00 ; AZUL, Azulene, kevo
  CG2R51   CG2R51    CG311     5   130.000000   383.254400   0.00000000         0.00 ; from CG2R51 CG2R51 CG321, PENALTY= 0.6 HTR
  CG2R51   CG2R51    CG314     5   131.250000   410.366720   0.00000000         0.00 ; 143, by ac_aa
  CG2R51   CG2R51    CG321     5   130.000000   383.254400   0.00000000         0.00 ; PROT his, ADM JR., 7/22/89, FC=>CT2CA CA,BA=> CRYSTALS
  CG2R51   CG2R51    CG324     5   130.000000   383.254400   0.00000000         0.00 ; prf, ashalini
  CG2R51   CG2R51    CG331     5   130.000000   383.254400   0.00000000         0.00 ; PROT his, ADM JR., 7/22/89, FC=>CT2CA CA,BA=> CRYSTALS
  CG2R51   CG2R51   CG3C50     5   109.000000   962.320000   0.00000000         0.00 ; from CG2R51 CG2R51 CG3C52, PENALTY= 1.2 R1A
  CG2R51   CG2R51   CG3C51     5   109.000000   962.320000   0.00000000         0.00 ; QUG, from CG2R51 CG2R51 CG3C52, yxu, RNA
  CG2R51   CG2R51   CG3C52     5   109.000000   962.320000   0.00000000         0.00 ; 2PRP, 2-pyrroline.H+; 2PRL, 2-pyrroline, kevo
  CG2R51   CG2R51   CG3C53     5   109.000000   962.320000   0.00000000         0.00 ; QUG, from CG2R51 CG2R51 CG3C54, yxu, RNA
  CG2R51   CG2R51   CG3C54     5   109.000000   962.320000   0.00000000         0.00 ; 3PRP, 3-pyrroline.H+; 2HPP, 2H-pyrrole.H+, kevo
  CG2R51   CG2R51   NG2R50     5   110.000000  1087.840000   0.00000000         0.00 ; PROT his, ADM JR., 7/20/89
  CG2R51   CG2R51   NG2R51     5   106.000000  1087.840000   0.00000000         0.00 ; adm,dec06 110.6, PROT his, ADM JR., 7/20/89
  CG2R51   CG2R51   NG2R52     5   108.000000  1213.360000   0.00000000         0.00 ; PROT his, ADM JR., 7/20/89
  CG2R51   CG2R51   NG2R57     5   106.000000  1087.840000   0.00000000         0.00 ; 13BPO, 1,3-bipyrrole; from CG2R51 CG2R51 NG2R51; lf
  CG2R51   CG2R51   NG2RC0     5   108.200000  1087.840000   0.00000000         0.00 ; INDZ, indolizine, kevo
  CG2R51   CG2R51   NG3C51     5   111.800000   878.640000   0.00000000         0.00 ; 2PRL, 2-pyrroline, kevo
  CG2R51   CG2R51    NG3P2     5   111.000000  1004.160000   0.00000000         0.00 ; 2PRP, 2-pyrroline.H+, kevo
  CG2R51   CG2R51   OG2R50     5   111.700000  1087.840000   0.00000000         0.00 ; FURA, furan @@@@@ Kenno: 108-->112 @@@@@
  CG2R51   CG2R51    OG311     5   128.120000   518.732320   0.00000000         0.00 ; B2H, by ac_aa
  CG2R51   CG2R51    OG312     5   134.910000   631.700320   0.00000000         0.00 ; C12, by ac_aa
  CG2R51   CG2R51   OG3C51     5   113.200000  1129.680000   0.00000000         0.00 ; 2DHF, 2,3-dihydrofuran, kevo
  CG2R51   CG2R51   SG2R50     5   109.000000   878.640000   0.00000000         0.00 ; THIP, thiophene
  CG2R51   CG2R51    SG3O2     5   129.000000   225.936000   0.00000000         0.00 ; TSPD model for D3R, xxwy
  CG2R51   CG2R51    HGR51     5   126.400000   267.776000   0.21730000     20920.00 ; INDO/TRP
  CG2R51   CG2R51    HGR52     5   130.000000   184.096000   0.22150000     12552.00 ; PROT adm jr., 6/27/90, his
  CG2R52   CG2R51    CG321     5   130.000000   167.360000   0.00000000         0.00 ; INCA model for D3R, xxwy
  CG2R52   CG2R51    HGR51     5   127.600000   125.520000   0.00000000         0.00 ; x 2HPR, 2H-pyrrole; 2HPP, 2H-pyrrole.H+, kevo
  CG2R53   CG2R51    HGR51     5   117.100000    83.680000   0.00000000         0.00 ; B2FO, 5H-furan-2-one, ctsai
  CG2R57   CG2R51   NG2R51     5   106.000000  1087.840000   0.00000000         0.00 ; 13BPO, 1,3-bipyrrole; from CG2R51 CG2R51 NG2R51; lf
  CG2R57   CG2R51    HGR51     5   126.400000   267.776000   0.21730000     20920.00 ; 13BPO, 1,3-bipyrrole; from CG2R51 CG2R51 HGR51; lf
  CG2R57   CG2R51    HGR52     5   130.000000   184.096000   0.22150000     12552.00 ; 13BPO, 1,3-bipyrrole; from CG2R51 CG2R51 HGR52; lf
  CG2RC0   CG2R51    CG311     5   126.700000   251.040000   0.00000000         0.00 ; from CG2RC0 CG2R51 CG321, PENALTY= 0.6 HTR
  CG2RC0   CG2R51    CG321     5   126.700000   251.040000   0.00000000         0.00 ; INDO/TRP
  CG2RC0   CG2R51    CG324     5   126.700000   251.040000   0.00000000         0.00 ; prf, ashalini
  CG2RC0   CG2R51    CG331     5   126.700000   251.040000   0.00000000         0.00 ; INDO/TRP
  CG2RC0   CG2R51   NG2R51     5   107.500000   836.800000   0.00000000         0.00 ; ISOI, isoindole, kevo
  CG2RC0   CG2R51    HGR51     5   126.400000   267.776000   0.22550000     20920.00 ; INDO/TRP
  CG2RC0   CG2R51    HGR52     5   128.500000   259.408000   0.00000000         0.00 ; ISOI, isoindole, kevo
  CG2RC7   CG2R51    HGR51     5   126.700000   267.776000   0.00000000         0.00 ; AZUL, Azulene, kevo
   CG314   CG2R51   OG3C51     5   113.970000   326.435680   0.00000000         0.00 ; 143, by ac_aa
   CG321   CG2R51   CG3C50     5   121.140000   419.738880   0.00000000         0.00 ; from CG331 CG2R51 CG3C50, R1A
   CG321   CG2R51   CG3C52     5   119.830000   379.488800   0.00000000         0.00 ; from CG331 CG2R51 CG3C50, R1A
   CG321   CG2R51   NG2R50     5   120.000000   383.254400   0.00000000         0.00 ; PROT his, ADM JR., 7/22/89, FC FROM CA CT2CT
   CG321   CG2R51   NG2R51     5   124.000000   383.254400   0.00000000         0.00 ; PROT his, ADM JR., 7/22/89, FC FROM CA CT2CT
   CG321   CG2R51   NG2R52     5   122.000000   383.254400   0.00000000         0.00 ; PROT his, ADM JR., 7/22/89, FC FROM CA CT2CT
   CG321   CG2R51   NG2RC0     5   126.700000   502.080000   0.00000000         0.00 ; HWG, from MWG, yxu, RNA
   CG321   CG2R51   OG2R50     5   114.160000   383.087040   0.00000000         0.00 ; FUA2, by ac_aa
   CG321   CG2R51   SG2R50     5   123.700000   313.381600   0.00000000         0.00 ; from CG331 CG2R51 SG2R50, TIH
   CG331   CG2R51   CG3C50     5   119.830000   379.488800   0.00000000         0.00 ; R1A, by ac_aa
   CG331   CG2R51   NG2R50     5   120.000000   383.254400   0.00000000         0.00 ; DWG, from CG321  CG2R51 NG2R50, yxu, RNA
   CG331   CG2R51   NG2R51     5   124.000000   383.254400   0.00000000         0.00 ; PROT his, ADM JR., 7/22/89, FC FROM CA CT2CT
   CG331   CG2R51   NG2R52     5   122.000000   383.254400   0.00000000         0.00 ; from CG321 CG2R51 NG2R52, penalty= 0.9 DDEP
   CG331   CG2R51   NG2RC0     5   126.700000   502.080000   0.00000000         0.00 ; MWG, yxu, RNA
   CG331   CG2R51   OG3C51     5   111.070000   380.911360   0.00000000         0.00 ; 143, by ac_aa
   CG331   CG2R51   SG2R50     5   123.700000   313.381600   0.00000000         0.00 ; TIH, by ac_aa
  CG3C50   CG2R51    HGR51     5   124.600000   242.672000   0.00000000         0.00 ; from CG3C52 CG2R51 HGR51, PENALTY= 1.2 R1A
  CG3C51   CG2R51    HGR51     5   124.600000   242.672000   0.00000000         0.00 ; QUG, from CG3C52 CG2R51 HGR51, yxu, RNA
  CG3C52   CG2R51    HGR51     5   124.600000   242.672000   0.00000000         0.00 ; 2PRP, 2-pyrroline.H+; 2PRL, 2-pyrroline, kevo
  CG3C53   CG2R51    HGR51     5   124.600000   108.784000   0.00000000         0.00 ; QUG, from CG3C54 CG2R51 HGR51, yxu, RNA
  CG3C54   CG2R51    HGR51     5   124.600000   108.784000   0.00000000         0.00 ; 124.6 3PRP, 3-pyrroline.H+; 2HPP, 2H-pyrrole.H+, kevo
  NG2R50   CG2R51    HGR52     5   120.000000   209.200000   0.21400000     16736.00 ; PROT adm jr., 3/24/92
  NG2R51   CG2R51    OG311     5   114.680000   308.528160   0.00000000         0.00 ; TRO, by ac_aa
  NG2R51   CG2R51    OG312     5   121.800000   382.668640   0.00000000         0.00 ; C12, by ac_aa
  NG2R51   CG2R51    HGR52     5   124.000000   209.200000   0.21400000     16736.00 ; PROT adm jr., 3/24/92
  NG2R52   CG2R51    HGR52     5   122.000000   184.096000   0.21800000     12552.00 ; PROT his, adm jr., 6/27/90
  NG2R57   CG2R51    HGR52     5   124.000000   209.200000   0.21400000     16736.00 ; 13BPO, 1,3-bipyrrole; from NG2R51 CG2R51 HGR52; lf
  NG2RC0   CG2R51    HGR52     5   121.800000   259.408000   0.00000000         0.00 ; INDZ, indolizine, kevo
  NG3C51   CG2R51    HGR52     5   118.200000   292.880000   0.00000000         0.00 ; 2PRL, 2-pyrroline, kevo
   NG3P2   CG2R51    HGR52     5   119.000000   292.880000   0.00000000         0.00 ; 2PRP, 2-pyrroline.H+, kevo
  OG2R50   CG2R51    HGR52     5   118.300000   418.400000   0.00000000         0.00 ; FURA, furan @@@@@ Kenno: 122 --> 118 @@@@@
  OG3C51   CG2R51    HGR52     5   116.800000   326.352000   0.00000000         0.00 ; 2DHF, 2,3-dihydrofuran, kevo
  SG2R50   CG2R51    SG3O2     5   122.000000   225.936000   0.00000000         0.00 ; TSPD model for D3R, xxwy
  SG2R50   CG2R51    HGR52     5   121.000000   376.560000   0.00000000         0.00 ; THIP, thiophene
  CG2R51   CG2R52    CG321     5   130.000000   267.776000   0.00000000         0.00 ; INCA model for D3R, xxwy
  CG2R51   CG2R52   NG2R50     5   110.500000   920.480000   0.00000000         0.00 ; PYRZ, pyrazole
  CG2R51   CG2R52   NG2R52     5   110.000000  1012.528000   0.00000000         0.00 ; 2HPP, 2H-pyrrole.H+ C4-C5-N1, kevo
  CG2R51   CG2R52    HGR52     5   126.500000   267.776000   0.00000000         0.00 ; PYRZ, pyrazole
  CG2R52   CG2R52   NG2R50     5   106.000000   585.760000   0.00000000         0.00 ; TRZ2, 2H-1,2,3-triazole, lf
  CG2R52   CG2R52    HGR52     5   131.000000   251.040000   0.00000000         0.00 ; TRZ2, 2H-1,2,3-triazole, lf
  CG2RC0   CG2R52   NG2R50     5   110.400000  1255.200000   0.00000000         0.00 ; INDA, 1H-indazole, kevo
  CG2RC0   CG2R52    HGR52     5   126.600000   267.776000   0.00000000         0.00 ; INDA, 1H-indazole, kevo
   CG321   CG2R52   NG2R50     5   120.000000   376.560000   0.00000000         0.00 ; INCA model for D3R, xxwy
  CG3C52   CG2R52   NG2R50     5   112.000000  1422.560000   0.00000000         0.00 ; x 2PRZ, 2-pyrazoline; 3HPR, 3H-pyrrole N2-C3-C4, kevo
  CG3C52   CG2R52    HGR52     5   125.000000   393.296000   0.00000000         0.00 ; x 2PRZ, 2-pyrazoline; 3HPR, 3H-pyrrole H3-C3-C4, kevo
  NG2R50   CG2R52    HGR52     5   123.000000   267.776000   0.00000000         0.00 ; PYRZ, pyrazole
  NG2R52   CG2R52    HGR52     5   123.500000   292.880000   0.00000000         0.00 ; 2HPP, 2H-pyrrole.H+ N1-C5-H5, kevo
  CG251O   CG2R53   NG2R51     5   107.000000   418.400000   0.00000000         0.00 ; from CG25C1 CG2R53 NG2R51, PENALTY= 1.5 CRQ SWG CRF CRO MDO PIA GYS CH6 CR2 DYG NRQ
  CG251O   CG2R53   NG2R53     5   108.500000   460.240000   0.00000000         0.00 ; MRDN, methylidene rhodanine, kevo & xxwy
  CG251O   CG2R53    OG2D1     5   124.500000   460.240000   0.00000000         0.00 ; MRDN, methylidene rhodanine, kevo & xxwy
  CG252O   CG2R53   NG2R51     5   107.000000   418.400000   0.00000000         0.00 ; from CG25C1 CG2R53 NG2R51, PENALTY= 1.5 CRQ SWG CRF CRO MDO PIA GYS CH6 CR2 DYG NRQ
  CG252O   CG2R53   NG2R53     5   108.500000   460.240000   0.00000000         0.00 ; MRDN, methylidene rhodanine, kevo & xxwy
  CG252O   CG2R53    OG2D1     5   124.500000   460.240000   0.00000000         0.00 ; MRDN, methylidene rhodanine, kevo & xxwy
  CG25C1   CG2R53   NG2R51     5   107.000000   418.400000   0.00000000         0.00 ; MEOI, methyleneoxindole, kevo & xxwy
  CG25C1   CG2R53    OG2D1     5   125.500000   460.240000   0.00000000         0.00 ; MEOI, methyleneoxindole, kevo & xxwy
  CG25C2   CG2R53   NG2R51     5   107.000000   418.400000   0.00000000         0.00 ; MEOI, methyleneoxindole, kevo & xxwy
  CG25C2   CG2R53    OG2D1     5   125.500000   460.240000   0.00000000         0.00 ; MEOI, methyleneoxindole, kevo & xxwy
  CG2DC1   CG2R53   NG2R50     5   135.820000   302.335840   0.00000000         0.00 ; NRQ, by ac_aa
  CG2DC1   CG2R53   NG2R51     5   123.390000   293.047360   0.00000000         0.00 ; NRQ, by ac_aa
  CG2DC2   CG2R53   NG2R50     5   135.820000   302.335840   0.00000000         0.00 ; NRQ, by ac_aa
  CG2DC2   CG2R53   NG2R51     5   123.390000   293.047360   0.00000000         0.00 ; NRQ, by ac_aa
  CG2R51   CG2R53    OG2D1     5   127.500000   508.774400   0.00000000         0.00 ; B2FO, 5H-furan-2-one, ctsai
  CG2R51   CG2R53   OG3C51     5   105.000000   548.104000   0.00000000         0.00 ; B2FO, 5H-furan-2-one, ctsai
  CG2R61   CG2R53   NG2R50     5   124.500000   209.200000   0.00000000         0.00 ; 2PTZ, xxwy, 5-methyl-3-phenyl-1,2,4-oxadiazole, JL, 2020
  CG2R61   CG2R53   SG2R50     5   118.300000   209.200000   0.00000000         0.00 ; 2PTZ, xxwy, 2-phenylthiazole, JL, 2020
   CG311   CG2R53   NG2R50     5   123.000000   383.254400   0.00000000         0.00 ; from CG321 CG2R53 NG2R50, PENALTY= 0.6 SWG CRF B2H CRO MDO PIA GYS CH6 CR8D
   CG311   CG2R53   NG2R51     5   120.000000   383.254400   0.00000000         0.00 ; from CG321 CG2R53 NG2R51, PENALTY= 0.6 SWG CRF B2H CRO MDO PIA GYS CH6 CR8D
   CG321   CG2R53   NG2R50     5   123.000000   383.254400   0.00000000         0.00 ; etea, 5-Ethyl-1H-tetrazole, pchat
   CG321   CG2R53   NG2R51     5   120.000000   383.254400   0.00000000         0.00 ; etea, 5-Ethyl-1H-tetrazole, pchat
   CG321   CG2R53   NG2R52     5   148.170000   382.501280   0.00000000         0.00 ; from NG2R52 CG2R53 CG331, DDEP
   CG331   CG2R53   NG2R50     5   123.000000   383.254400   0.00000000         0.00 ; MTEA , 5-Methyl-1H-tetrazole, pchat
   CG331   CG2R53   NG2R51     5   120.000000   383.254400   0.00000000         0.00 ; MTEA , 5-Methyl-1H-tetrazole, pchat
   CG331   CG2R53   NG2R52     5   148.170000   382.501280   0.00000000         0.00 ; DDEP, by ac_aa
  CG3C41   CG2R53   NG2R43     5   104.500000  1004.160000   0.00000000         0.00 ; AZDO, 2-azetidinone, kevo
  CG3C41   CG2R53    OG2D1     5   135.700000   502.080000   0.00000000         0.00 ; AZDO, 2-azetidinone, lsk & kevo
  CG3C50   CG2R53   NG2R53     5   106.000000   669.440000   0.00000000         0.00 ; MSCH model for D3R, xxwy
  CG3C50   CG2R53    OG2D1     5   126.200000   460.240000   0.00000000         0.00 ; MSCH model for D3R, xxwy
  CG3C51   CG2R53   NG2R53     5   105.500000  1004.160000   0.00000000         0.00 ; from CG3C52 CG2R53 NG2R53, penalty= 0.4 6V1 SUI
  CG3C51   CG2R53    OG2D1     5   126.700000   543.920000   0.00000000         0.00 ; from CG3C52 CG2R53 OG2D1, penalty= 0.4 SUI 6V1
  CG3C52   CG2R53   NG2R53     5   105.500000  1004.160000   0.00000000         0.00 ; 2PDO, 2-pyrrolidinone N1-C2-C3 v, kevo
  CG3C52   CG2R53    OG2D1     5   126.700000   543.920000   0.00000000         0.00 ; 2PDO, 2-pyrrolidinone, kevo
  CG3C52   CG2R53   OG3C51     5   105.800000   753.120000   0.00000000         0.00 ; GBL, Gamma-butyrolactone, ctsai & kevo
  NG2R43   CG2R53    OG2D1     5   134.300000   502.080000   0.00000000         0.00 ; AZDO, 2-azetidinone, lsk & kevo
  NG2R50   CG2R53   NG2R50     5   111.000000   836.800000   0.00000000         0.00 ; TRZ4, triazole124, xxwy
  NG2R50   CG2R53   NG2R51     5   113.000000   836.800000   0.00000000         0.00 ; NA Gua 5R)
  NG2R50   CG2R53   NG3C51     5   117.400000  1338.880000   0.00000000         0.00 ; 2IMI, 2-imidazoline N1-C2-N3 d1a,d1, kevo
  NG2R50   CG2R53   OG2R50     5   115.700000  1004.160000   0.00000000         0.00 ; OXAZ, oxazole @@@@@ Kenno: 108 --> 115.7 @@@@@
  NG2R50   CG2R53   SG2R50     5   117.200000   920.480000   0.00000000         0.00 ; THAZ, thiazole @@@@@ Kenno: 112 --> 117.2 @@@@@
  NG2R50   CG2R53     FGR1     5   118.840000   553.710560   0.00000000         0.00 ; 2HF1, by ac_aa
  NG2R50   CG2R53    HGR52     5   124.800000   326.352000   0.00000000         0.00 ; NA Ade h8, G,A
  NG2R51   CG2R53    OG2D1     5   127.500000   585.760000   0.00000000         0.00 ; MEOI, methyleneoxindole, kevo & xxwy
  NG2R51   CG2R53     FGR1     5   113.340000   559.735520   0.00000000         0.00 ; 2HF1, by ac_aa
  NG2R51   CG2R53    HGR52     5   122.200000   334.720000   0.00000000         0.00 ; NA Gua  h8 (NN4 CG2R53HN3 124.8)
  NG2R52   CG2R53   NG2R52     5   108.000000  1213.360000   0.00000000         0.00 ; PROT his, ADM JR., 7/20/89
  NG2R52   CG2R53     FGR1     5   125.570000   478.565920   0.00000000         0.00 ; 2HF, by ac_aa
  NG2R52   CG2R53    HGR53     5   126.000000   267.776000   0.21400000     20920.00 ; PROT his, adm jr., 6/27/90
  NG2R53   CG2R53   NG2R53     5   104.400000   627.600000   0.00000000         0.00 ; MHYO, 5-methylenehydantoin, xxwy
  NG2R53   CG2R53    OG2D1     5   127.800000   543.920000   0.00000000         0.00 ; 2PDO, 2-pyrrolidinone, kevo
  NG2R53   CG2R53    SG2D1     5   127.000000   376.560000   0.00000000         0.00 ; MRDN, methylidene rhodanine, kevo & xxwy
  NG2R53   CG2R53    SG311     5   109.000000   585.760000   0.00000000         0.00 ; MRDN, methylidene rhodanine, kevo & xxwy
  NG3C51   CG2R53    HGR52     5   117.800000   267.776000   0.00000000         0.00 ; 2IMI, 2-imidazoline N1-C2-H2, kevo
   OG2D1   CG2R53   OG3C51     5   127.500000   535.552000   0.00000000         0.00 ; GBL, Gamma-butyrolactone, ctsai & kevo
   OG2D1   CG2R53    SG311     5   125.000000   460.240000   0.00000000         0.00 ; MTDO, 5-methylene-2,4-thiazolidinedione, xxwy & oashi
  OG2R50   CG2R53    HGR52     5   119.500000   209.200000   0.21400000     16736.00 ; OXAZ, oxazole @@@@@ Kenno: 120 -->119.5 @@@@@
   SG2D1   CG2R53    SG311     5   124.000000   376.560000   0.00000000         0.00 ; MRDN, methylidene rhodanine, kevo & xxwy
  SG2R50   CG2R53    HGR52     5   118.000000   251.040000   0.00000000         0.00 ; THAZ, thiazole
  CG2R51   CG2R57   CG2R51     5   107.200000   753.120000   0.00000000         0.00 ; 13BPO, 1,3-bipyrrole; from CG2R51 CG2R51 CG2R51; lf
  CG2R51   CG2R57   CG2R57     5   126.400000   276.144000   0.00000000         0.00 ; 33BPO, 3,3-bipyrrole, lf
  CG2R51   CG2R57   NG2R57     5   126.400000   355.640000   0.00000000         0.00 ; 13BPO, 1,3-bipyrrole, lf
   CG1N1   CG2R61   CG2R61     5   120.000000   292.880000   0.00000000         0.00 ; 3CYP, 3-Cyanopyridine (PYRIDINE pyr-CN) Kenno: 119 --> 120
  CG2DC1   CG2R61   CG2R61     5   120.000000   301.248000   0.00000000         0.00 ; STYR, styrene & HDZ2, hydrazone model cmpd 2; xxwy & oashi; verified by kevo
  CG2DC2   CG2R61   CG2R61     5   120.000000   301.248000   0.00000000         0.00 ; STYR, styrene & HDZ2, hydrazone model cmpd 2; xxwy & oashi; verified by kevo
   CG2N2   CG2R61   CG2R61     5   120.000000   209.200000   0.00000000         0.00 ; BAMI, benzamidinium, mp2 molvib, pram
   CG2O1   CG2R61   CG2R61     5   119.000000   376.560000   0.00000000         0.00 ; reverted to 3NAP, nicotinamide
   CG2O1   CG2R61   CG2R64     5   126.950000   523.083680   0.00000000         0.00 ; flavin
   CG2O1   CG2R61   CG2RC0     5   120.000000   502.080000   0.00000000         0.00 ; HDZ2, hydrazone model cmpd 2
   CG2O1   CG2R61   NG2R60     5   115.900000   583.668000   0.00000000         0.00 ; flavin
   CG2O2   CG2R61   CG2R61     5   120.000000   376.560000   0.00000000         0.00 ; ZOIC, benzoic acid, MBOA, methylbenzoate, jal
   CG2O3   CG2R61   CG2R61     5   119.000000   376.560000   0.00000000         0.00 ; 3CB, Benzoate. Based on a slack parameter from 3ACP, 3-acetylpyridine ==> re-optimize
   CG2O4   CG2R61   CG2R61     5   119.800000   376.560000   0.00000000         0.00 ; ALDEHYDE benzaldehyde unmodified
   CG2O5   CG2R61   CG2R61     5   120.000000   376.560000   0.00000000         0.00 ; PHMK, PHEK, sum of equilibrium angles, kevo
  CG2R53   CG2R61   CG2R61     5   120.000000   267.776000   0.00000000         0.00 ; 2PTZ model for D3R, xxwy
  CG2R61   CG2R61   CG2R61     5   120.000000   334.720000   0.24162000     29288.00 ; PROT JES 8/25/89
  CG2R61   CG2R61   CG2R62     5   119.000000   334.720000   0.24162000     29288.00 ; YTHY, 2,4(1H,3H)-quinazolinedione, isg
  CG2R61   CG2R61   CG2R63     5   120.000000   334.720000   0.24162000     29288.00 ; YTS2, 2,4(1H,3H)-quinazolinedithione, isg
  CG2R61   CG2R61   CG2R64     5   115.500000   334.720000   0.24162000     29288.00 ; 18NFD, 1,8-naphthyridine, erh
  CG2R61   CG2R61   CG2R66     5   119.000000   334.720000   0.24162000     29288.00 ; NAMODEL difluorotoluene
  CG2R61   CG2R61   CG2R67     5   120.000000   334.720000   0.00000000         0.00 ; BIPHENYL ANALOGS, peml
  CG2R61   CG2R61   CG2RC0     5   120.000000   418.400000   0.00000000         0.00 ; adm,dec06 113.20 ! INDO/TRP
  CG2R61   CG2R61    CG301     5   120.000000   383.254400   0.00000000         0.00 ; from CG2R61 CG2R61 CG311, PENALTY= 1.2 TBP4
  CG2R61   CG2R61    CG302     5   120.000000   383.254400   0.00000000         0.00 ; from CG2R61 CG2R61 CG312, PENALTY= 2 TFG2 TFG3 TFG4
  CG2R61   CG2R61    CG311     5   120.000000   383.254400   0.00000000         0.00 ; modified by kevo for improved transferability
  CG2R61   CG2R61    CG312     5   120.000000   383.254400   0.00000000         0.00 ; BDFP, BDFD, Difuorobenzylphosphonate, modified by kevo for improved transferability
  CG2R61   CG2R61    CG321     5   120.000000   383.254400   0.00000000         0.00 ; EBEN, ethylbenzene, modified by kevo for improved transferability
  CG2R61   CG2R61    CG324     5   120.000000   383.254400   0.00000000         0.00 ; BPIP, N-Benzyl PIP, modified by kevo for improved transferability
  CG2R61   CG2R61    CG331     5   120.000000   383.254400   0.00000000         0.00 ; TOLU, toluene, modified by kevo for improved transferability
  CG2R61   CG2R61    NG2D1     5   125.500000   669.440000   0.00000000         0.00 ; ABNB, amide base, sr
  CG2R61   CG2R61    NG2O1     5   120.000000   167.360000   0.00000000         0.00 ; NITB, nitrobenzene
  CG2R61   CG2R61    NG2P1     5   121.200000   326.352000   0.21900000     35982.40 ; K2C (model: ncyp), yxu, RNA
  CG2R61   CG2R61   NG2R51     5   121.000000   502.080000   0.00000000         0.00 ; D3R set1 scaffold 1, xxwy
  CG2R61   CG2R61   NG2R60     5   124.000000   167.360000   0.00000000         0.00 ; PYRIDINE pyridine, yin
  CG2R61   CG2R61   NG2R61     5   120.000000  1046.000000   0.00000000         0.00 ; YTS2, 2,4(1H,3H)-quinazolinedithione, isg
  CG2R61   CG2R61   NG2R62     5   124.000000   167.360000   0.00000000         0.00 ; PYRD, pyridazine
  CG2R61   CG2R61   NG2RC0     5   121.400000   836.800000   0.00000000         0.00 ; INDZ, indolizine, kevo
  CG2R61   CG2R61    NG2S0     5   120.000000   334.720000   0.24162000     29288.00 ; dmpu, yxu, RNA, fentanyl, Lesnik et al, 2020
  CG2R61   CG2R61    NG2S1     5   120.000000   334.720000   0.24162000     29288.00 ; RESI PACP, FRET AND OTHERS
  CG2R61   CG2R61    NG2S3     5   121.000000   502.080000   0.00000000         0.00 ; PYRIDINE aminopyridine, adm jr., 7/94
  CG2R61   CG2R61    NG301     5   120.000000   351.456000   0.00000000         0.00 ; DMAN, N,N-dimethylaniline, kevo
  CG2R61   CG2R61    NG311     5   120.000000   334.720000   0.00000000         0.00 ; FEOZ, phenoxazine, erh
  CG2R61   CG2R61    NG3N1     5   122.000000   401.664000   0.00000000         0.00 ; PHHZ, phenylhydrazine, ed
  CG2R61   CG2R61    OG301     5   120.000000   920.480000   0.00000000         0.00 ; BIPHENYL ANALOGS, peml
  CG2R61   CG2R61    OG303     5   120.000000   627.600000   0.00000000         0.00 ; PROTNA phenol phosphate, 6/94, adm jr.
  CG2R61   CG2R61    OG311     5   120.000000   378.233600   0.00000000         0.00 ; PYRIDINE phenol, yin
  CG2R61   CG2R61    OG312     5   120.000000   334.720000   0.00000000         0.00 ; PROT adm jr. 8/27/91, phenoxide
  CG2R61   CG2R61   OG3R60     5   120.000000   334.720000   0.00000000         0.00 ; FEOZ, phenoxazine, erh
  CG2R61   CG2R61    SG311     5   120.000000   334.720000   0.00000000         0.00 ; FETZ, phenothiazine, erh
  CG2R61   CG2R61    SG3O1     5   122.300000    83.680000   0.00000000         0.00 ; benzene sulfonic acid anion, og
  CG2R61   CG2R61    SG3O2     5   119.000000   292.880000   0.00000000         0.00 ; BSAM, benzenesulfonamide; PBSM, N-phenylbenzenesulfonamide; xxwy
  CG2R61   CG2R61    CLGR1     5   120.000000   502.080000   0.00000000         0.00 ; CHLB, chlorobenzene
  CG2R61   CG2R61    BRGR1     5   120.000000   376.560000   0.00000000         0.00 ; BROB, bromobenzene
  CG2R61   CG2R61     IGR1     5   120.000000   376.560000   0.00000000         0.00 ; IODB, iodobenzene
  CG2R61   CG2R61    BG201     5   120.000000   351.456000   0.00000000         0.00 ; BORB,BONB,BNNB Boronic acid, sr
  CG2R61   CG2R61    HGR61     5   120.000000   251.040000   0.21525000     18409.60 ; PROT JES 8/25/89 benzene
  CG2R61   CG2R61    HGR62     5   120.000000   251.040000   0.21525000     18409.60 ; BROB, bromobenzene
  CG2R62   CG2R61    HGR61     5   121.000000   167.360000   0.21525000     18409.60 ; YTHY, 2,4(1H,3H)-quinazolinedione, isg
  CG2R63   CG2R61    HGR62     5   120.000000   150.624000   0.21525000     18409.60 ; URA24S, 2,4(1H,3H)-pyrimidinedithione; from CG2R64 CG2R61 HGR61; isg
  CG2R64   CG2R61   NG2R60     5   123.400000   167.360000   0.00000000         0.00 ; PTID, pteridine, erh
  CG2R64   CG2R61    OG311     5   120.000000   378.233600   0.00000000         0.00 ; 2A3HPD, from PYRIDINE phenol, cacha
  CG2R64   CG2R61    HGR61     5   120.000000   251.040000   0.21525000     18409.60 ; 2AMP, 2-amino pyridine, from PROT benzene, kevo
  CG2R64   CG2R61    HGR62     5   120.100000   317.984000   0.00000000         0.00 ; 2SC, from CG2R62, NA36, RNA
  CG2R66   CG2R61   CG2R66     5   117.000000   334.720000   0.24162000     29288.00 ; NAMODEL difluorotoluene
  CG2R66   CG2R61   CG2RC0     5   119.000000   334.720000   0.24162000     29288.00 ; from CG2R61 CG2R61 CG2R66, PENALTY= 1.5 FT6 FTR
  CG2R66   CG2R61    CG321     5   120.000000   383.254400   0.00000000         0.00 ; from CG2R66 CG2R61 CG331, PENALTY= 0.9 FPH2 PF5
  CG2R66   CG2R61    CG331     5   120.000000   383.254400   0.00000000         0.00 ; NAMODEL difluorotoluene
  CG2R66   CG2R61   NG2R60     5   124.000000   167.360000   0.00000000         0.00 ; 3FLP, 3-fluoropyridine. Kenno: copied from pyridine while retrofitting CG2R66 ==> re-optimize
  CG2R66   CG2R61    NG2S1     5   120.000000   334.720000   0.24162000     29288.00 ; 2FBD, 2-fluoroanilide patch. Kenno: copied from RETINOL TMCH/MECH while retrofitting CG2R66 ==> re-optimize
  CG2R66   CG2R61    OG311     5   120.000000   378.233600   0.00000000         0.00 ; from CG2R61 CG2R61 OG311, PENALTY= 1.5 YOF
  CG2R66   CG2R61    HGR62     5   121.500000   251.040000   0.21525000     18409.60 ; NAMODEL difluorotoluene
  CG2R67   CG2R61   NG2R60     5   124.000000   167.360000   0.00000000         0.00 ; PYRIDINE pyridine, yin
  CG2R67   CG2R61    HGR61     5   120.000000   251.040000   0.00000000         0.00 ; BIPHENYL ANALOGS, peml
  CG2R67   CG2R61    HGR62     5   120.000000   251.040000   0.00000000         0.00 ; BIPHENYL ANALOGS, peml
  CG2RC0   CG2R61   NG2R62     5   119.000000   167.360000   0.00000000         0.00 ; PUR9, purine(N9H); PUR7, purine(N7H), kevo
  CG2RC0   CG2R61    NG2S3     5   121.000000   502.080000   0.00000000         0.00 ; from CG2R61 CG2R61 NG2S3, PENALTY= 1.5 4IN
  CG2RC0   CG2R61    OG311     5   120.000000   378.233600   0.00000000         0.00 ; 7MGe, from CG2R61 CG2R61 OG311, not optimized, yxu, RNA
  CG2RC0   CG2R61    OG312     5   120.000000   334.720000   0.00000000         0.00 ; from CG2R61 CG2R61 OG312, penalty= 1.5 TQQ
  CG2RC0   CG2R61    CLGR1     5   120.000000   502.080000   0.00000000         0.00 ; from CG2R61 CG2R61 CLGR1, PENALTY= 1.5 CTE
  CG2RC0   CG2R61    HGR61     5   120.000000   251.040000   0.21460000     18409.60 ; 122 INDO/TRP
  CG2RC0   CG2R61    HGR62     5   121.500000   251.040000   0.00000000         0.00 ; 22.00   2.16830 ! PUR7, purine(N7H); PUR9, purine(N9H), kevo
   CG321   CG2R61   NG2R60     5   122.300000   383.254400   0.00000000         0.00 ; 2AEPD, 2-ethylamino-pyridine CDCA conjugate, cacha
   CG331   CG2R61   NG2R60     5   122.300000   383.254400   0.00000000         0.00 ; 3A2MPD, 3-amino-2-methyl-pyridine CDCA conjugate, cacha
   NG2P1   CG2R61    HGR62     5   113.000000   292.880000   0.00000000         0.00 ; K2C, yxu, RNA
  NG2R60   CG2R61    BRGR1     5   120.000000   376.560000   0.00000000         0.00 ; 3A6BPD, Gamma-3-Amino-6-bromo Pyridine GA CDCA Amide, cacha
  NG2R60   CG2R61    HGR62     5   116.000000   251.040000   0.21000000     29288.00 ; PYR1, pyridine %%% Kenno: 112->116
  NG2R61   CG2R61    HGR62     5   115.000000   276.144000   0.00000000         0.00 ; URA24S, 2,4(1H,3H)-pyrimidinedithione, isg
  NG2R62   CG2R61    OG311     5   120.000000   378.233600   0.00000000         0.00 ; 7MGe, from CG2R61 CG2R61 OG311, not optimized, yxu, RNA
  NG2R62   CG2R61    HGR62     5   116.000000   251.040000   0.21000000     29288.00 ; PYRD, pyridazine %%% Kenno: 112->116
  NG2RC0   CG2R61    HGR62     5   118.600000   251.040000   0.00000000         0.00 ; INDZ, indolizine, kevo
   CG2O1   CG2R62   CG2R62     5   131.800000    83.680000   0.00000000         0.00 ; NA nad/ppi, jjp1/adm jr. 7/95
   CG2O4   CG2R62   CG2R62     5   120.000000   418.400000   0.00000000         0.00 ; 5FC, yxu, RNA
   CG2O4   CG2R62   CG2R64     5   122.200000   543.920000   0.00000000         0.00 ; 5FC, yxu, RNA
  CG2R61   CG2R62   CG2R62     5   121.000000   334.720000   0.00000000         0.00 ; RIN, coumarin, isg
  CG2R61   CG2R62   CG2R63     5   122.300000  1004.160000   0.00000000         0.00 ; YTHY, 2,4(1H,3H)-quinazolinedione, isg
  CG2R61   CG2R62   NG2R61     5   116.100000   192.464000   0.00000000         0.00 ; YTHY, 2,4(1H,3H)-quinazolinedione, isg
  CG2R61   CG2R62   NG2R62     5   118.000000   251.040000   0.00000000         0.00 ; TC243C, 4(3H)-quinazolinone, isg
  CG2R61   CG2R62   OG3R60     5   119.700000   334.720000   0.00000000         0.00 ; RIN, coumarin, isg
  CG2R62   CG2R62   CG2R62     5   118.000000   334.720000   0.00000000         0.00 ; NA nad/ppi, jjp1/adm jr. 7/95
  CG2R62   CG2R62   CG2R63     5   116.700000  1004.160000   0.00000000         0.00 ; NA T
  CG2R62   CG2R62   CG2R64     5   117.800000   711.280000   0.00000000         0.00 ; NA C
  CG2R62   CG2R62   CG2R67     5   121.000000   334.720000   0.00000000         0.00 ; pyo3b, from CG2R61 CG2R62 CG2R62, fylin
  CG2R62   CG2R62    CG311     5   124.200000   334.720000   0.00000000         0.00 ; CMU, from CG2R62 CG2R62 CG331, yxu, RNA
  CG2R62   CG2R62    CG321     5   123.000000   334.720000   0.00000000         0.00 ; 5CU, yxu, RNA
  CG2R62   CG2R62    CG324     5   125.800000   383.254400   0.00000000         0.00 ; SAU, yxu, RNA
  CG2R62   CG2R62    CG331     5   124.200000   334.720000   0.00000000         0.00 ; NA 5mc, adm jr. 9/9/93
  CG2R62   CG2R62   NG2R61     5   122.900000   711.280000   0.00000000         0.00 ; NA C
  CG2R62   CG2R62   NG2R62     5   121.000000   167.360000   0.00000000         0.00 ; TC243C, 4(3H)-quinazolinone, isg
  CG2R62   CG2R62   NG2R67     5   122.900000   711.280000   0.00000000         0.00 ; 1PH4PO, 1-phenyl-4(1H)-pyridinone; from CG2R62 CG2R62 NG2R61; isg
  CG2R62   CG2R62    OG301     5   120.300000  1004.160000   0.00000000         0.00 ; MOU, yxu, 21/2/14, RNA
  CG2R62   CG2R62    OG311     5   123.800000   426.768000   0.00000000         0.00 ; 5HU, yxu, RNA
  CG2R62   CG2R62   OG3R60     5   119.300000    83.680000   0.00000000         0.00 ; RIN, coumarin, isg
  CG2R62   CG2R62    HGR62     5   119.000000   351.456000   0.00000000         0.00 ; NA nadh/ppi, jjp1/adm jr. 7/95
  CG2R62   CG2R62    HGR63     5   120.500000   669.440000   0.00000000         0.00 ; NA nad/ppi, jjp1/adm jr. 7/95
  CG2R63   CG2R62   CG2R64     5   116.760000    37.237600   0.00000000         0.00 ; flavin
  CG2R63   CG2R62   CG2R67     5   122.300000  1004.160000   0.00000000         0.00 ; pyo2b, from CG2R61 CG2R62 CG2R63, fylin
  CG2R63   CG2R62    CG311     5   121.200000   359.824000   0.00000000         0.00 ; CMU, yxu, RNA
  CG2R63   CG2R62    CG321     5   119.100000   510.448000   0.00000000         0.00 ; 5CU, yxu, RNA
  CG2R63   CG2R62    CG324     5   117.500000   351.456000   0.00000000         0.00 ; SAU, yxu, RNA
  CG2R63   CG2R62    CG331     5   118.700000   317.984000   0.00000000         0.00 ; NA T, c5 methyl
  CG2R63   CG2R62    NG311     5   109.620000   357.815680   0.00000000         0.00 ; flavin
  CG2R63   CG2R62    OG301     5   123.000000   920.480000   0.00000000         0.00 ; MOU, yxu, 21/2/14, RNA
  CG2R63   CG2R62    OG311     5   117.500000   410.032000   0.00000000         0.00 ; 5HU, yxu, RNA
  CG2R63   CG2R62    HGR62     5   120.300000   251.040000   0.00000000         0.00 ; NA U, h5
  CG2R64   CG2R62    CG321     5   118.500000   384.928000   0.00000000         0.00 ; HMC, from 5MC, yxu, RNA
  CG2R64   CG2R62    CG331     5   118.900000   384.928000   0.00000000         0.00 ; 5MC, yxu, RNA
  CG2R64   CG2R62    NG311     5   120.350000   204.848640   0.00000000         0.00 ; flavin
  CG2R64   CG2R62    HGR62     5   120.100000   317.984000   0.00000000         0.00 ; NA C h5
  CG2R67   CG2R62   NG2R61     5   116.100000   192.464000   0.00000000         0.00 ; pyo3b, from CG2R61 CG2R62 NG2R61, fylin
  CG2R67   CG2R62   NG2R62     5   118.000000   251.040000   0.00000000         0.00 ; PYRF, from CG2R61 CG2R62 NG2R62, fylin
  CG2R67   CG2R62    HGR62     5   119.000000   351.456000   0.00000000         0.00 ; pyo3b, from CG2R62 CG2R62 HGR62, fylin
  CG2R67   CG2R62    HGR63     5   120.500000   669.440000   0.00000000         0.00 ; PIUB, from CG2R62 CG2R62 HGR63, fylin
  NG2R61   CG2R62   NG2R62     5   124.000000   418.400000   0.00000000         0.00 ; PYRH, from NG2R61 CG2R64 NG2R62, fylin
  NG2R61   CG2R62    HGR62     5   115.000000   368.192000   0.00000000         0.00 ; NA C, h6
  NG2R61   CG2R62    HGR63     5   117.500000   669.440000   0.00000000         0.00 ; NA nad/ppi, jjp1/adm jr. 7/95
  NG2R62   CG2R62    OG311     5   121.000000   744.752000   0.23080000     75312.00 ; enoU, yxu, RNA
  NG2R62   CG2R62    HGR62     5   120.000000   196.648000   0.21000000     29288.00 ; 43HPY, 4(3H)-pyrimidinone, isg. Adjusting angle without UB (from NG2R62 CG2R61 HGR62) is problematic ==> RE-OPTIMIZE!
  NG2R62   CG2R62    HGR63     5   118.500000   422.584000   0.00000000         0.00 ; PYRH, fylin
  NG2R67   CG2R62    HGR62     5   118.100000   368.192000   0.00000000         0.00 ; 1PH4PO, 1-phenyl-4(1H)-pyridinone, isg
  CG2R61   CG2R63   NG2R61     5   111.900000   493.712000   0.00000000         0.00 ; YTS2, 2,4(1H,3H)-quinazolinedithione, isg
  CG2R61   CG2R63   NG2R67     5   113.400000   493.712000   0.00000000         0.00 ; 3PH24S, 2,3-dihydro-3-phenyl-2-thioxo-4(1H)pyrimidinethione; from YTS2; isg
  CG2R61   CG2R63    SG2D1     5   125.100000   317.984000   0.00000000         0.00 ; YTS2, 2,4(1H,3H)-quinazolinedithione, isg
  CG2R62   CG2R63   CG2R62     5   120.800000    83.680000   0.00000000         0.00 ; 4PYO, 4(1H)-pyridinone; from CG2R62 CG2R62 CG2R62; isg
  CG2R62   CG2R63   NG2R61     5   113.500000   585.760000   0.00000000         0.00 ; NA T, adm jr. 11/97
  CG2R62   CG2R63   NG2R62     5   117.800000   669.440000   0.00000000         0.00 ; 1PC, yxu, RNA
  CG2R62   CG2R63   NG2R67     5   115.700000   585.760000   0.00000000         0.00 ; 1PH2PO, 1-phenyl-2(1H)-pyridinone; from CG2R62 CG2R62 NG2R61; isg
  CG2R62   CG2R63    OG2D4     5   124.600000   836.800000   0.00000000         0.00 ; NA T, o4
  CG2R62   CG2R63   OG3R60     5   121.500000    83.680000   0.00000000         0.00 ; RIN, coumarin, isg
  CG2R62   CG2R63    SG2D1     5   123.500000   435.136000   0.00000000         0.00 ; YT2S, 2,4(1H,3H)-quinazolinedithione, isg
  CG2RC0   CG2R63   NG2R61     5   107.800000   585.760000   0.00000000         0.00 ; NA Gua 6R)
  CG2RC0   CG2R63   NG2RC0     5   108.000000   585.760000   0.00000000         0.00 ; DWG, yxu, angsum 04/15, RNA
  CG2RC0   CG2R63    OG2D4     5   124.700000   418.400000   0.00000000         0.00 ; NA Gua
   NG2P1   CG2R63   NG2R61     5   115.600000   510.448000   0.00000000         0.00 ; 3MC, yxu, RNA
   NG2P1   CG2R63    OG2D4     5   125.000000   669.440000   0.00000000         0.00 ; 3MC, yxu, RNA
  NG2R61   CG2R63   NG2R61     5   114.000000   418.400000   0.00000000         0.00 ; NA U
  NG2R61   CG2R63   NG2R62     5   116.800000   418.400000   0.00000000         0.00 ; NA C
  NG2R61   CG2R63   NG2R67     5   114.000000   418.400000   0.00000000         0.00 ; 3PHURA, 3-phenyl-2,4(1H,3H)-pyrimidinedione; from NG2R61 CG2R63 NG2R61, NA; isg
  NG2R61   CG2R63    OG2D4     5   119.400000  1087.840000   0.00000000         0.00 ; NA C, o2
  NG2R61   CG2R63    SG2D1     5   123.000000   468.608000   0.00000000         0.00 ; YTS2, 2,4(1H,3H)-quinazolinedithione, isg
  NG2R61   CG2R63    SEGD1     5   122.500000   543.920000   0.00000000         0.00 ; SEU, yxu, to be reoptimized, RNA
  NG2R62   CG2R63    OG2D4     5   123.800000  1087.840000   0.00000000         0.00 ; NA C
  NG2R62   CG2R63    SG2D1     5   123.700000   585.760000   0.00000000         0.00 ; 2SC, yxu, RNA
  NG2R67   CG2R63    OG2D4     5   119.700000  1087.840000   0.00000000         0.00 ; 1PH2PO, 1-phenyl-2(1H)-pyridinone; from NG2R61 CG2R63 OG2D4; isg
  NG2R67   CG2R63    SG2D1     5   123.000000   468.608000   0.00000000         0.00 ; 3PH2SR, 2,3-dihydro-3-phenyl-2-thioxo-4(1H)pyrimidinone; from YTS2; isg
  NG2RC0   CG2R63    OG2D4     5   122.100000   811.696000   0.00000000         0.00 ; DWG, yxu, angsum 04/15, RNA
   OG2D4   CG2R63   OG3R60     5   113.900000   167.360000   0.00000000         0.00 ; RIN, coumarin, isg
  CG2R61   CG2R64    NG2D1     5   119.000000   401.664000   0.25830000     50208.00 ; K2Cn (model: nmcy), yxu, angsum 04/15, RNA
  CG2R61   CG2R64    NG2P1     5   110.000000   502.080000   0.25600000     42676.80 ; K2C (model: ncyp), yxu, angsum 04/15, RNA
  CG2R61   CG2R64   NG2R51     5   120.000000   334.720000   0.00000000         0.00 ; PIPA model for D3R, xxwy
  CG2R61   CG2R64   NG2R60     5   124.000000   167.360000   0.00000000         0.00 ; 2AMP, 2-amino pyridine, from PYR1, pyridine, kevo
  CG2R61   CG2R64   NG2R61     5   115.660000   280.244320   0.00000000         0.00 ; flavin
  CG2R61   CG2R64   NG2R62     5   128.000000   167.360000   0.00000000         0.00 ; 18NFD, 1,8-naphthyridine, erh
  CG2R61   CG2R64    NG2S1     5   120.000000   334.720000   0.24162000     29288.00 ; 2AMP, 2-Amino pyridine, from PACP, p-acetamide-phenol, kevo
  CG2R61   CG2R64    NG2S3     5   118.500000   502.080000   0.00000000         0.00 ; 2SC, cgenff_compromise, xxwy, KEVO: exocyclic N in 2SC planar, issue with CGenFF atom types?, RNA
  CG2R61   CG2R64    NG311     5   121.000000   527.184000   0.00000000         0.00 ; bepa, from 4MC, yxu, RNA
  CG2R62   CG2R64    NG2D1     5   124.500000   401.664000   0.25120000     35982.40 ; 3MCn, yxu, RNA
  CG2R62   CG2R64    NG2P1     5   120.300000   435.136000   0.23600000     29288.00 ; 3MC, yxu, RNA
  CG2R62   CG2R64   NG2R61     5   120.200000   669.440000   0.00000000         0.00 ; 3MCn, yxu, RNA
  CG2R62   CG2R64   NG2R62     5   119.300000   711.280000   0.00000000         0.00 ; NA C
  CG2R62   CG2R64    NG2S1     5   118.000000   334.720000   0.22420000     29288.00 ; 4AC, yxu, RNA
  CG2R62   CG2R64    NG2S3     5   118.400000   677.808000   0.00000000         0.00 ; NA C
  CG2R62   CG2R64    NG301     5   120.700000   560.656000   0.00000000         0.00 ; TMC, yxu
  CG2R62   CG2R64    NG311     5   119.000000   510.448000   0.00000000         0.00 ; 4MC, yxu, RNA
  CG2RC0   CG2R64    NG2D1     5   124.500000   401.664000   0.25120000     35982.40 ; 1MAn, from 3MCn CG2R62 CG2R64 NG2D1, yxu, RNA
  CG2RC0   CG2R64    NG2P1     5   119.000000   435.136000   0.23600000     29288.00 ; 1MA, from 3MC CG2R62 CG2R64 NG2P1, yxu, angsum, RNA
  CG2RC0   CG2R64   NG2R61     5   120.200000   669.440000   0.00000000         0.00 ; 1MAn, from 3MCn CG2R62 CG2R64 NG2R61, yxu, RNA
  CG2RC0   CG2R64   NG2R62     5   110.700000   502.080000   0.00000000         0.00 ; NA Ade 6R)
  CG2RC0   CG2R64    NG2S0     5   126.000000   292.880000   0.23800000     12552.00 ; 66A (m6pa), yxu, RNA
  CG2RC0   CG2R64    NG2S1     5   118.000000   334.720000   0.22420000     29288.00 ; 6AA, from 4AC CG2R62 CG2R64 NG2S1, yxu, RNA
  CG2RC0   CG2R64    NG2S3     5   118.600000   418.400000   0.00000000         0.00 ; NA Ade
  CG2RC0   CG2R64    NG301     5   120.000000   334.720000   0.00000000         0.00 ; M6A, yxu
  CG2RC0   CG2R64    NG311     5   119.000000   510.448000   0.00000000         0.00 ; 6MA, from 4MC CG2R62 CG2R64 NG311, yxu, RNA
   CG331   CG2R64   NG2R62     5   116.000000   531.368000   0.00000000         0.00 ; 2MA, yxu, RNA
   NG2D1   CG2R64    NG2P1     5   121.000000   527.184000   0.24830000     26777.60 ; K2C (model: ncyp), yxu, angsum 04/15, RNA
   NG2D1   CG2R64   NG2R61     5   116.800000   753.120000   0.00000000         0.00 ; 3MCn, yxu, RNA
   NG2D1   CG2R64   NG2R62     5   124.000000   343.088000   0.25620000     71128.00 ; K2Cn (model: nmcy), yxu, angsum 04/15, RNA
   NG2P1   CG2R64    NG2P1     5   118.000000   418.400000   0.22750000     33472.00 ; 3MC, yxu, RNA
   NG2P1   CG2R64   NG2R62     5   122.000000   585.760000   0.00000000         0.00 ; 1MA, from NG2R61 CG2R64 NG2R62, yxu, angsum, RNA
   NG2P1   CG2R64    HGR62     5   112.600000   401.664000   0.00000000         0.00 ; 1MA, from un-angsumed NG2R61 CG2R64 HGR62, yxu, RNA
  NG2R51   CG2R64   NG2R60     5   116.000000   334.720000   0.00000000         0.00 ; PIPA model for D3R, xxwy
  NG2R60   CG2R64    NG2S1     5   120.000000   334.720000   0.24162000     29288.00 ; 2AMP, 2-Amino pyridine, from PACP, p-acetamide-phenol, cacha (verified by kevo)
  NG2R60   CG2R64    NG311     5   119.700000   652.704000   0.00000000         0.00 ; bepa, from 4MC, yxu, RNA
  NG2R61   CG2R64   NG2R62     5   122.200000   585.760000   0.00000000         0.00 ; NA Gua 6R)
  NG2R61   CG2R64    NG2S3     5   115.400000   794.960000   0.00000000         0.00 ; NA Gua  n2
  NG2R61   CG2R64    NG301     5   119.600000   208.195840   0.00000000         0.00 ; flavin
  NG2R61   CG2R64    NG311     5   120.000000   610.864000   0.00000000         0.00 ; MMG, from K2Cn, yxu, RNA
  NG2R61   CG2R64    SG311     5   121.800000   167.360000   0.00000000         0.00 ; 4O2SM, 2-(methylthio)-4(3H)-pyrimidinone; from CG2R61 CG2R61 SG311; isg
  NG2R61   CG2R64    HGR62     5   119.000000   669.440000   0.00000000         0.00 ; TC243C, 4(3H)-quinazolinone, isg
  NG2R62   CG2R64   NG2R62     5   128.000000   502.080000   0.00000000         0.00 ; NA Ade 6R) %%% TEST 133.0 -> 122.2 %%%
  NG2R62   CG2R64   NG2R67     5   125.000000   585.760000   0.00000000         0.00 ; 43PPY, 3-phenyl-4(3H)-pyrimidinone; from NG2R61 CG2R64 NG2R62; isg
  NG2R62   CG2R64    NG2S0     5   120.000000   292.880000   0.22500000      8368.00 ; 66A (m6pa), yxu, RNA
  NG2R62   CG2R64    NG2S1     5   122.700000   368.192000   0.24162000     29288.00 ; 4AC, yxu, RNA
  NG2R62   CG2R64    NG2S3     5   122.400000   794.960000   0.00000000         0.00 ; NA Gua
  NG2R62   CG2R64    NG301     5   120.000000   652.704000   0.00000000         0.00 ; TMC, yxu
  NG2R62   CG2R64    NG311     5   121.700000   552.288000   0.00000000         0.00 ; 4MC, yxu, RNA
  NG2R62   CG2R64    SG311     5   116.000000   451.872000   0.00000000         0.00 ; 2SMPYR, 2-(methylthio)-pyrimidine; from CG2R61 CG2R61 SG311; isg
  NG2R62   CG2R64    HGR62     5   116.000000   317.984000   0.00000000         0.00 ; NA Ade h2 %%% TEST 113.5 -> 118.9 %%%
  NG2R67   CG2R64    HGR62     5   119.000000   669.440000   0.00000000         0.00 ; 43PPY, 3-phenyl-4(3H)-pyrimidinone; from NG2R61 CG2R64 HGR62, TC243C; isg
  CG2R61   CG2R66   CG2R61     5   122.500000   334.720000   0.24162000     29288.00 ; NAMODEL difluorotoluene
  CG2R61   CG2R66   CG2R66     5   122.500000   334.720000   0.24162000     29288.00 ; from CG2R61 CG2R66 CG2R61, PENALTY= 1.5 F2F PF5
  CG2R61   CG2R66   CG2R67     5   122.500000   334.720000   0.24162000     29288.00 ; PYO2F, from CG2R61 CG2R66 CG2R61, fylin
  CG2R61   CG2R66   CG2RC0     5   122.500000   334.720000   0.24162000     29288.00 ; from CG2R61 CG2R66 CG2R61, PENALTY= 1.5 4FW
  CG2R61   CG2R66     FGR1     5   118.750000   502.080000   0.00000000         0.00 ; NAMODEL difluorotoluene
  CG2R66   CG2R66   CG2R66     5   122.500000   334.720000   0.24162000     29288.00 ; from CG2R61 CG2R66 CG2R61, PENALTY= 3 PF5
  CG2R66   CG2R66     FGR1     5   118.750000   502.080000   0.00000000         0.00 ; from CG2R61 CG2R66 FGR1, PENALTY= 1.5 F2F PF5
  CG2R67   CG2R66     FGR1     5   118.750000   502.080000   0.00000000         0.00 ; PYO2F, from CG2R61 CG2R66 FGR1, fylin
  CG2RC0   CG2R66     FGR1     5   118.750000   502.080000   0.00000000         0.00 ; from CG2R61 CG2R66 FGR1, PENALTY= 1.5 4FW
  CG2R61   CG2R67   CG2R61     5   120.000000   334.720000   0.00000000         0.00 ; BIPHENYL ANALOGS, peml
  CG2R61   CG2R67   CG2R66     5   120.000000   334.720000   0.00000000         0.00 ; PYO2F, from CG2R61 CG2R67 CG2R61, fylin
  CG2R61   CG2R67   CG2R67     5   120.000000   334.720000   0.00000000         0.00 ; BIPHENYL ANALOGS, peml
  CG2R61   CG2R67   CG2RC0     5   120.000000   418.400000   0.00000000         0.00 ; CRBZ, carbazole, erh
  CG2R61   CG2R67   NG2R60     5   126.800000   485.344000   0.00000000         0.00 ; 22BPY, 2,2'-bipyridine, kevo
  CG2R61   CG2R67   NG2R67     5   120.000000   418.400000   0.00000000         0.00 ; 1PH4PO, 1-phenyl-4(1H)-pyridinone, isg
  CG2R62   CG2R67   CG2R62     5   120.000000   334.720000   0.00000000         0.00 ; pyo3b, from CG2R61 CG2R67 CG2R61, fylin
  CG2R62   CG2R67   CG2R67     5   120.000000   334.720000   0.00000000         0.00 ; pyo3b, from CG2R61 CG2R67 CG2R67, fylin
  CG2R66   CG2R67   CG2R67     5   120.000000   334.720000   0.00000000         0.00 ; PYO2F, from CG2R61 CG2R67 CG2R67, fylin
  CG2R67   CG2R67   CG2RC0     5   110.000000   460.240000   0.00000000         0.00 ; CRBZ, carbazole, erh
  CG2R67   CG2R67   NG2R60     5   113.200000   368.192000   0.00000000         0.00 ; 22BPY, 2,2'-bipyridine, kevo
  CG2R71   CG2R71   CG2R71     5   128.600000   251.040000   0.00000000         0.00 ; AZUL, Azulene, kevo
  CG2R71   CG2R71   CG2RC7     5   129.300000   753.120000   0.00000000         0.00 ; AZUL, Azulene, kevo
  CG2R71   CG2R71    HGR71     5   115.700000   309.616000   0.00000000         0.00 ; AZUL, Azulene, kevo
  CG2RC7   CG2R71    HGR71     5   115.000000   267.776000   0.00000000         0.00 ; AZUL, Azulene, kevo
  CG25C1   CG2RC0   CG2R61     5   125.000000   334.720000   0.00000000         0.00 ; MEOI, methyleneoxindole, kevo & xxwy
  CG25C1   CG2RC0   CG2RC0     5   107.000000   167.360000   0.00000000         0.00 ; MEOI, methyleneoxindole, kevo & xxwy
  CG25C2   CG2RC0   CG2R61     5   125.000000   334.720000   0.00000000         0.00 ; MEOI, methyleneoxindole, kevo & xxwy
  CG25C2   CG2RC0   CG2RC0     5   107.000000   167.360000   0.00000000         0.00 ; MEOI, methyleneoxindole, kevo & xxwy
  CG2R51   CG2RC0   CG2R61     5   132.000000  1087.840000   0.00000000         0.00 ; adm,dec06 133.50 ! INDO/TRP
  CG2R51   CG2RC0   CG2R63     5   132.000000  1087.840000   0.00000000         0.00 ; prf, ashalini
  CG2R51   CG2RC0   CG2R66     5   132.000000  1087.840000   0.00000000         0.00 ; from CG2R51 CG2RC0 CG2R61, PENALTY= 1.5 4FW
  CG2R51   CG2RC0   CG2RC0     5   108.000000   711.280000   0.00000000         0.00 ; INDO/TRP
  CG2R51   CG2RC0   NG2RC0     5   109.200000   753.120000   0.00000000         0.00 ; INDZ, indolizine, kevo
  CG2R52   CG2RC0   CG2R61     5   134.100000   502.080000   0.00000000         0.00 ; INDA, 1H-indazole, kevo
  CG2R52   CG2RC0   CG2RC0     5   105.900000   753.120000   0.00000000         0.00 ; INDA, 1H-indazole, kevo
  CG2R61   CG2RC0   CG2R67     5   120.000000   418.400000   0.00000000         0.00 ; CRBZ, carbazole, erh
  CG2R61   CG2RC0   CG2RC0     5   120.000000   418.400000   0.00000000         0.00 ; adm,dec06 110.00 ! INDO/TRP
  CG2R61   CG2RC0   CG3C50     5   130.000000   418.400000   0.00000000         0.00 ; MSCH model for D3R, xxwy
  CG2R61   CG2RC0   CG3C52     5   130.000000   502.080000   0.00000000         0.00 ; 3HIN, 3H-indole, kevo
  CG2R61   CG2RC0   NG2R50     5   130.000000  1087.840000   0.00000000         0.00 ; ZIMI, benzimidazole, kevo
  CG2R61   CG2RC0   NG2R51     5   132.600000  1087.840000   0.00000000         0.00 ; adm,dec06 129.50 ! INDO/TRP
  CG2R61   CG2RC0   NG2R52     5   130.000000  1087.840000   0.00000000         0.00 ; 7MGe, from CG2R61 CG2RC0 NG2R50, not optimized, yxu, RNA
  CG2R61   CG2RC0   NG2R53     5   130.000000   418.400000   0.00000000         0.00 ; MSCH model for D3R, xxwy
  CG2R61   CG2RC0   NG2RC0     5   118.800000   669.440000   0.00000000         0.00 ; INDZ, indolizine, kevo
  CG2R61   CG2RC0   NG3C51     5   130.700000   292.880000   0.00000000         0.00 ; INDI, indoline, kevo
  CG2R61   CG2RC0   OG2R50     5   129.400000   836.800000   0.00000000         0.00 ; ZFUR, benzofuran, kevo
  CG2R61   CG2RC0   OG3C51     5   125.300000   418.400000   0.00000000         0.00 ; 126.60 ZDOL, 1,3-benzodioxole, kevo
  CG2R61   CG2RC0   SG2R50     5   123.700000   376.560000   0.00000000         0.00 ; ZTHP, benzothiophene, kevo
  CG2R61   CG2RC0    BG201     5   130.700000   292.880000   0.00000000         0.00 ; BICB,BINB Boronic acid, sr
  CG2R63   CG2RC0   CG2RC0     5   119.600000   585.760000   0.00000000         0.00 ; NA Gua 6R) bridgeC5
  CG2R63   CG2RC0   NG2R50     5   129.000000  1046.000000   0.00000000         0.00 ; NA Gua  bridgeC5
  CG2R63   CG2RC0   NG2R52     5   126.500000   711.280000   0.00000000         0.00 ; 7MG, yxu, RNA
  CG2R64   CG2RC0   CG2RC0     5   121.000000   502.080000   0.00000000         0.00 ; NA Ade 6R) bridgeC5
  CG2R64   CG2RC0   NG2R50     5   129.000000   836.800000   0.00000000         0.00 ; NA Ade bridgeC5
  CG2R66   CG2RC0   CG2RC0     5   120.000000   418.400000   0.00000000         0.00 ; from CG2R61 CG2RC0 CG2RC0, PENALTY= 1.5 4FW
  CG2R67   CG2RC0   CG3C52     5   110.000000   920.480000   0.00000000         0.00 ; FLRN, Fluorene, erh
  CG2R67   CG2RC0   NG2R51     5   105.700000   836.800000   0.00000000         0.00 ; CRBZ, carbazole, erh
  CG2RC0   CG2RC0   CG3C50     5   110.000000   585.760000   0.00000000         0.00 ; MSCH model for D3R, xxwy
  CG2RC0   CG2RC0   CG3C52     5   110.000000   920.480000   0.00000000         0.00 ; 3HIN, 3H-indole, kevo
  CG2RC0   CG2RC0   NG2R50     5   110.000000   836.800000   0.00000000         0.00 ; NA Ade 5R) bridgeC5
  CG2RC0   CG2RC0   NG2R51     5   105.700000   836.800000   0.00000000         0.00 ; NA Ade 5R) bridgeC4
  CG2RC0   CG2RC0   NG2R52     5   106.900000   602.496000   0.00000000         0.00 ; 7MG, yxu, RNA
  CG2RC0   CG2RC0   NG2R53     5   110.000000   585.760000   0.00000000         0.00 ; MSCH model for D3R, xxwy
  CG2RC0   CG2RC0   NG2R61     5   127.400000   493.712000   0.00000000         0.00 ; DWG, yxu, RNA
  CG2RC0   CG2RC0   NG2R62     5   127.400000   502.080000   0.00000000         0.00 ; NA Ade 6R) bridgeC4
  CG2RC0   CG2RC0   NG3C51     5   109.300000   836.800000   0.00000000         0.00 ; INDI, indoline, kevo
  CG2RC0   CG2RC0   OG2R50     5   110.600000   920.480000   0.00000000         0.00 ; ZFUR, benzofuran, kevo
  CG2RC0   CG2RC0   OG3C51     5   114.700000   669.440000   0.00000000         0.00 ; 113.50 ZDOL, 1,3-benzodioxole, kevo
  CG2RC0   CG2RC0   SG2R50     5   116.300000   585.760000   0.00000000         0.00 ; ZTHP, benzothiophene, kevo
  CG2RC0   CG2RC0    BG201     5   109.300000   836.800000   0.00000000         0.00 ; BICB,BINB Boronic acid, sr
  NG2R50   CG2RC0   NG2R61     5   131.000000   167.360000   0.00000000         0.00 ; DWG, yxu, RNA
  NG2R50   CG2RC0   NG2R62     5   122.600000   167.360000   0.00000000         0.00 ; PUR7, purine(N7H), kevo
  NG2R50   CG2RC0   NG2RC0     5   112.600000  1171.520000   0.00000000         0.00 ; DWG, yxu, RNA
  NG2R51   CG2RC0   NG2R61     5   126.900000   836.800000   0.00000000         0.00 ; DWG, from NG2R51 CG2RC0 NG2R62, yxu, RNA
  NG2R51   CG2RC0   NG2R62     5   126.900000   836.800000   0.00000000         0.00 ; NA Ade bridgeC4
  NG2R52   CG2RC0   NG2R62     5   126.900000   602.496000   0.00000000         0.00 ; 7MG, yxu, RNA
  NG2R61   CG2RC0   NG2RC0     5   116.400000   569.024000   0.00000000         0.00 ; DWG, yxu, RNA
  CG2R51   CG2RC7   CG2R71     5   122.700000   251.040000   0.00000000         0.00 ; AZUL, Azulene, kevo
  CG2R51   CG2RC7   CG2RC7     5   109.500000   920.480000   0.00000000         0.00 ; AZUL, Azulene, kevo
  CG2R71   CG2RC7   CG2RC7     5   127.800000   251.040000   0.00000000         0.00 ; AZUL, Azulene, kevo
   CG2D1    CG301    CG311     5   112.200000   267.776000   0.00000000         0.00 ; CHOLEST cholesterol
   CG2D1    CG301    CG321     5   112.200000   267.776000   0.00000000         0.00 ; CHOLEST cholesterol
   CG2D1    CG301    CG331     5   112.200000   267.776000   0.00000000         0.00 ; CHOLEST cholesterol
  CG2DC1    CG301    CG321     5   112.200000   267.776000   0.00000000         0.00 ; RETINOL MECH
  CG2DC1    CG301    CG331     5   112.200000   267.776000   0.00000000         0.00 ; RETINOL MECH
  CG2DC2    CG301    CG321     5   112.200000   267.776000   0.00000000         0.00 ; RETINOL MECH
  CG2DC2    CG301    CG331     5   112.200000   267.776000   0.00000000         0.00 ; RETINOL MECH
   CG2O3    CG301    CG331     5   108.000000   435.136000   0.00000000         0.00 ; AMOL, alpha-methoxy-lactic acid, og
   CG2O3    CG301    OG301     5   109.000000   376.560000   0.00000000         0.00 ; AMOL, alpha-methoxy-lactic acid, og
   CG2O3    CG301    OG303     5   109.000000   376.560000   0.00000000         0.00 ; from CG2O3 CG301 OG301, PENALTY= 3 QPA
   CG2O3    CG301    OG311     5   110.100000   633.457600   0.00000000         0.00 ; AMOL, alpha-methoxy-lactic acid, og
   CG2O3    CG301    SG311     5   103.430000   544.254720   0.00000000         0.00 ; QPA, by ac_aa
  CG2R61    CG301    CG331     5   107.500000   433.462400   0.00000000         0.00 ; from CG2R61 CG311 CG331, PENALTY= 8 TBP4
   CG311    CG301    CG311     5   113.500000   488.272800   0.25610000      9338.69 ; CA, CHOLIC ACID, cacha, 03/06
   CG311    CG301    CG321     5   113.500000   488.272800   0.25610000      9338.69 ; CA, CHOLIC ACID, cacha, 03/06
   CG311    CG301    CG331     5   113.500000   488.272800   0.25610000      9338.69 ; CA, CHOLIC ACID, cacha, 03/06
   CG311    CG301    OG311     5   110.100000   633.457600   0.00000000         0.00 ; from CG331 CG301 OG311, PENALTY= 1.5 TS9
   CG321    CG301    CG321     5   113.500000   488.272800   0.25610000      9338.69 ; CHOLEST cholesterol
   CG321    CG301    CG331     5   113.500000   488.272800   0.25610000      9338.69 ; RETINOL TMCH/MECH
   CG321    CG301    OG301     5   114.500000   380.744000   0.00000000         0.00 ; DMBU, dimethoxybutane, sna
   CG331    CG301    CG331     5   113.500000   488.272800   0.25610000      9338.69 ; RETINOL TMCH/MECH
   CG331    CG301    OG301     5   111.500000   376.560000   0.00000000         0.00 ; AMOL, alpha-methoxy-lactic acid, og
   CG331    CG301    OG302     5   110.100000   633.457600   0.00000000         0.00 ; AMGT, Alpha Methyl Gamma Tert Butyl Glu Acid CDCA Amide, cacha
   CG331    CG301    OG303     5   110.100000   633.457600   0.00000000         0.00 ; from CG331 CG301 OG302, PENALTY= 2.5 QPA
   CG331    CG301    OG311     5   110.100000   633.457600   0.00000000         0.00 ; AMOL, alpha-methoxy-lactic acid, og
   CG331    CG301    SG311     5   109.230000   534.966240   0.00000000         0.00 ; LE1, by ac_aa
   CG331    CG301    CLGA3     5   111.200000   811.696000   0.00000000         0.00 ; TCLE
   CG331    CG301    BRGA3     5   111.200000   820.064000   0.00000000         0.00 ; TBRE
   OG301    CG301    OG301     5   107.000000   589.860320   0.00000000         0.00 ; DMOP, dimethoxypropane, sna
   OG301    CG301    OG311     5   116.500000   376.560000   0.00000000         0.00 ; AMOL, alpha-methoxy-lactic acid, og
   OG303    CG301    SG311     5   112.280000   513.962560   0.00000000         0.00 ; QPA, by ac_aa
   CLGA3    CG301    CLGA3     5   109.000000   794.960000   0.00000000         0.00 ; TCLE
   BRGA3    CG301    BRGA3     5   110.500000   753.120000   0.00000000         0.00 ; TBRE
  CG2R61    CG302     FGA3     5   115.000000   418.400000   0.23570000     25104.00 ; from CG2R61 CG312 FGA2, PENALTY= 6.1 TFG2 TFG3 TFG4
   CG311    CG302     FGA3     5   112.000000   351.456000   0.23570000     25104.00 ; from CG321 CG302 FGA3, PENALTY= 0.6 TFLE
   CG314    CG302     FGA3     5   104.370000   238.488000   0.29305000     18928.42 ; FLA, by ac_aa
   CG321    CG302     FGA3     5   112.000000   351.456000   0.23570000     25104.00 ; TFE, trifluoroethanol
   CG331    CG302     FGA3     5   112.000000   351.456000   0.23570000     25104.00 ; FLUROALK fluoroalkanes
    FGA3    CG302     FGA3     5   107.000000   987.424000   0.21550000     25104.00 ; FLUROALK fluoroalkanes
   CG2D1    CG311    CG2D1     5   114.000000   251.040000   0.00000000         0.00 ; from CG2D1 CG321 CG2D1, PENALTY= 4 ACZ
   CG2D1    CG311    CG321     5   112.200000   267.776000   0.00000000         0.00 ; from CG2D1 CG321 CG321, PENALTY= 4 ACZ
   CG2D1    CG311     HGA1     5   111.500000   376.560000   0.00000000         0.00 ; from CG2D1 CG321 HGA2, PENALTY= 4 ACZ
   CG2O1    CG311    CG2O3     5   106.780000   355.054240   0.00000000         0.00 ; FGL, by ac_aa
   CG2O1    CG311    CG301     5   108.000000   435.136000   0.00000000         0.00 ; from CG2O1 CG311 CG311, PENALTY= 1.2 4HH LYX
   CG2O1    CG311    CG311     5   108.000000   435.136000   0.00000000         0.00 ; PROT Alanine Dipeptide ab initio calc's (LK)
   CG2O1    CG311    CG321     5   108.000000   435.136000   0.00000000         0.00 ; PROT Alanine Dipeptide ab initio calc's (LK)
   CG2O1    CG311    CG331     5   108.000000   435.136000   0.00000000         0.00 ; PROT Alanine Dipeptide ab initio calc's (LK)
   CG2O1    CG311    NG2S0     5   107.000000   418.400000   0.00000000         0.00 ; from CG2O1 CG311 NG2S1, PENALTY= 1 MAA
   CG2O1    CG311    NG2S1     5   107.000000   418.400000   0.00000000         0.00 ; PROT Alanine Dipeptide ab initio calc's (LK)
   CG2O1    CG311    OG311     5   111.000000   937.216000   0.00000000         0.00 ; from CG2O5 CG311 OG311, PENALTY= 3 4HH AHB GHG
   CG2O1    CG311    SG311     5   109.770000   431.872480   0.00000000         0.00 ; LYX, by ac_aa
   CG2O1    CG311     HGA1     5   109.500000   418.400000   0.00000000         0.00 ; PROT Alanine Dipeptide ab initio calc's (LK)
   CG2O2    CG311    CG2O3     5   113.990000   340.912320   0.00000000         0.00 ; CGUH, by ac_aa
   CG2O2    CG311   CG2R61     5   107.500000   334.720000   0.00000000         0.00 ; cmbz, yxu, RNA
   CG2O2    CG311   CG2R62     5   107.500000   334.720000   0.00000000         0.00 ; CMU, from cmbz, yxu, RNA
   CG2O2    CG311    CG311     5   108.000000   435.136000   0.00000000         0.00 ; HWG, from CG2O2 CG311 CG321, yxu, RNA
   CG2O2    CG311    CG321     5   108.000000   435.136000   0.00000000         0.00 ; PROT adm jr. 5/02/91, acetic acid pure solvent
   CG2O2    CG311    CG331     5   108.000000   435.136000   0.00000000         0.00 ; hpme, from CG2O2 CG311 CG321, not optimized, yxu, RNA
   CG2O2    CG311   NG2R53     5   107.000000   418.400000   0.00000000         0.00 ; drug design project, xxwy
   CG2O2    CG311    NG2S1     5   107.000000   418.400000   0.00000000         0.00 ; PROT adm jr. 5/02/91, acetic acid pure solvent
   CG2O2    CG311    NG321     5   110.000000   365.681600   0.00000000         0.00 ; 5UHA, from CG2O2  CG321  NG321, yxu, RNA
   CG2O2    CG311    OG311     5   106.700000   920.480000   0.00000000         0.00 ; CMU, yxu, RNA
   CG2O2    CG311     HGA1     5   109.500000   418.400000   0.00000000         0.00 ; PROT adm jr. 5/02/91, acetic acid pure solvent
   CG2O3    CG311    CG2O3     5   124.900000   380.241920   0.00000000         0.00 ; CGU, by ac_aa
   CG2O3    CG311   CG2R61     5   107.500000   433.462400   0.00000000         0.00 ; FBIF, Fatty acid Binding protein Inhibitor F, cacha
   CG2O3    CG311   CG2R62     5   104.500000   485.344000   0.00000000         0.00 ; HCU, yxu, RNA
   CG2O3    CG311    CG311     5   108.000000   435.136000   0.00000000         0.00 ; PROT adm jr. 4/05/91, for asn,asp,gln,glu and cters
   CG2O3    CG311    CG321     5   108.000000   435.136000   0.00000000         0.00 ; PROT adm jr. 4/05/91, for asn,asp,gln,glu and cters
   CG2O3    CG311    CG331     5   108.000000   435.136000   0.00000000         0.00 ; PROT adm jr. 4/09/92, for ALA cter
   CG2O3    CG311   NG2R53     5   107.000000   418.400000   0.00000000         0.00 ; drug design project, xxwy
   CG2O3    CG311    NG2S1     5   107.000000   418.400000   0.00000000         0.00 ; PROT adm jr. 4/05/91, for asn,asp,gln,glu and cters
   CG2O3    CG311    OG301     5   109.000000   376.560000   0.00000000         0.00 ; CC321 CC3163 OC3C61 optimize on PROA, gk (not affected by mistake)
   CG2O3    CG311    OG302     5   109.000000   376.560000   0.00000000         0.00 ; from CG2O3 CG311 OG301, PENALTY= 0.5 ASL
   CG2O3    CG311    OG311     5   107.000000   669.440000   0.00000000         0.00 ; HCU, yxu, RNA
   CG2O3    CG311    SG311     5   105.350000   476.808640   0.00000000         0.00 ; 0TD CML, by ac_aa
   CG2O3    CG311     HGA1     5   109.500000   418.400000   0.00000000         0.00 ; PROT adm jr. 4/05/91, for asn,asp,gln,glu and cters
   CG2O4    CG311    CG311     5   108.000000   435.136000   0.00000000         0.00 ; amba, from CG2O2 CG311 CG321, not optimized, yxu, RNA
   CG2O4    CG311    CG321     5   108.000000   435.136000   0.00000000         0.00 ; from CG2O2 CG311 CG321, PENALTY= 2 LED
   CG2O4    CG311    CG331     5   108.000000   435.136000   0.00000000         0.00 ; from CG2O2 CG311 CG321, PENALTY= 2.9 LED LVN
   CG2O4    CG311    NG2S1     5   107.000000   418.400000   0.00000000         0.00 ; amba, from CG2O2 CG311 NG2S1, not optimized, yxu, RNA
   CG2O4    CG311     HGA1     5   109.500000   418.400000   0.00000000         0.00 ; amba, from CG2O5 CG311 HGA1, not optimized, yxu, RNA
   CG2O5    CG311    OG311     5   111.000000   937.216000   0.00000000         0.00 ; BIPHENYL ANALOGS unmodified, peml ! reset by kevo to value from CG2O5 CG311 OG312 ==> RE-OPTIMIZE !!!
   CG2O5    CG311    OG312     5   111.000000  1087.840000   0.00000000         0.00 ; BIPHENYL ANALOGS unmodified, peml
   CG2O5    CG311     HGA1     5   109.500000   418.400000   0.00000000         0.00 ; BIPHENYL ANALOGS from PROT Alanine Dipeptide ab initio calc's (LK) consistent with adm 11/08
  CG2R51    CG311    CG331     5   114.000000   488.272800   0.00000000         0.00 ; from CG2R51 CG321 CG331, penalty= 4 HTR
  CG2R51    CG311    OG311     5   107.750000   624.671200   0.00000000         0.00 ; HTR, by ac_aa
  CG2R51    CG311     HGA1     5   109.500000   460.240000   0.00000000         0.00 ; from CG2R51 CG321 HGA2, PENALTY= 4 HTR
  CG2R53    CG311    CG311     5   111.000000   493.712000   0.00000000         0.00 ; from CG2R53 CG321 CG331, PENALTY= 5.5 CRF B2H CRO
  CG2R53    CG311    CG321     5   111.000000   493.712000   0.00000000         0.00 ; from CG2R53 CG321 CG331, PENALTY= 4.9 SWG GYS CH6 CR8D DYG
  CG2R53    CG311    CG331     5   111.000000   493.712000   0.00000000         0.00 ; from CG2R53 CG321 CG331, PENALTY= 4 MDO PIA
  CG2R53    CG311    NG2S1     5   107.920000   456.558080   0.00000000         0.00 ; MDO, by ac_aa
  CG2R53    CG311     HGA1     5   109.500000   460.240000   0.00000000         0.00 ; from CG2R53 CG321 HGA2, PENALTY= 4 SWG CRF B2H CRO MDO PIA GYS CH6 CR8D
  CG2R61    CG311   CG2R61     5   107.500000   433.462400   0.00000000         0.00 ; from CG2R61 CG321 CG2R61, PENALTY= 4 2GX CYF DIPH
  CG2R61    CG311    CG321     5   107.500000   433.462400   0.00000000         0.00 ; Slack parameter from difluorotoluene picked up by FBIC ==> RE-OPTIMIZE !!!
  CG2R61    CG311    CG331     5   107.500000   433.462400   0.00000000         0.00 ; FBIB, Fatty Binding Inhibitior B, cacha
  CG2R61    CG311    OG311     5   112.800000   686.176000   0.00000000         0.00 ; cmbz, yxu, RNA
  CG2R61    CG311     HGA1     5   111.000000   359.824000   0.00000000         0.00 ; NAMODEL difluorotoluene
  CG2R62    CG311    OG311     5   112.800000   686.176000   0.00000000         0.00 ; CMU, from cmbz, yxu, RNA
  CG2R62    CG311     HGA1     5   111.000000   359.824000   0.00000000         0.00 ; CMU, from CG2R61 CG311 HGA1, yxu, RNA
   CG301    CG311    CG311     5   108.000000   435.136000   0.00000000         0.00 ; CA, CHOLIC ACID, cacha, 03/06
   CG301    CG311    CG321     5   113.500000   488.272800   0.25610000      9338.69 ; CA, CHOLIC ACID, cacha, 03/06
   CG301    CG311    CG331     5   113.500000   488.272800   0.25610000      9338.69 ; from CG301 CG311 CG321, PENALTY= 0.9 TS9
   CG301    CG311    OG311     5   110.100000   633.457600   0.00000000         0.00 ; from CG311 CG311 OG311, PENALTY= 1.2 4HH LYX TS9
   CG301    CG311     HGA1     5   110.100000   289.532800   0.21790000     18853.10 ; CA, CHOLIC ACID, cacha, 03/06
   CG302    CG311    CG321     5   108.650000   446.432800   0.24926000      6660.93 ; from CG331 CG311 CG302, TFLE
   CG302    CG311    CG331     5   108.650000   446.432800   0.24926000      6660.93 ; TFLE, by ac_aa
   CG302    CG311     HGA1     5   110.100000   289.532800   0.21790000     18853.10 ; from CG302 CG321 HGA2, PENALTY= 4 TFLE
   CG311    CG311    CG311     5   111.000000   446.432800   0.25610000      6694.40 ; PROT alkane update, adm jr., 3/2/92
   CG311    CG311    CG321     5   111.000000   446.432800   0.25610000      6694.40 ; PROT alkane update, adm jr., 3/2/92
   CG311    CG311    CG331     5   108.500000   446.432800   0.25610000      6694.40 ; PROT alkane update, adm jr., 3/2/92
   CG311    CG311   CG3RC1     5   103.700000   446.432800   0.25610000      6694.40 ; CARBOCY carbocyclic sugars
   CG311    CG311    NG2S1     5   113.500000   585.760000   0.00000000         0.00 ; PROT Alanine Dipeptide ab initio calc's (LK)
   CG311    CG311    NG321     5   111.200000   610.864000   0.00000000         0.00 ; BUGn, from CG331 CG321 NG311, yxu, RNA
   CG311    CG311    OG301     5   109.700000   962.320000   0.00000000         0.00 ; PBG, from CG321 CG311 OG302, yxu, RNA
   CG311    CG311    OG311     5   110.100000   633.457600   0.00000000         0.00 ; PROT MeOH, EMB, 10/10/89
   CG311    CG311     HGA1     5   110.100000   288.696000   0.21790000     18853.10 ; PROT alkane update, adm jr., 3/2/92
   CG314    CG311    CG321     5   111.000000   446.432800   0.25610000      6694.40 ; PROT alkane update, adm jr., 3/2/92
   CG314    CG311    CG331     5   108.500000   446.432800   0.25610000      6694.40 ; PROT alkane update, adm jr., 3/2/92
   CG314    CG311    OG311     5   112.100000   633.457600   0.00000000         0.00 ; BUG, from CG324 CG311 OG311, yxu, RNA
   CG314    CG311     HGA1     5   110.100000   288.696000   0.21790000     18853.10 ; PROT alkane update, adm jr., 3/2/92
   CG321    CG311    CG321     5   113.500000   488.272800   0.25610000      9338.69 ; LIPID glycerol
   CG321    CG311    CG322     5   111.980000   444.340800   0.25015000      6694.40 ; from CG331 CG311 CG322, LEF
   CG321    CG311    CG324     5   110.500000   488.272800   0.25610000      9338.69 ; FLAVOP PIP1,2,3
   CG321    CG311    CG331     5   114.000000   446.432800   0.25610000      6694.40 ; PROT alkane update, adm jr., 3/2/92
   CG321    CG311   CG3C51     5   111.000000   446.432800   0.25610000      6694.40 ; CA, Cholic acid, cacha, 02/08
   CG321    CG311   CG3RC1     5   103.700000   446.432800   0.25610000      6694.40 ; CARBOCY carbocyclic sugars
   CG321    CG311   NG2R53     5   113.500000   585.760000   0.00000000         0.00 ; drug design project, xxwy
   CG321    CG311    NG2S0     5   108.000000   585.760000   0.00000000         0.00 ; fentanyl, Lesnik et al, 2020
   CG321    CG311    NG2S1     5   113.500000   585.760000   0.00000000         0.00 ; PROT Alanine Dipeptide ab initio calc's (LK)
   CG321    CG311    NG321     5   112.200000   365.681600   0.00000000         0.00 ; 5UHA, from CG331  CG321  NG311, yxu, RNA
   CG321    CG311    OG301     5   109.700000   962.320000   0.00000000         0.00 ; PBG, from CG321 CG311 OG302, yxu, RNA
   CG321    CG311    OG302     5   109.700000   962.320000   0.00000000         0.00 ; NA
   CG321    CG311    OG311     5   110.000000   633.457600   0.00000000         0.00 ; NA
   CG321    CG311   OG3C61     5   111.500000   376.560000   0.00000000         0.00 ; pepr, from CG321 CG321 OG3C61, not optimized, yxu, RNA
   CG321    CG311    SG311     5   114.500000   485.344000   0.00000000         0.00 ; from CG321 CG321 SG311, penalty= 4 CML HTI LA2
   CG321    CG311     HGA1     5   110.100000   288.696000   0.21790000     18853.10 ; PROT alkane update, adm jr., 3/2/92
   CG322    CG311    CG331     5   111.980000   444.340800   0.25015000      6694.40 ; LEF, by ac_aa
   CG322    CG311     HGA1     5   110.100000   289.532800   0.21790000     18853.10 ; from CG302 CG321 HGA2, PENALTY= 7.2 LEF
   CG324    CG311    CG331     5   108.500000   446.432800   0.25610000      6694.40 ; sidechai , from CG314 CG311 CG331, penalty= 0.6 ARO
   CG324    CG311    NG2S1     5   113.500000   585.760000   0.00000000         0.00 ; G3P(R/S), 01OH04
   CG324    CG311    OG311     5   112.100000   633.457600   0.00000000         0.00 ; FLAVOP PIP1,2,3
   CG324    CG311     HGA1     5   111.800000   221.752000   0.21790000     18853.10 ; FLAVOP PIP1,2,3
   CG331    CG311    CG331     5   114.000000   446.432800   0.25610000      6694.40 ; PROT alkane update, adm jr., 3/2/92
   CG331    CG311   CG3C51     5   108.500000   446.432800   0.25610000      6694.40 ; BAM1, bile acid steroidal C-D ring, cacha, 02/08
   CG331    CG311    NG2S0     5   113.500000   585.760000   0.00000000         0.00 ; from CG331 CG311 NG2S1, PENALTY= 1 MAA
   CG331    CG311    NG2S1     5   113.500000   585.760000   0.00000000         0.00 ; PROT Alanine Dipeptide ab initio calc's (LK)
   CG331    CG311    NG321     5   113.200000   610.864000   0.00000000         0.00 ; aboh, cgenff_xyu, yxu, RNA
   CG331    CG311    OG301     5   111.500000   376.560000   0.00000000         0.00 ; all34_ethers_1a OC30A CC32A CC33A, gk or og (not affected by mistake)
   CG331    CG311    OG302     5   110.100000   633.457600   0.00000000         0.00 ; LIPID acetic acid
   CG331    CG311    OG303     5   109.700000   962.320000   0.00000000         0.00 ; PROTNA Ser-Phos
   CG331    CG311    OG311     5   110.100000   633.457600   0.00000000         0.00 ; PROT MeOH, EMB, 10/10/89
   CG331    CG311    SG311     5   114.500000   485.344000   0.00000000         0.00 ; from CG331 CG321 SG311, penalty= 4 0TD HTI LA2
   CG331    CG311    CLGA1     5   111.200000   736.384000   0.00000000         0.00 ; DCLE
   CG331    CG311    BRGA2     5   111.000000   627.600000   0.00000000         0.00 ; DBRE
   CG331    CG311     HGA1     5   110.100000   288.696000   0.21790000     18853.10 ; PROT alkane update, adm jr., 3/2/92
  CG3C51    CG311     HGA1     5   110.100000   289.532800   0.21790000     18853.10 ; TF2M viv
  CG3RC1    CG311    OG311     5   110.100000   633.457600   0.00000000         0.00 ; CARBOCY ncarbocyclic sugars
  CG3RC1    CG311     HGA1     5   110.100000   288.696000   0.21790000     18853.10 ; CARBOCY carbocyclic sugars
  NG2R53    CG311     HGA1     5   108.000000   401.664000   0.00000000         0.00 ; drug design project, xxwy
   NG2S0    CG311     HGA1     5   108.000000   401.664000   0.00000000         0.00 ; from NG2S1 CG311 HGA1, PENALTY= 1 MAA
   NG2S1    CG311     HGA1     5   108.000000   401.664000   0.00000000         0.00 ; PROT Alanine Dipeptide ab initio calc's (LK)
   NG321    CG311     HGA1     5   109.500000   271.123200   0.21400000     41840.00 ; 5UHA, from NG321  CG321  HGA2, cgenff_xyu, yxu, RNA
   OG301    CG311   OG3C61     5   112.000000   753.120000   0.00000000         0.00 ; MQG, from Carb36, RNA
   OG301    CG311     HGA1     5   109.500000   502.080000   0.00000000         0.00 ; all34_ethers_1a HCA2 CC32A OC30A, gk or og (not affected by mistake)
   OG302    CG311     HGA1     5   109.500000   502.080000   0.00000000         0.00 ; PROTNA Ser-Phos
   OG303    CG311    OG311     5   112.790000   622.997600   0.00000000         0.00 ; ALS, by ac_aa
   OG303    CG311     HGA1     5   109.500000   502.080000   0.00000000         0.00 ; PROTNA Ser-Phos
   OG311    CG311    OG311     5   117.150000   840.984000   0.00000000         0.00 ; DDZ, by ac_aa
   OG311    CG311    OG312     5   111.000000   936.379200   0.23500000     83680.00 ; BIPHENYL ANALOGS, peml
   OG311    CG311    SG311     5   115.680000   569.358720   0.00000000         0.00 ; HTI, by ac_aa
   OG311    CG311     HGA1     5   108.890000   384.091200   0.00000000         0.00 ; PROT MeOH, EMB, 10/10/89
   OG312    CG311     HGA1     5   117.800000   551.451200   0.00000000         0.00 ; BIPHENYL ANALOGS, peml
  OG3C61    CG311     HGA1     5   109.500000   376.560000   0.00000000         0.00 ; pepr, from OG3C61 CG321 HGA2, not optimized, yxu, RNA
   SG311    CG311     HGA1     5   111.300000   385.764800   0.00000000         0.00 ; from SG311 CG321 HGA2, penalty= 4 0TD CGV CML
   CLGA1    CG311    CLGA1     5   109.000000   794.960000   0.00000000         0.00 ; DCLE
   CLGA1    CG311     HGA1     5   108.500000   368.192000   0.00000000         0.00 ; DCLE
   BRGA2    CG311    BRGA2     5   110.000000   794.960000   0.00000000         0.00 ; DBRE
   BRGA2    CG311     HGA1     5   107.000000   301.248000   0.00000000         0.00 ; DBRE
  CG2R61    CG312      PG1     5   117.000000   753.120000   0.23000000     16736.00 ; BDFP, Difuorobenzylphosphonate \ re-optimize?
  CG2R61    CG312      PG2     5   117.000000   753.120000   0.23000000     16736.00 ; BDFD, Difuorobenzylphosphonate / re-optimize?
  CG2R61    CG312     FGA2     5   115.000000   418.400000   0.23570000     25104.00 ; BDFP, BDFD, Difuorobenzylphosphonate
   CG321    CG312     FGA2     5   112.000000   418.400000   0.23570000     25104.00 ; from CG331 CG312 FGA2, PENALTY= 0.9 OBF
   CG321    CG312     HGA7     5   112.000000   267.776000   0.21680000      2510.40 ; from CG331 CG312 HGA7, PENALTY= 0.9 OBF
   CG331    CG312     FGA2     5   112.000000   418.400000   0.23570000     25104.00 ; FLUROALK fluoroalkanes
   CG331    CG312     HGA7     5   112.000000   267.776000   0.21680000      2510.40 ; FLUROALK fluoroalkanes
     PG1    CG312     FGA2     5   122.000000   418.400000   0.23570000     25104.00 ; BDFP, Difuorobenzylphosphonate \ re-optimize?
     PG2    CG312     FGA2     5   122.000000   418.400000   0.23570000     25104.00 ; BDFD, Difuorobenzylphosphonate / re-optimize?
   SG311    CG312     FGA2     5   111.570000   418.400000   0.26018000     25104.00 ; 2FM, by ac_aa
   SG311    CG312     HGA7     5   110.600000   385.597440   0.00000000         0.00 ; 2FM, by ac_aa
    FGA2    CG312     FGA2     5   107.000000  1255.200000   0.21700000      8368.00 ; FLUROALK fluoroalkanes
    FGA2    CG312     HGA7     5   108.890000   350.619200   0.19800000      4184.00 ; FLUROALK fluoroalkanes
   CG2D1    CG314    CG2D1     5   114.000000   251.040000   0.00000000         0.00 ; from CG2D1 CG321 CG2D1, PENALTY= 5 ACZ
   CG2D1    CG314    NG3P3     5   112.160000   384.091200   0.24644000     29288.00 ; ACZ, by ac_aa
   CG2D1    CG314     HGA1     5   111.500000   376.560000   0.00000000         0.00 ; from CG2D1 CG321 HGA2, PENALTY= 5 ACZ
   CG2O1    CG314    CG311     5   108.000000   435.136000   0.00000000         0.00 ; PROT Alanine Dipeptide ab initio calc's (LK)
   CG2O1    CG314    CG321     5   108.000000   435.136000   0.00000000         0.00 ; PROT Alanine Dipeptide ab initio calc's (LK)
   CG2O1    CG314    CG331     5   108.000000   435.136000   0.00000000         0.00 ; PROT Alanine Dipeptide ab initio calc's (LK)
   CG2O1    CG314    NG3P0     5   110.000000   365.681600   0.00000000         0.00 ; from CG2O1 CG314 NG3P3, PENALTY= 2.7 DDE DDEP
   CG2O1    CG314    NG3P3     5   110.000000   365.681600   0.00000000         0.00 ; PROT new aliphatics, adm jr., 2/3/92
   CG2O1    CG314     HGA1     5   109.500000   418.400000   0.00000000         0.00 ; PROT Alanine Dipeptide ab initio calc's (LK)
   CG2O1    CG314     HGP5     5   116.420000   422.081920   0.00000000         0.00 ; DDE, by ac_aa
   CG2O3    CG314   CG2R51     5   107.500000   433.462400   0.00000000         0.00 ; from CG2O3 CG311 CG2R61, PENALTY= 9.5 143
   CG2O3    CG314    CG302     5   111.360000   387.103680   0.00000000         0.00 ; FLA, by ac_aa
   CG2O3    CG314    CG311     5   108.000000   435.136000   0.00000000         0.00 ; PROT adm jr. 4/05/91, for asn,asp,gln,glu and cters
   CG2O3    CG314    CG321     5   108.000000   435.136000   0.00000000         0.00 ; PROT adm jr. 4/05/91, for asn,asp,gln,glu and cters
   CG2O3    CG314    CG331     5   108.000000   435.136000   0.00000000         0.00 ; PROT adm jr. 4/09/92, for ALA cter
   CG2O3    CG314   CG3C51     5   108.000000   435.136000   0.00000000         0.00 ; from CG2O3 CG314 CG321, PENALTY= 10 5CS
   CG2O3    CG314    NG3P3     5   110.000000   365.681600   0.00000000         0.00 ; PROT adm jr. 4/05/91, for asn,asp,gln,glu and cters
   CG2O3    CG314     HGA1     5   109.500000   418.400000   0.00000000         0.00 ; PROT adm jr. 4/05/91, for asn,asp,gln,glu and cters
  CG2R51    CG314    NG3P3     5   109.100000   384.342240   0.24377000     29873.76 ; 143, by ac_aa
  CG2R51    CG314     HGA1     5   109.500000   460.240000   0.00000000         0.00 ; from CG2R51 CG321 HGA2, PENALTY= 5 143
   CG302    CG314    NG3P3     5   108.760000   566.429920   0.00000000         0.00 ; FLA, by ac_aa
   CG302    CG314     HGA1     5   110.100000   289.532800   0.21790000     18853.10 ; from CG302 CG321 HGA2, PENALTY= 5 FLA
   CG311    CG314    NG3P3     5   110.000000   566.513600   0.00000000         0.00 ; PROT new aliphatics, adm jr., 2/3/92
   CG311    CG314     HGA1     5   110.100000   288.696000   0.21790000     18853.10 ; PROT alkane update, adm jr., 3/2/92
   CG321    CG314    CG321     5   113.500000   488.272800   0.25610000      9338.69 ; 2MRB, Alpha benzyl gamma 2-methyl piperidine, cacha
   CG321    CG314    CG331     5   113.500000   488.272800   0.25610000      9338.69 ; from CG321 CG314 CG321, PENALTY= 0.9 AGM
   CG321    CG314    NG2P1     5   110.000000   566.513600   0.00000000         0.00 ; from CG321 CG324 NG2P1, PENALTY= 4 AGM
   CG321    CG314    NG3P0     5   110.000000   334.720000   0.00000000         0.00 ; from CG321 CG314 NG3P2, PENALTY= 1.8 DDE DDEP
   CG321    CG314    NG3P2     5   110.000000   334.720000   0.00000000         0.00 ; 2MRB, Alpha benzyl gamma 2-methyl piperidine, cacha
   CG321    CG314    NG3P3     5   110.000000   566.513600   0.00000000         0.00 ; PROT new aliphatics, adm jr., 2/3/92
   CG321    CG314     HGA1     5   110.100000   288.696000   0.21790000     18853.10 ; PROT alkane update, adm jr., 3/2/92
   CG321    CG314     HGP5     5   110.100000   279.742240   0.21790000     18853.10 ; from CG321 CG324 HGP5, PENALTY= 4 DDE DDEP
   CG331    CG314    CG331     5   114.000000   446.432800   0.25610000      6694.40 ; from CG331 CG311 CG331, penalty= 1 IAM
   CG331    CG314    NG2P1     5   110.000000   566.513600   0.00000000         0.00 ; from CG321 CG324 NG2P1, PENALTY= 4.9 AGM
   CG331    CG314    NG3P0     5   110.000000   334.720000   0.00000000         0.00 ; from CG321 CG314 NG3P2, penalty= 2.7 DDE
   CG331    CG314    NG3P2     5   110.000000   566.513600   0.00000000         0.00 ; from CG331 CG314 NG3P3, penalty= 0.9 IAM
   CG331    CG314    NG3P3     5   110.000000   566.513600   0.00000000         0.00 ; PROT new aliphatics, adm jr., 2/3/92
   CG331    CG314     HGA1     5   110.100000   288.696000   0.21790000     18853.10 ; PROT alkane update, adm jr., 3/2/92
   CG331    CG314     HGP5     5   110.100000   279.742240   0.21790000     18853.10 ; from CG331 CG324 HGP5, penalty= 4 DDE
  CG3C51    CG314    NG3P3     5   110.000000   566.513600   0.00000000         0.00 ; from CG321 CG314 NG3P3, PENALTY= 10 5CS
  CG3C51    CG314     HGA1     5   110.100000   289.532800   0.21790000     18853.10 ; from CG3C51 CG311 HGA1, penalty= 1 5CS
   NG2P1    CG314     HGA1     5   110.100000   351.456000   0.00000000         0.00 ; from NG2P1 CG324 HGA2, PENALTY= 4 AGM
   NG311    CG314    NG3P3     5   112.540000   639.900960   0.00000000         0.00 ; AGT, by ac_aa
   NG311    CG314    SG311     5   119.200000   486.097120   0.00000000         0.00 ; AGT, by ac_aa
   NG311    CG314     HGA1     5   109.500000   271.123200   0.21300000     41840.00 ; from NG311 CG321 HGA2, PENALTY= 5 AGT
   NG3P0    CG314     HGP5     5   109.500000   334.720000   0.21300000     22593.60 ; from NG3P0 CG324 HGP5, PENALTY= 4 DDE DDEP
   NG3P2    CG314     HGA1     5   102.300000   376.560000   0.21010000     29288.00 ; 2MRB, Alpha benzyl gamma 2-methyl piperidine, cacha
   NG3P3    CG314    SG311     5   112.970000   505.678240   0.00000000         0.00 ; AGT, by ac_aa
   NG3P3    CG314     HGA1     5   107.500000   430.952000   0.00000000         0.00 ; PROT new aliphatics, adm jr., 2/3/92
   SG311    CG314     HGA1     5   111.300000   385.764800   0.00000000         0.00 ; from SG311 CG321 HGA2, PENALTY= 5 AGT
   CG1N1    CG321   CG2R61     5   112.000000   476.976000   0.00000000         0.00 ; cybz, yxu, RNA
   CG1N1    CG321   CG2R62     5   112.000000   476.976000   0.00000000         0.00 ; CYU from cybz, yxu, RNA
   CG1N1    CG321     HGA2     5   109.000000   418.400000   0.00000000         0.00 ; CYU, yxu, RNA
   CG1T1    CG321    CG321     5   113.500000   585.760000   0.00000000         0.00 ; PENTY, HPTY, HXYN, OCTY, pchat
   CG1T1    CG321    CG331     5   120.000000   585.760000   0.00000000         0.00 ; BUTY , pchat
   CG1T1    CG321     HGA2     5   111.500000   393.296000   0.00000000         0.00 ; BUTY , PENTY, HXYN, HPTY, OCTY , pchat
   CG2D1    CG321    CG2D1     5   114.000000   251.040000   0.00000000         0.00 ; LIPID 1,4-dipentene, adm jr., 2/00
   CG2D1    CG321   CG2DC1     5   108.000000  1046.000000   0.00000000         0.00 ; NICH; Kenno: reverted to nadh/ppi, jjp1/adm jr. 7/95 ! force constant is unlikely high
   CG2D1    CG321   CG2DC2     5   108.000000  1046.000000   0.00000000         0.00 ; NICH; Kenno: reverted to nadh/ppi, jjp1/adm jr. 7/95 ! force constant is unlikely high
   CG2D1    CG321    CG311     5   112.200000   267.776000   0.00000000         0.00 ; CHOLEST cholesterol
   CG2D1    CG321    CG321     5   112.200000   267.776000   0.00000000         0.00 ; LIPID 1-butene; propene, yin,adm jr., 12/95
   CG2D1    CG321    CG331     5   112.200000   267.776000   0.00000000         0.00 ; LIPID 1-butene; propene, yin,adm jr., 12/95
   CG2D1    CG321    NG311     5   110.000000   652.704000   0.00000000         0.00 ; 6IA, yxu, RNA
   CG2D1    CG321    OG311     5   110.100000   633.457600   0.00000000         0.00 ; RETINOL PROL
   CG2D1    CG321    SG311     5   109.800000   393.296000   0.00000000         0.00 ; pesu, yxu, RNA
   CG2D1    CG321     HGA2     5   111.500000   376.560000   0.00000000         0.00 ; LIPID 1-butene; propene, yin,adm jr., 12/95
  CG2DC1    CG321    CG321     5   112.200000   267.776000   0.00000000         0.00 ; RETINOL MECH
  CG2DC1    CG321    CG331     5   112.200000   267.776000   0.00000000         0.00 ; from CG2D1 CG321 CG331, penalty= 0.5 TPQ TPQP
  CG2DC1    CG321    OG311     5   110.100000   633.457600   0.00000000         0.00 ; RETINOL PROL
  CG2DC1    CG321   OG3R60     5    99.000000   167.360000   0.00000000         0.00 ; PY02, 2h-pyran
  CG2DC1    CG321     HGA2     5   111.500000   376.560000   0.00000000         0.00 ; RETINOL BTE2, 2-butene
  CG2DC2    CG321    CG321     5   112.200000   267.776000   0.00000000         0.00 ; RETINOL MECH
  CG2DC2    CG321    CG331     5   112.200000   267.776000   0.00000000         0.00 ; from CG2D1 CG321 CG331, penalty= 0.5 TPQ TPQP
  CG2DC2    CG321    OG311     5   110.100000   633.457600   0.00000000         0.00 ; RETINOL PROL
  CG2DC2    CG321   OG3R60     5    99.000000   167.360000   0.00000000         0.00 ; PY02, 2h-pyran
  CG2DC2    CG321     HGA2     5   111.500000   376.560000   0.00000000         0.00 ; RETINOL BTE2, 2-butene
   CG2O1    CG321   CG2R61     5   107.500000   433.462400   0.00000000         0.00 ; acbz, from mebz, yxu, RNA
   CG2O1    CG321   CG2R62     5   107.500000   433.462400   0.00000000         0.00 ; BCU, from mebz, yxu, RNA
   CG2O1    CG321    CG311     5   108.000000   435.136000   0.00000000         0.00 ; PROT adm jr. 4/05/91, for asn,asp,gln,glu and cters
   CG2O1    CG321    CG314     5   108.000000   435.136000   0.00000000         0.00 ; PROT adm jr. 4/05/91, for asn,asp,gln,glu and cters
   CG2O1    CG321    CG321     5   108.000000   435.136000   0.00000000         0.00 ; PROT adm jr. 5/02/91, acetic acid pure solvent
   CG2O1    CG321    CG331     5   108.000000   435.136000   0.00000000         0.00 ; PROT adm jr. 4/05/91, for asn,asp,gln,glu and cters
   CG2O1    CG321   NG2R51     5   108.180000   343.339040   0.00000000         0.00 ; XYG, by ac_aa
   CG2O1    CG321   NG2R53     5   107.000000   418.400000   0.00000000         0.00 ; from CG2O1 CG321 NG2S1, penalty= 1 SUI
   CG2O1    CG321    NG2S0     5   107.000000   418.400000   0.00000000         0.00 ; from CG2O1 CG321 NG2S1, PENALTY= 1 I4G
   CG2O1    CG321    NG2S1     5   107.000000   418.400000   0.00000000         0.00 ; PROT Alanine Dipeptide ab initio calc's (LK)
   CG2O1    CG321    SG311     5   110.050000   414.216000   0.00000000         0.00 ; CYF YCM, by ac_aa
   CG2O1    CG321     HGA2     5   109.500000   276.144000   0.21630000     25104.00 ; PROT alanine dipeptide, 5/09/91
   CG2O2    CG321    CG2O3     5   112.790000   327.439840   0.00000000         0.00 ; MCS, by ac_aa
   CG2O2    CG321   CG2R61     5   107.500000   433.462400   0.00000000         0.00 ; mebz, yxu, RNA
   CG2O2    CG321   CG2R62     5   107.500000   433.462400   0.00000000         0.00 ; OCU, from mebz, yxu, RNA
   CG2O2    CG321    CG311     5   108.000000   435.136000   0.00000000         0.00 ; PROT adm jr. 5/02/91, acetic acid pure solvent
   CG2O2    CG321    CG314     5   108.000000   435.136000   0.00000000         0.00 ; PROT adm jr. 5/02/91, acetic acid pure solvent
   CG2O2    CG321    CG321     5   108.000000   435.136000   0.00000000         0.00 ; LIPID alkane
   CG2O2    CG321    CG331     5   108.000000   435.136000   0.00000000         0.00 ; LIPID alkane
   CG2O2    CG321    NG2S1     5   107.000000   418.400000   0.00000000         0.00 ; PROT adm jr. 5/02/91, acetic acid pure solvent
   CG2O2    CG321    NG311     5   110.000000   365.681600   0.00000000         0.00 ; 5UHG, from CG2O2 CG321 NG321, yxu, RNA
   CG2O2    CG321    NG321     5   110.000000   365.681600   0.00000000         0.00 ; PROT adm jr. 5/02/91, acetic acid pure solvent
   CG2O2    CG321    OG301     5   109.000000   585.760000   0.00000000         0.00 ; OEU, yxu, RNA
   CG2O2    CG321     HGA2     5   109.500000   276.144000   0.21630000     25104.00 ; PROT adm jr. 5/02/91, acetic acid pure solvent
   CG2O3    CG321   CG2R61     5   107.500000   433.462400   0.00000000         0.00 ; bzac, from mebz, yxu, RNA
   CG2O3    CG321   CG2R62     5   107.500000   433.462400   0.00000000         0.00 ; 5CU, from mebz, yxu, RNA
   CG2O3    CG321    CG311     5   108.000000   435.136000   0.00000000         0.00 ; PROT adm jr. 4/05/91, for asn,asp,gln,glu and cters
   CG2O3    CG321    CG314     5   108.000000   435.136000   0.00000000         0.00 ; PROT adm jr. 4/05/91, for asn,asp,gln,glu and cters
   CG2O3    CG321    CG321     5   108.000000   435.136000   0.00000000         0.00 ; PROT adm jr. 4/05/91, for asn,asp,gln,glu and cters
   CG2O3    CG321    CG331     5   108.000000   435.136000   0.00000000         0.00 ; PROT adm jr. 4/05/91, for asn,asp,gln,glu and cters
   CG2O3    CG321    NG2S1     5   107.000000   418.400000   0.00000000         0.00 ; PROT adm jr. 5/20/92, for asn,asp,gln,glu and cters
   CG2O3    CG321    OG301     5   109.000000   527.184000   0.00000000         0.00 ; OAU, yxu, RNA
   CG2O3    CG321    OG302     5   109.000000   376.560000   0.00000000         0.00 ; from CG2O3 CG311 OG301, penalty= 4.5 ASB
   CG2O3    CG321    SG311     5    99.560000   235.810240   0.23505000      8627.41 ; CCS, by ac_aa
   CG2O3    CG321     HGA1     5   109.500000   418.400000   0.00000000         0.00 ; PROT adm jr. 4/05/91, for asn,asp,gln,glu and cters
   CG2O3    CG321     HGA2     5   109.500000   276.144000   0.21630000     25104.00 ; PROT adm jr. 4/05/91, for asn,asp,gln,glu and cters
   CG2O4    CG321    CG331     5   113.800000   502.080000   0.00000000         0.00 ; ALDEHYDE propionaldehyde unmodified
   CG2O4    CG321   NG2R51     5   111.050000   418.400000   0.00000000         0.00 ; C12, by ac_aa
   CG2O4    CG321    CLGA1     5   111.820000   543.920000   0.00000000         0.00 ; ALDEHYDE chloroacetaldehyde unmodified
   CG2O4    CG321     HGA2     5   109.500000   276.144000   0.21630000     25104.00 ; PALD, propionaldehyde from PROT adm jr. 5/02/91, Consistent with adm 11/08
   CG2O5    CG321    CG321     5   113.800000   502.080000   0.00000000         0.00 ; CHON, cyclohexanone; from PALD, propionaldehyde; yapol
   CG2O5    CG321    CG331     5   111.500000   502.080000   0.00000000         0.00 ; PHEK, phenyl ethyl ketone; from BTON, butanone; mcs
   CG2O5    CG321    SG311     5   107.230000   428.023200   0.00000000         0.00 ; CSA CYD, by ac_aa
   CG2O5    CG321     HGA2     5   109.500000   418.400000   0.00000000         0.00 ; BTON, butanone; from ACO, acetone; yapol
  CG2R51    CG321   CG2R51     5   114.000000   488.272800   0.00000000         0.00 ; from CG2R51 CG321 CG331, B2H
  CG2R51    CG321   CG2R61     5   107.500000   433.462400   0.00000000         0.00 ; from CG2R61 CG321 CG2R61, PENALTY= 8.5 C12
  CG2R51    CG321    CG311     5   114.000000   488.272800   0.00000000         0.00 ; INDO/TRP
  CG2R51    CG321    CG314     5   114.000000   488.272800   0.00000000         0.00 ; PROT N-terminal AA - standard parameter collided with INDO/TRP
  CG2R51    CG321    CG321     5   114.000000   488.272800   0.00000000         0.00 ; WBG, from CG2R51 CG321 CG311, yxu
  CG2R51    CG321    CG331     5   114.000000   488.272800   0.00000000         0.00 ; INDO/TRP
  CG2R51    CG321    NG301     5   107.000000   476.976000   0.00000000         0.00 ; D3R set1 scaffold 2, xxwy
  CG2R51    CG321    NG311     5   111.500000   585.760000   0.00000000         0.00 ; 7GNM, yxu, RNA
  CG2R51    CG321    NG321     5   110.000000   585.760000   0.00000000         0.00 ; 7GNA (idam), yxu, RNA
  CG2R51    CG321    SG301     5   108.560000   399.906720   0.27143000       635.97 ; R1A, by ac_aa1
  CG2R51    CG321     HGA2     5   109.500000   460.240000   0.00000000         0.00 ; INDO/TRP
  CG2R52    CG321    CG321     5   111.000000   485.344000   0.00000000         0.00 ; INCA model for D3R, xxwy
  CG2R52    CG321     HGA2     5   109.500000   418.400000   0.00000000         0.00 ; INCA model for D3R, xxwy
  CG2R53    CG321    CG321     5   111.000000   493.712000   0.00000000         0.00 ; from CG2R53 CG321 CG331, PENALTY= 0.9 DDE DDEP
  CG2R53    CG321    CG331     5   111.000000   493.712000   0.00000000         0.00 ; etea, 5-Ethyl-1H-tetrazole, pchat
  CG2R53    CG321    NG2S1     5   115.200000   443.504000   0.00000000         0.00 ; from CG2R61 CG321 NG2S1, PENALTY= 8.5 CR2
  CG2R53    CG321     HGA2     5   109.500000   460.240000   0.00000000         0.00 ; etea, 5-Ethyl-1H-tetrazole, pchat
  CG2R61    CG321   CG2R61     5   107.500000   433.462400   0.00000000         0.00 ; PYRIDINE pyr_CH2C6H5, yin
  CG2R61    CG321    CG311     5   107.500000   433.462400   0.00000000         0.00 ; PROT PARALLH19 (JES)
  CG2R61    CG321    CG314     5   107.500000   433.462400   0.00000000         0.00 ; PROT PARALLH19 (JES)
  CG2R61    CG321    CG321     5   107.500000   433.462400   0.00000000         0.00 ; PYRIDINE butylpyridine, yin
  CG2R61    CG321    CG331     5   107.500000   433.462400   0.00000000         0.00 ; PROT ethylbenzene, adm jr., 3/7/92
  CG2R61    CG321    NG2S1     5   115.200000   443.504000   0.00000000         0.00 ; NZAD, N-benzylacetamide; from CG2O2 CG321 NG2S1; isg
  CG2R61    CG321    NG311     5   109.000000   610.864000   0.00000000         0.00 ; ambz, yxu, RNA
  CG2R61    CG321    OG302     5   110.100000   633.457600   0.00000000         0.00 ; ABGA, Alpha Benzyl Glu Acid CDCA Amide, corrected by kevo
  CG2R61    CG321    OG303     5   110.100000   633.457600   0.00000000         0.00 ; from CG2R61 CG321 OG302, PENALTY= 2.5 IT1 IT1P LLP
  CG2R61    CG321    OG311     5   110.100000   633.457600   0.00000000         0.00 ; toppar_all22_prot_pyridines.str has 115.1 but that appears to be a copy-paste error! - kevo
  CG2R61    CG321      PG1     5   111.000000   753.120000   0.23000000     16736.00 ; BDFP, Benzylphosphonate \ re-optimize?
  CG2R61    CG321      PG2     5   111.000000   753.120000   0.23000000     16736.00 ; BDFD, Benzylphosphonate / re-optimize?
  CG2R61    CG321    SG311     5   108.240000   454.131360   0.00000000         0.00 ; BCS, by ac_aa
  CG2R61    CG321    SG3O2     5   104.740000   582.161760   0.27012000      1389.09 ; SEB, by ac_aa
  CG2R61    CG321     HGA2     5   107.500000   412.542400   0.00000000         0.00 ; PYRIDINE pyridines, yin
  CG2R62    CG321    NG311     5   107.000000   652.704000   0.00000000         0.00 ; 5UHG, yxu, RNA
  CG2R62    CG321    NG321     5   107.000000   652.704000   0.00000000         0.00 ; 5UNA , from 5UHG, yxu, RNA
  CG2R62    CG321    OG311     5   109.700000   633.457600   0.00000000         0.00 ; HMC, yxu, RNA
  CG2R62    CG321     HGA2     5   107.500000   412.542400   0.00000000         0.00 ; 5CU, yxu, RNA
   CG301    CG321    CG311     5   113.500000   488.272800   0.25610000      9338.69 ; from CG301 CG321 CG321, PENALTY= 0.6 ADAM
   CG301    CG321    CG321     5   113.500000   488.272800   0.25610000      9338.69 ; RETINOL TMCH/MECH
   CG301    CG321    CG331     5   113.500000   546.848800   0.00000000         0.00 ; DMBU, dimethoxybutane, sna
   CG301    CG321    OG303     5   110.100000   633.457600   0.00000000         0.00 ; from CG311 CG321 OG303, PENALTY= 1.2 4HH LYX
   CG301    CG321    SG3O3     5   105.000000   376.560000   0.00000000         0.00 ; from CG331 CG321 SG3O3, PENALTY= 2.7 M2S
   CG301    CG321     HGA2     5   110.100000   221.752000   0.21790000     18853.10 ; RETINOL TMCH/MECH
   CG302    CG321    OG311     5   110.100000   633.457600   0.00000000         0.00 ; TFE, triflouroethanol
   CG302    CG321     HGA2     5   110.100000   289.532800   0.21790000     18853.10 ; TFE, trifluoroethanol
   CG311    CG321    CG311     5   113.500000   488.272800   0.25610000      9338.69 ; PROT alkanes
   CG311    CG321    CG314     5   113.500000   488.272800   0.25610000      9338.69 ; PROT alkanes
   CG311    CG321    CG321     5   113.500000   488.272800   0.25610000      9338.69 ; PROT alkanes
   CG311    CG321    CG324     5   110.500000   488.272800   0.25610000      9338.69 ; FLAVOP PIP1,2,3
   CG311    CG321    CG331     5   113.500000   488.272800   0.25610000      9338.69 ; PROT alkanes
   CG311    CG321   NG2R61     5   112.230000   563.584800   0.00000000         0.00 ; flavin
   CG311    CG321    NG2S0     5   111.500000   711.280000   0.00000000         0.00 ; MDU, yxu, RNA
   CG311    CG321    NG2S1     5   113.500000   585.760000   0.00000000         0.00 ; G3P(R/S), 01OH04, cacha from CG311 CG311 NG2S1 ==> non-ideal analogy ==> re-optimize???
   CG311    CG321    NG301     5   115.770000   507.351840   0.00000000         0.00 ; flavin
   CG311    CG321   NG3C51     5   110.000000   365.681600   0.00000000         0.00 ; from CG321 CG321 NG311, PENALTY= 3.6 PR4
   CG311    CG321    OG302     5   110.100000   633.457600   0.00000000         0.00 ; LIPID acetic acid
   CG311    CG321    OG303     5   110.100000   633.457600   0.00000000         0.00 ; LIPID acetic acid
   CG311    CG321    OG311     5   110.100000   633.457600   0.00000000         0.00 ; PROT MeOH, EMB, 10/10/89
   CG311    CG321    SG311     5   112.500000   485.344000   0.00000000         0.00 ; PROT as in expt.MeEtS & DALC crystal,  5/15/92
   CG311    CG321    CLGA1     5   112.200000   594.128000   0.00000000         0.00 ; from CG331 CG321 CLGA1, PENALTY= 1.5 CTH
   CG311    CG321     HGA2     5   110.100000   279.742240   0.21790000     18853.10 ; PROT alkanes
   CG312    CG321    CG331     5   111.630000   443.671360   0.25105000      6694.40 ; OBF, by ac_aa
   CG312    CG321     HGA2     5   110.100000   289.532800   0.21790000     18853.10 ; from CG302 CG321 HGA2, PENALTY= 2 OBF
   CG314    CG321    CG321     5   113.500000   488.272800   0.25610000      9338.69 ; PROT alkanes
   CG314    CG321    CG331     5   110.500000   488.272800   0.25610000      9338.69 ; sidechai , from CG324 CG321 CG331, penalty= 0.6 AGM
   CG314    CG321    NG2S1     5   113.500000   585.760000   0.00000000         0.00 ; 2MRB, Alpha benzyl gamma 2-methyl piperidine, cacha from CG311 CG311 NG2S1 ==> non-ideal analogy ==> re-optimize???
   CG314    CG321    OG311     5   110.100000   633.457600   0.00000000         0.00 ; PROT MeOH, EMB, 10/10/89
   CG314    CG321    SG311     5   112.500000   485.344000   0.00000000         0.00 ; PROT as in expt.MeEtS & DALC crystal,  5/15/92
   CG314    CG321    CLGA1     5   109.240000   515.887200   0.00000000         0.00 ; C2N, by ac_aa
   CG314    CG321     HGA2     5   110.100000   279.742240   0.21790000     18853.10 ; PROT alkanes
   CG321    CG321    CG321     5   113.600000   488.272800   0.25610000      9338.69 ; PROT alkane update, adm jr., 3/2/92
   CG321    CG321    CG324     5   110.500000   488.272800   0.25610000      9338.69 ; FLAVOP PIP1,2,3
   CG321    CG321    CG331     5   115.000000   485.344000   0.25610000      6694.40 ; PROT alkane update, adm jr., 3/2/92
   CG321    CG321   CG3C50     5   112.000000   443.504000   0.25610000      6694.40 ; MSCH model for D3R, xxwy
   CG321    CG321   CG3RC1     5   111.000000   446.432800   0.25610000      6694.40 ; CARBOCY carbocyclic sugars
   CG321    CG321    NG1T1     5   113.130000   425.345440   0.00000000         0.00 ; AZH, by ac_aa
   CG321    CG321    NG2D1     5   112.000000   861.904000   0.00000000         0.00 ; EEPI, from CG321 CG321 NG2S1, fylin
   CG321    CG321   NG2R61     5   112.000000   560.656000   0.00000000         0.00 ; 3AU, yxu, RNA
   CG321    CG321    NG2S0     5   111.000000   585.760000   0.00000000         0.00 ; H2U, yxu, 21/2/14, RNA
   CG321    CG321    NG2S1     5   113.500000   585.760000   0.00000000         0.00 ; slack parameter picked up by 3CPD ==> re-optimize?
   CG321    CG321    NG2S3     5   109.700000   228.446400   0.00000000         0.00 ; from CG331 CG321 NG2S3, PENALTY= 0.9 APK GPL
   CG321    CG321    NG301     5   107.000000   476.976000   0.00000000         0.00 ; TSPD model for D3R, xxwy
   CG321    CG321    NG311     5   110.000000   365.681600   0.00000000         0.00 ; K2Cn, cgenff_compromise, kevo
   CG321    CG321    NG321     5   120.000000   502.080000   0.00000000         0.00 ; asbb, PC, 2020
   CG321    CG321    OG301     5   111.500000   376.560000   0.00000000         0.00 ; diethylether, alex
   CG321    CG321    OG302     5   110.100000   633.457600   0.00000000         0.00 ; LIPID acetic acid
   CG321    CG321    OG303     5   110.100000   633.457600   0.00000000         0.00 ; LIPID acetic acid
   CG321    CG321    OG311     5   110.100000   633.457600   0.00000000         0.00 ; PROT MeOH, EMB, 10/10/89
   CG321    CG321   OG3C61     5   111.500000   376.560000   0.00000000         0.00 ; DIOX, dioxane
   CG321    CG321    SG301     5   112.500000   485.344000   0.00000000         0.00 ; from CG331 CG321 SG301, penalty= 0.9 CME PR3
   CG321    CG321    SG311     5   114.500000   485.344000   0.00000000         0.00 ; PROT expt. MeEtS,     3/26/92 (FL)
   CG321    CG321    SG3O1     5   105.500000   359.824000   0.00000000         0.00 ; PSNA, propyl sulfonate, xhe
   CG321    CG321    SG3O2     5   105.000000   376.560000   0.00000000         0.00 ; from CG331 CG321 SG3O2, PENALTY= 0.9 OMT
   CG321    CG321    SG3O3     5   105.000000   376.560000   0.00000000         0.00 ; from CG331 CG321 SG3O3, PENALTY= 0.9 MHO SME
   CG321    CG321    BRGA1     5   111.000000   594.128000   0.00000000         0.00 ; from CG331 CG321 BRGA1, PENALTY= 0.9 BIU
   CG321    CG321     HGA2     5   110.100000   221.752000   0.21790000     18853.10 ; PROT alkane update, adm jr., 3/2/92
   CG322    CG321    CG331     5   113.810000   476.055520   0.25000000      6694.40 ; FGA4, by ac_aa
   CG322    CG321     HGA2     5   110.100000   289.532800   0.21790000     18853.10 ; from CG302 CG321 HGA2, PENALTY= 3.2 FGA4
   CG324    CG321    CG331     5   110.500000   488.272800   0.25610000      9338.69 ; NIPR, nitropropane, abar
   CG324    CG321    OG302     5   110.100000   633.457600   0.00000000         0.00 ; LIPID acetic acid
   CG324    CG321    OG303     5   110.100000   633.457600   0.00000000         0.00 ; LIPID acetic acid
   CG324    CG321    OG311     5   112.100000   633.457600   0.00000000         0.00 ; FLAVOP PIP1,2,3
   CG324    CG321   OG3C61     5   106.500000   418.400000   0.00000000         0.00 ; MORP, morpholine
   CG324    CG321    SG311     5   110.000000   585.760000   0.00000000         0.00 ; TMOR, thiomorpholine
   CG324    CG321    SG3O1     5   104.500000   292.880000   0.00000000         0.00 ; 5TU, yxu, RNA
   CG324    CG321     HGA2     5   110.100000   221.752000   0.21790000     18853.10 ; FLAVOP PIP1,2,3
   CG331    CG321    CG331     5   114.000000   446.432800   0.25610000      6694.40 ; PROT alkane update, adm jr., 3/2/92
   CG331    CG321   CG3C31     5   111.000000   446.432800   0.00000000         0.00 ; 1BOX, 1-butene oxide, sc
   CG331    CG321    NG1T1     5   114.300000   528.271840   0.00000000         0.00 ; AZDA, by ac_aa
   CG331    CG321    NG2D1     5   114.000000   518.816000   0.00000000         0.00 ; EICY, ethyl isocyanate, xxwy
   CG331    CG321   NG2R51     5   120.000000   585.760000   0.00000000         0.00 ; ETRZ, 1-Ethyl-1,2,3-triazole, from CG331 CG321 NG2S1, kevo
   CG331    CG321   NG2R53     5   120.000000   585.760000   0.00000000         0.00 ; from CG331 CG321 NG2S1, penalty= 1 6V1
   CG331    CG321   NG2R61     5   112.230000   563.584800   0.00000000         0.00 ; flavin
   CG331    CG321    NG2S0     5   120.000000   585.760000   0.00000000         0.00 ; from CG331 CG321 NG2S1, penalty= 1 BXT FHO I4G
   CG331    CG321    NG2S1     5   120.000000   585.760000   0.00000000         0.00 ; DECB, diethyl carbamate, cacha & xxwy ! 120, really??? DBLCHECK WITH WENBO!!!
   CG331    CG321    NG2S3     5   109.700000   228.446400   0.00000000         0.00 ; NESM, N-ethyl-sulfamate, my & kevo
   CG331    CG321    NG301     5   115.770000   507.351840   0.00000000         0.00 ; flavin
   CG331    CG321    NG311     5   112.200000   365.681600   0.00000000         0.00 ; PEI polymers, kevo
   CG331    CG321    OG301     5   111.500000   376.560000   0.00000000         0.00 ; diethylether, alex
   CG331    CG321    OG302     5   110.100000   633.457600   0.00000000         0.00 ; LIPID acetic acid
   CG331    CG321    OG303     5   108.400000   585.760000   0.00000000         0.00 ; PROTNA Thr-Phos
   CG331    CG321    OG311     5   110.100000   633.457600   0.00000000         0.00 ; PROT MeOH, EMB, 10/10/89
   CG331    CG321    OG312     5   122.000000   543.920000   0.00000000         0.00 ; PROT ethoxide 6-31+G* geom/freq, adm jr., 6/1/92
   CG331    CG321    SG2P1     5   110.310000   488.691200   0.00000000         0.00 ; CSPP, by ac_aa
   CG331    CG321    SG301     5   112.500000   485.344000   0.00000000         0.00 ; PROT as in expt.MeEtS & DALC crystal,  5/15/92
   CG331    CG321    SG311     5   114.500000   485.344000   0.00000000         0.00 ; PROT expt. MeEtS,     3/26/92 (FL)
   CG331    CG321    SG3O1     5   105.500000   418.400000   0.00000000         0.00 ; ESNA, ethyl sulfonate, xhe
   CG331    CG321    SG3O2     5   105.000000   376.560000   0.00000000         0.00 ; EESM, N-ethylethanesulfonamide; MESN, methyl ethyl sulfone; xxwy & xhe
   CG331    CG321    SG3O3     5   105.000000   376.560000   0.00000000         0.00 ; MESO, methylethylsulfoxide, mnoon
   CG331    CG321    CLGA1     5   112.200000   594.128000   0.00000000         0.00 ; CLET
   CG331    CG321    BRGA1     5   111.000000   594.128000   0.00000000         0.00 ; BRET
   CG331    CG321    BG201     5   112.000000   669.440000   0.00000000         0.00 ; BORE,BONE,BNNE Boronic acid, sr
   CG331    CG321     HGA2     5   110.100000   289.532800   0.21790000     18853.10 ; PROT alkane update, adm jr., 3/2/92
  CG3C31    CG321     HGA2     5   109.000000   351.456000   0.00000000         0.00 ; 1BOX, 1-butene oxide, sc
  CG3C50    CG321     HGA2     5   109.000000   267.776000   0.21790000     18853.10 ; MSCH model for D3R, xxwy
  CG3C51    CG321    OG301     5   110.100000   633.457600   0.00000000         0.00 ; 3POMP, 3-phenoxymethylpyrrolidine; standard parameter; kevo
  CG3C51    CG321    OG303     5   110.100000   633.457600   0.00000000         0.00 ; LIPID acetic acid
  CG3C51    CG321    OG311     5   110.100000   633.457600   0.00000000         0.00 ; PROT MeOH, EMB, 10/10/89
  CG3C51    CG321    SG311     5   112.500000   485.344000   0.00000000         0.00 ; PROT as in expt.MeEtS & DALC crystal,  5/15/92
  CG3C51    CG321     HGA2     5   110.100000   289.532800   0.21790000     18853.10 ; TF2M viv
  CG3RC1    CG321    OG303     5   110.100000   633.457600   0.00000000         0.00 ; CARBOCY carbocyclic sugars
  CG3RC1    CG321     HGA2     5   110.100000   288.696000   0.21790000     18853.10 ; CARBOCY carbocyclic sugars
   NG1T1    CG321     HGA2     5   109.310000   445.596000   0.00000000         0.00 ; AZDA, by ac_aa
   NG2D1    CG321     HGA2     5   107.500000   376.560000   0.00000000         0.00 ; EEPI, from NG2D1 CG331 HGA3, fylin
  NG2R51    CG321     HGA2     5   110.100000   279.742240   0.00000000         0.00 ; ETRZ, 1-Ethyl-1,2,3-triazole, from NG2R51 CG331 HGA3, kevo
  NG2R53    CG321     HGA2     5   109.500000   430.952000   0.00000000         0.00 ; from NG2S1 CG321 HGA2, penalty= 1 SUI 6V1
  NG2R61    CG321     HGA2     5    98.710000   428.943680   0.00000000         0.00 ; flavin
   NG2S0    CG321     HGA2     5   109.500000   451.872000   0.00000000         0.00 ; H2U, yxu, RNA
   NG2S1    CG321     HGA2     5   109.500000   430.952000   0.00000000         0.00 ; PROT from NG2S1  CG331  HA, for lactams, adm jr.
   NG2S3    CG321     HGA2     5   105.200000   320.494400   0.00000000         0.00 ; NESM, N-ethyl-sulfamate, my & kevo
   NG301    CG321     HGA2     5   109.000000   271.123200   0.00000000         0.00 ; TSPD model for D3R, xxwy
   NG311    CG321    NG311     5   113.000000   753.120000   0.00000000         0.00 ; OBTZ, 1,1-dioxo-3,4-dihydro-2H-1,2,4-benzothiadiazine, xxwy
   NG311    CG321     HGA2     5   109.500000   271.123200   0.21300000     41840.00 ; PEI polymers, kevo
   NG321    CG321     HGA2     5   109.500000   271.123200   0.21400000     41840.00 ; AMINE aliphatic amines
  NG3C51    CG321     HGA2     5   109.500000   271.123200   0.21300000     41840.00 ; from NG311 CG321 HGA2, PENALTY= 3 PR4
   OG301    CG321     HGA2     5   108.890000   384.091200   0.00000000         0.00 ; ETOB, Ethoxybenzene, cacha
   OG302    CG321     HGA2     5   109.500000   502.080000   0.00000000         0.00 ; PROT adm jr. 4/05/91, methyl acetate
   OG303    CG321     HGA2     5   109.500000   502.080000   0.00000000         0.00 ; PROTNA Thr-Phos
   OG311    CG321    SG311     5   112.270000   470.616320   0.00000000         0.00 ; ME0 M0H, by ac_aa
   OG311    CG321     HGA2     5   108.890000   384.091200   0.00000000         0.00 ; PROT MeOH, EMB, 10/10/89
   OG312    CG321     HGA2     5   118.300000   543.920000   0.00000000         0.00 ; PROT ethoxide 6-31+G* geom/freq, adm jr., 6/1/92
  OG3C61    CG321   OG3C61     5   110.500000   376.560000   0.00000000         0.00 ; DIXB, dioxane
  OG3C61    CG321     HGA2     5   109.500000   376.560000   0.00000000         0.00 ; DIOX, dioxane
  OG3R60    CG321     HGA2     5   111.500000   460.240000   0.00000000         0.00 ; PY02, 2h-pyran
     PG1    CG321    SG311     5   109.280000   334.468960   0.00000000         0.00 ; CYQP, by ac_aa
     PG1    CG321     HGA2     5   110.000000   753.120000   0.18020000      4518.72 ; BDFP, Benzylphosphonate \ re-optimize?
     PG2    CG321    SG311     5   104.580000   375.472160   0.00000000         0.00 ; CYQ, by ac_aa
     PG2    CG321     HGA2     5   110.000000   753.120000   0.18020000      4518.72 ; BDFD, Benzylphosphonate / re-optimize?
   SG2P1    CG321     HGA2     5   106.570000   280.160640   0.00000000         0.00 ; CSPP, by ac_aa
   SG301    CG321     HGA2     5   111.000000   317.984000   0.00000000         0.00 ; PROT new S-S atom type 8/24/90
   SG311    CG321    SG311     5   117.000000   836.800000   0.00000000         0.00 ; THIT, trithiazine
   SG311    CG321     HGA2     5   111.300000   385.764800   0.00000000         0.00 ; PROT vib. freq. and HF/geo. (DTN) 8/24/90
   SG3O1    CG321     HGA2     5   109.000000   410.032000   0.00000000         0.00 ; ESNA, ethyl sulfonate, xhe
   SG3O2    CG321     HGA2     5   107.000000   376.560000   0.00000000         0.00 ; EESM, N-ethylethanesulfonamide; MESN, methyl ethyl sulfone; xxwy & xhe
   SG3O3    CG321     HGA2     5   107.000000   376.560000   0.00000000         0.00 ; MESO, methylethylsulfoxide, mnoon
   CLGA1    CG321     HGA2     5   107.000000   351.456000   0.00000000         0.00 ; CLET, chloroethane
   BRGA1    CG321     HGA2     5   106.000000   301.248000   0.00000000         0.00 ; BRET
   BG201    CG321     HGA2     5   109.000000   418.400000   0.00000000         0.00 ; BORE,BONE,BNNE Boronic acid, sr
    HGA2    CG321     HGA2     5   109.000000   297.064000   0.18020000      4518.72 ; PROT alkane update, adm jr., 3/2/92
   CG2O3    CG322    CG321     5   111.320000   370.869760   0.00000000         0.00 ; FGA4, by ac_aa
   CG2O3    CG322     FGA1     5   106.590000   395.304320   0.24999000     25129.10 ; FGA4, by ac_aa
   CG2O3    CG322     HGA6     5   112.970000   232.546720   0.22340000     25145.84 ; FGA4, by ac_aa
   CG311    CG322     FGA1     5   112.000000   368.192000   0.23690000     25104.00 ; from CG331 CG322 FGA1, PENALTY= 1.5 LEF
   CG311    CG322     HGA6     5   112.000000   259.408000   0.21680000      2510.40 ; from CG331 CG322 HGA6, PENALTY= 1.5 LEF
   CG321    CG322     FGA1     5   112.000000   368.192000   0.23690000     25104.00 ; from CG331 CG322 FGA1, PENALTY= 0.9 FGA4
   CG321    CG322     HGA6     5   112.000000   259.408000   0.21680000      2510.40 ; from CG331 CG322 HGA6, PENALTY= 0.9 FGA4
   CG331    CG322    CG331     5   122.040000   383.003360   0.25228000     25104.00 ; FVAL, by ac_aa
   CG331    CG322     FGA1     5   112.000000   368.192000   0.23690000     25104.00 ; FLUROALK fluoroalkanes
   CG331    CG322     HGA6     5   112.000000   259.408000   0.21680000      2510.40 ; FLUROALK fluoroalkanes
    FGA1    CG322     HGA6     5   108.890000   481.160000   0.19970000      4184.00 ; FLUROALK fluoroalkanes
    HGA6    CG322     HGA6     5   108.400000   297.064000   0.17460000      8702.72 ; FLUROALK fluoroalkanes
   CG331    CG323    SG302     5   118.000000   460.240000   0.00000000         0.00 ; PROT ethylthiolate, adm jr., 6/1/92
   CG331    CG323     HGA2     5   110.100000   289.532800   0.21790000     18853.10 ; PROT ethylthiolate, adm jr., 6/1/92
   SG302    CG323     HGA2     5   112.300000   334.720000   0.00000000         0.00 ; PROT methylthiolate, adm jr., 6/1/92
   SG302    CG323     HGA3     5   112.300000   334.720000   0.00000000         0.00 ; PROT methylthiolate, adm jr., 6/1/92
    HGA2    CG323     HGA2     5   108.400000   297.064000   0.17750000     11715.20 ; PROT methylthiolate, adm jr., 6/1/92
    HGA3    CG323     HGA3     5   108.400000   297.064000   0.17750000     11715.20 ; PROT methylthiolate, adm jr., 6/1/92
   CG2D1    CG324    NG3P2     5   110.500000   418.400000   0.24850000     25940.80 ; IAU, yxu, RNA
   CG2D1    CG324     HGA2     5   110.000000   376.560000   0.00000000         0.00 ; IAU, yxu, RNA
   CG2O1    CG324    NG3P3     5   110.000000   365.681600   0.00000000         0.00 ; PROT alanine (JCS)
   CG2O1    CG324     HGA2     5   109.500000   276.144000   0.21630000     25104.00 ; PROT alanine dipeptide, 5/09/91
   CG2O3    CG324    NG3P2     5   104.000000   585.760000   0.00000000         0.00 ; 5DU, yxu (too strong?), RNA
   CG2O3    CG324    NG3P3     5   110.000000   365.681600   0.00000000         0.00 ; PROT adm jr. 4/05/91, for asn,asp,gln,glu and cters
   CG2O3    CG324     HGA2     5   109.500000   276.144000   0.21630000     25104.00 ; PROT adm jr. 4/05/91, for asn,asp,gln,glu and cters
  CG2R51    CG324    NG3P2     5   109.000000   435.136000   0.24510000     31798.40 ; QUG, from DAG, yxu, RNA
  CG2R51    CG324    NG3P3     5   102.300000   209.200000   0.00000000         0.00 ; prf, ashalini
  CG2R51    CG324     HGA2     5   109.500000   460.240000   0.00000000         0.00 ; DAG, from CG2R51 CG321 HGA2, yxu, RNA
  CG2R61    CG324    NG3P1     5   102.300000   376.560000   0.21010000     29288.00 ; BPIP, N-Benzyl PIP, cacha
  CG2R61    CG324    NG3P2     5   108.500000   451.872000   0.24300000     30961.60 ; bzma, yxu, RNA
  CG2R61    CG324    NG3P3     5   107.000000   376.560000   0.00000000         0.00 ; bzam, cgenff_compromise, pram, RNA
  CG2R61    CG324     HGA2     5   107.500000   412.542400   0.00000000         0.00 ; BPIP, N-Benzyl PIP, cacha
  CG2R62    CG324    NG3P2     5   107.000000   451.872000   0.22100000     30961.60 ; 5AU, yxu, 21/2/14, RNA
  CG2R62    CG324    NG3P3     5   108.500000   451.872000   0.24300000     30961.60 ; SAU, yxu, RNA
  CG2R62    CG324     HGA2     5   107.500000   412.542400   0.00000000         0.00 ; SAU, from CG2R61 CG324 HGA2, yxu, RNA
   CG311    CG324    NG2P1     5   110.000000   566.513600   0.00000000         0.00 ; from CG321 CG324 NG2P1, PENALTY= 0.6 ARO
   CG311    CG324    NG3P1     5   110.000000   836.800000   0.00000000         0.00 ; FLAVOP PIP1,2,3
   CG311    CG324    NG3P2     5   110.000000   334.720000   0.00000000         0.00 ; G3P(R/S), 01OH04
   CG311    CG324    NG3P3     5   110.000000   566.513600   0.00000000         0.00 ; from CG321 CG324 NG3P3, PENALTY= 0.6 LYZ
   CG311    CG324     HGA2     5   111.800000   221.752000   0.21790000     18853.10 ; FLAVOP PIP1,2,3
   CG321    CG324    NG2O1     5   109.000000   475.302400   0.00000000         0.00 ; NIPR, nitropropane, abar
   CG321    CG324    NG2P1     5   110.000000   566.513600   0.00000000         0.00 ; RETINOL SCK1, protonated Schiff's base #eq#
   CG321    CG324    NG3P0     5   115.000000   566.513600   0.00000000         0.00 ; LIPID tetramethylammonium
   CG321    CG324    NG3P1     5   110.000000   836.800000   0.00000000         0.00 ; FLAVOP PIP1,2,3
   CG321    CG324    NG3P2     5   110.000000   334.720000   0.00000000         0.00 ; PIP, piperidine
   CG321    CG324    NG3P3     5   110.000000   566.513600   0.00000000         0.00 ; LIPID ethanolamine
   CG321    CG324     HGA2     5   111.800000   221.752000   0.21790000     18853.10 ; FLAVOP PIP1,2,3
   CG321    CG324     HGP5     5   110.100000   279.742240   0.21790000     18853.10 ; LIPID alkane
   CG331    CG324    NG2P1     5   110.000000   566.513600   0.00000000         0.00 ; from CG321 CG324 NG2P1, PENALTY= 0.9 KPI
   CG331    CG324    NG3P0     5   115.000000   566.513600   0.00000000         0.00 ; LIPID tetramethylammonium
   CG331    CG324    NG3P2     5   110.000000   566.513600   0.00000000         0.00 ; from CG331 CG324 NG3P3, penalty= 0.9 5CT IAM
   CG331    CG324    NG3P3     5   110.000000   566.513600   0.00000000         0.00 ; PROT new aliphatics, adm jr., 2/3/92
   CG331    CG324     HGA2     5   110.100000   289.532800   0.21790000     18853.10 ; PROT alkane update, adm jr., 3/2/92
   CG331    CG324     HGP5     5   110.100000   279.742240   0.21790000     18853.10 ; LIPID alkane
  CG3C31    CG324    NG3P3     5   110.000000   566.513600   0.00000000         0.00 ; AMCP, aminomethyl cyclopropane; from PROT new aliphatics, adm jr., 2/3/92m; jhs
  CG3C31    CG324     HGA2     5   110.100000   289.532800   0.00000000         0.00 ; AMCP, aminomethyl cyclopropane; from PROT alkane update, adm jr., 3/2/92; jhs, UB term deleted
   NG2O1    CG324     HGA2     5   106.300000   502.080000   0.00000000         0.00 ; NIPR, nitropropane, abar
   NG2P1    CG324     HGA2     5   110.100000   351.456000   0.00000000         0.00 ; RETINOL SCK1, deprotonated Schiff's base #eq#
   NG3P0    CG324     HGP5     5   109.500000   334.720000   0.21300000     22593.60 ; LIPID tetramethylammonium
   NG3P1    CG324     HGA2     5   102.300000   376.560000   0.21010000     29288.00 ; FLAVOP PIP1,2,3
   NG3P2    CG324     HGA2     5   102.300000   376.560000   0.21010000     29288.00 ; PIP, piperidine
   NG3P3    CG324     HGA2     5   107.500000   376.560000   0.21010000     29288.00 ; NA methylammonium
    HGA2    CG324     HGA2     5   109.000000   297.064000   0.18020000      4518.72 ; PIP1,2,3
    HGP5    CG324     HGP5     5   109.500000   200.832000   0.17670000     23430.40 ; LIPID tetramethylammonium
   CG1N1    CG331     HGA3     5   110.500000   418.400000   0.00000000         0.00 ; ACN, acetonitrile, kevo
   CG1T1    CG331     HGA3     5   111.500000   393.296000   0.00000000         0.00 ; 2BTY, 2-butyne, kevo
   CG2D1    CG331     HGA3     5   111.500000   351.456000   0.00000000         0.00 ; LIPID 2-butene, yin,adm jr., 12/95
  CG2D1O    CG331     HGA3     5   111.500000   351.456000   0.00000000         0.00 ; from CG2D1 CG331 HGA3, PENALTY= 3 FZN
  CG2D2O    CG331     HGA3     5   111.500000   351.456000   0.00000000         0.00 ; from CG2D1 CG331 HGA3, PENALTY= 3 FZN
  CG2DC1    CG331     HGA3     5   111.500000   351.456000   0.00000000         0.00 ; RETINOL BTE2, 2-butene
  CG2DC2    CG331     HGA3     5   111.500000   351.456000   0.00000000         0.00 ; RETINOL BTE2, 2-butene
   CG2N2    CG331     HGA3     5   109.500000   276.144000   0.21300000     25104.00 ; AMDN, amidinium, mp2 geom, pram
   CG2O1    CG331     HGA3     5   109.500000   276.144000   0.21630000     25104.00 ; PROT alanine dipeptide, 5/09/91
   CG2O2    CG331     HGA3     5   109.500000   276.144000   0.21630000     25104.00 ; PROT adm jr. 5/02/91, acetic acid pure solvent
   CG2O3    CG331     HGA3     5   109.500000   276.144000   0.21630000     25104.00 ; PROT adm jr. 4/05/91, for asn,asp,gln,glu and cters
   CG2O4    CG331     HGA3     5   109.500000   276.144000   0.21630000     25104.00 ; AALD, acetaldehyde from PROT adm jr. 5/02/91, acetic acid pure solvent consistent with adm 11/08
   CG2O5    CG331     HGA3     5   109.500000   418.400000   0.00000000         0.00 ; methylketones 3ACP, ACO; from PROT Alanine Dipeptide ab initio calc's (LK) consistent with adm 11/08
  CG2R51    CG331     HGA3     5   109.500000   460.240000   0.00000000         0.00 ; INDO/TRP
  CG2R53    CG331     HGA3     5   109.500000   460.240000   0.00000000         0.00 ; MTEA , 5-Methyl-1H-tetrazole, pchat
  CG2R61    CG331     HGA3     5   107.500000   412.542400   0.00000000         0.00 ; PROT toluene, adm jr. 3/7/92
  CG2R62    CG331     HGA3     5   110.100000   279.742240   0.21790000     18853.10 ; NA Alkanes, sacred
  CG2R64    CG331     HGA3     5   110.100000   279.742240   0.21790000     18853.10 ; 2MA, from CG2R62 CG331 HGA3, yxu, RNA
   CG301    CG331     HGA3     5   110.100000   279.742240   0.21790000     18853.10 ; RETINOL TMCH/MECH
   CG302    CG331     HGA3     5   110.500000   276.144000   0.21550000     32635.20 ; FLUROALK fluoroalkanes
   CG311    CG331     HGA3     5   110.100000   279.742240   0.21790000     18853.10 ; PROT alkanes
   CG312    CG331     HGA3     5   110.500000   276.144000   0.21680000     30961.60 ; FLUROALK fluoroalkanes
   CG314    CG331     HGA3     5   110.100000   279.742240   0.21790000     18853.10 ; PROT alkanes
   CG321    CG331     HGA3     5   110.100000   289.532800   0.21790000     18853.10 ; PROT alkane update, adm jr., 3/2/92
   CG322    CG331     HGA3     5   110.500000   276.144000   0.21810000     31798.40 ; FLUROALK fluoroalkanes
   CG323    CG331     HGA3     5   110.100000   289.532800   0.21790000     18853.10 ; PROT ethylthiolate, adm jr., 6/1/92
   CG324    CG331     HGA3     5   110.100000   289.532800   0.21790000     18853.10 ; PROT alkane update, adm jr., 3/2/92
   CG331    CG331     HGA3     5   110.100000   313.800000   0.21790000     18853.10 ; PROT alkane update, adm jr., 3/2/92
  CG3C50    CG331     HGA3     5   110.100000   289.532800   0.21790000     18853.10 ; from CG3C51 CG331 HGA3, PENALTY= 0.8 R1A
  CG3C51    CG331     HGA3     5   110.100000   289.532800   0.21790000     18853.10 ; TF2M viv
  CG3RC1    CG331     HGA3     5   110.100000   279.742240   0.21790000     18853.10 ; BAM1, bile acid steroidal C-D ring, cacha, 02/08
   NG2D1    CG331     HGA3     5   113.500000   351.456000   0.00000000         0.00 ; RETINOL SCH1, Schiff's base, deprotonated
  NG2R51    CG331     HGA3     5   110.100000   279.742240   0.00000000         0.00 ; NA FOR 9-M-G(C), adm jr.
  NG2R53    CG331     HGA3     5   109.000000   326.352000   0.00000000         0.00 ; MSCH model for D3R, xxwy
  NG2R61    CG331     HGA3     5   110.100000   279.742240   0.21790000     18853.10 ; 1MTH, 1-Methyl-Thymine, kevo for gsk/ibm
   NG2S0    CG331     HGA3     5   105.000000   418.400000   0.00000000         0.00 ; DMF, Dimethylformamide, xxwy
   NG2S1    CG331     HGA3     5   109.500000   430.952000   0.00000000         0.00 ; PROT NMA crystal (JCS)
   NG2S3    CG331     HGA3     5   107.500000   430.952000   0.00000000         0.00 ; Was introduced for 'PROT methylguanidiniumi (MGU1, MGU2)', then (questionably) transferred to 'Phosphoramidate (PHA)'. In 2008, the atom types were split ==> RE-OPTIMIZE!!!
   NG301    CG331     HGA3     5   109.700000   255.224000   0.21400000     41840.00 ; TMC, from NG311 CG331 HGA3, yxu
   NG311    CG331     HGA3     5   109.700000   255.224000   0.21400000     41840.00 ; MGU2, methylguanidine2
  NG3C51    CG331     HGA3     5   109.700000   255.224000   0.21400000     41840.00 ; from NG311 CG331 HGA3, sm136
   OG301    CG331     HGA3     5   108.890000   384.091200   0.00000000         0.00 ; MEOB, Methoxybenzene, cacha
   OG302    CG331     HGA3     5   109.500000   502.080000   0.00000000         0.00 ; PROT adm jr. 4/05/91, methyl acetate
   OG303    CG331     HGA3     5   109.500000   502.080000   0.00000000         0.00 ; NA DMP, ADM Jr.
   OG311    CG331     HGA3     5   108.890000   384.091200   0.00000000         0.00 ; PROT MeOH, EMB, 10/10/89
   OG312    CG331     HGA3     5   118.300000   543.920000   0.00000000         0.00 ; PROT methoxide, adm jr., 6/1/92
     PG0    CG331     HGA3     5   110.000000   753.120000   0.18020000      4518.72 ; from PG1 CG321 HGA2, PENALTY= 8 SGB SVX
     PG1    CG331     HGA3     5   110.000000   753.120000   0.18020000      4518.72 ; from PG1 CG321 HGA2, PENALTY= 6 SBG
   SG301    CG331     HGA3     5   111.000000   317.984000   0.00000000         0.00 ; PROT new S-S atom type 8/24/90
   SG311    CG331     HGA3     5   111.300000   385.764800   0.00000000         0.00 ; PROT vib. freq. and HF/geo. (DTN) 8/24/90
   SG3O1    CG331     HGA3     5   110.600000   351.456000   0.00000000         0.00 ; MSNA, methyl sulfonate, xhe
   SG3O2    CG331     HGA3     5   108.500000   376.560000   0.00000000         0.00 ; DMSN, dimethyl sulfone; MSAM, methanesulfonamide and other sulfonamides; xxwy & xhe
   SG3O3    CG331     HGA3     5   111.300000   385.764800   0.00000000         0.00 ; DMSO, dimethylsulfoxide (ML Strader, et al.JPC2002_A106_1074), sz
   BG201    CG331     HGA3     5   111.000000   924.664000   0.00000000         0.00 ; BORO, Boronic acid, sr
    HGA3    CG331     HGA3     5   108.400000   297.064000   0.18020000      4518.72 ; PROT alkane update, adm jr., 3/2/92
   NG2O1    CG334     HGA3     5   108.000000   399.990400   0.00000000         0.00 ; NIME, nitromethane, abar
   NG2P1    CG334     HGA3     5   110.100000   351.456000   0.00000000         0.00 ; RETINOL SCH2, Schiff's base, protonated #eq#
  NG2R52    CG334     HGA3     5   107.000000   351.456000   0.00000000         0.00 ; 7MG, yxu, RNA
   NG3P0    CG334     HGP5     5   109.500000   334.720000   0.21300000     22593.60 ; LIPID tetramethylammonium
   NG3P1    CG334     HGA3     5   102.300000   376.560000   0.21010000     29288.00 ; FLAVOP PIP1,2,3
   NG3P2    CG334     HGA3     5   102.300000   376.560000   0.21010000     29288.00 ; nc2, fylin/kenno
   NG3P3    CG334     HGA3     5   107.500000   376.560000   0.21010000     29288.00 ; PROT methylammonium (KK 03/10/92)
    HGA3    CG334     HGA3     5   108.400000   297.064000   0.18020000      4518.72 ; PROT alkane update, adm jr., 3/2/92
    HGP5    CG334     HGP5     5   109.500000   200.832000   0.17670000     23430.40 ; LIPID tetramethylammonium
   NG301   CG3AM0   HGAAM0     5   109.500000   292.880000   0.21400000     41840.00 ; AMINE aliphatic amines
  HGAAM0   CG3AM0   HGAAM0     5   108.400000   297.064000   0.18020000      4518.72 ; AMINE aliphatic amines
   NG311   CG3AM1   HGAAM1     5   109.700000   255.224000   0.21400000     41840.00 ; AMINE aliphatic amines
  HGAAM1   CG3AM1   HGAAM1     5   109.000000   299.574400   0.18020000      4518.72 ; AMINE aliphatic amines
   NG321   CG3AM2   HGAAM2     5   109.500000   271.123200   0.21400000     41840.00 ; AMINE aliphatic amines
  HGAAM2   CG3AM2   HGAAM2     5   109.470000   292.880000   0.18020000      4518.72 ; AMINE aliphatic amines
   CG321   CG3C31   CG3C31     5   116.700000   563.584800   0.00000000         0.00 ; 1BOX, 1-butene oxide, sc
   CG321   CG3C31   OG3C31     5   115.500000   505.008800   0.00000000         0.00 ; 1BOX, 1-butene oxide, sc
   CG321   CG3C31     HGA1     5   115.400000   251.040000   0.00000000         0.00 ; 1BOX, 1-butene oxide, sc
   CG324   CG3C31   CG3C31     5   120.000000   488.272800   0.00000000         0.00 ; AMCP, aminomethyl cyclopropane; from FLAVOP PIP1,2,3; jhs ! Kenno: "outside angle" of a 3-membered ring; the QM value is ~119 and the MM ~115.
   CG324   CG3C31     HGA1     5   110.100000   289.532800   0.00000000         0.00 ; AMCP, aminomethyl cyclopropane; from PROT alkane update, adm jr., 3/2/92; jhs, UB term deleted
  CG3C31   CG3C31   CG3C31     5   111.000000   647.264800   0.25610000      6694.40 ; PROTMOD cyclopropane
  CG3C31   CG3C31   OG3C31     5   103.000000   251.040000   0.00000000         0.00 ; 1EOX, 1-ethylene oxide, sc
  CG3C31   CG3C31     HGA1     5   117.100000   192.464000   0.21790000     18853.10 ; PROTMOD cyclopropane
  CG3C31   CG3C31     HGA2     5   117.100000   192.464000   0.21790000     18853.10 ; PROTMOD cyclopropane
  CG3RC1   CG3C31   CG3RC1     5    58.500000   446.432800   0.00000000         0.00 ; CARBOCY carbocyclic sugars
  CG3RC1   CG3C31     HGA2     5   110.100000   288.696000   0.21790000     18853.10 ; CARBOCY carbocyclic sugars
  OG3C31   CG3C31     HGA1     5   118.500000   535.552000   0.00000000         0.00 ; 1BOX, 1-butene oxide, sc
  OG3C31   CG3C31     HGA2     5   115.000000   573.208000   0.00000000         0.00 ; 1EOX, 1-ethylene oxide, sc
    HGA2   CG3C31     HGA2     5   117.000000   192.464000   0.18020000      4518.72 ; PROTMOD cyclopropane
   CG2O4   CG3C41   CG3C41     5   101.000000   794.960000   0.00000000         0.00 ; 2OXT, ozyo, 04/19
   CG2O4   CG3C41   OG3C51     5    90.000000   711.280000   0.00000000         0.00 ; 3OXT, ozyo
   CG2O4   CG3C41     HGA2     5   113.000000   602.496000   0.00000000         0.00 ; 2OXT, ozyo, 04/19
  CG2R53   CG3C41   CG3C41     5   106.000000   753.120000   0.00000000         0.00 ; AZDO, 2-azetidinone, lsk & kevo
  CG2R53   CG3C41     HGA2     5   112.300000   384.928000   0.00000000         0.00 ; AZDO, 2-azetidinone, lsk & kevo
  CG3C41   CG3C41   CG3C41     5   106.000000   585.760000   0.00000000         0.00 ; CBU, cyclobutane; QM by Nikolay Simakov; lsk
  CG3C41   CG3C41   NG2R43     5   104.500000   753.120000   0.00000000         0.00 ; AZDO, 2-azetidinone, lsk & kevo
  CG3C41   CG3C41   OG3C51     5    99.490000   744.752000   0.00000000         0.00 ; OXTN, oxetane, gmu
  CG3C41   CG3C41     HGA2     5   110.500000   384.928000   0.00000000         0.00 ; CBU, cyclobutane; QM by Nikolay Simakov; lsk
  NG2R43   CG3C41     HGA2     5   110.800000   426.768000   0.00000000         0.00 ; AZDO, 2-azetidinone, lsk & kevo
  OG3C51   CG3C41     HGA2     5   112.000000   460.240000   0.00000000         0.00 ; OXTN, oxetane, gmu
    HGA2   CG3C41     HGA2     5   105.000000   234.304000   0.18067000      4518.72 ; CBU, cyclobutane; AZDO, 2-azetidinone; QM by Nikolay Simakov; lsk & kevo
   CG2O1   CG3C50   CG3C52     5   112.300000   435.136000   0.00000000         0.00 ; from CG2O1 CG3C51 CG3C52, PENALTY= 6 PXU
   CG2O1   CG3C50    NG2S0     5   108.200000   418.400000   0.00000000         0.00 ; from CG2O1 CG3C51 NG2S0, PENALTY= 6 PXU
   CG2O1   CG3C50    OG311     5   111.930000   378.149920   0.00000000         0.00 ; PXU, by ac_aa
  CG2R51   CG3C50    CG331     5   103.000000   376.560000   0.00000000         0.00 ; from CG2R53 CG3C50 CG321, PENALTY= 3.9 R1A
  CG2R51   CG3C50   NG3C51     5   105.100000   585.760000   0.00000000         0.00 ; from CG2R51 CG3C52 NG3C51, PENALTY= 10 R1A
  CG2R53   CG3C50   CG2RC0     5   103.000000   376.560000   0.00000000         0.00 ; MSCH model for D3R, xxwy
  CG2R53   CG3C50    CG321     5   103.000000   376.560000   0.00000000         0.00 ; MSCH model for D3R, xxwy
  CG2RC0   CG3C50    CG321     5   105.000000   376.560000   0.00000000         0.00 ; MSCH model for D3R, xxwy
   CG321   CG3C50    CG321     5   110.000000   485.344000   0.25610000      9338.69 ; MSCH model for D3R, xxwy
   CG331   CG3C50    CG331     5   110.000000   485.344000   0.25610000      9338.69 ; from CG321 CG3C50 CG321, PENALTY= 1.8 R1A
   CG331   CG3C50   NG3C51     5    93.460000   380.158240   0.00000000         0.00 ; R1A, by ac_aa
  CG3C52   CG3C50    NG2S0     5   110.800000   585.760000   0.00000000         0.00 ; from CG3C52 CG3C51 NG2S0, PENALTY= 6 PXU
  CG3C52   CG3C50    OG311     5   110.000000   633.457600   0.00000000         0.00 ; from CG3C52 CG3C51 OG311, PENALTY= 6 PXU
   NG2S0   CG3C50    OG311     5   114.200000   417.228480   0.00000000         0.00 ; PXU, by ac_aa
   CG2O1   CG3C51   CG2R51     5   106.410000   530.614880   0.00000000         0.00 ; 8LJ, by ac_aa
   CG2O1   CG3C51   CG3C52     5   112.300000   435.136000   0.00000000         0.00 ; PROT AcProNH2, ProNH2, AcProNHCH3 RLD 4/23/93
   CG2O1   CG3C51    NG2S0     5   108.200000   418.400000   0.00000000         0.00 ; PROT AcProNH2, ProNH2, AcProNHCH3 RLD 4/23/93
   CG2O1   CG3C51   NG3C51     5   113.340000   606.680000   0.00000000         0.00 ; PR4, by ac_aa
   CG2O1   CG3C51     HGA1     5   112.000000   418.400000   0.00000000         0.00 ; PROT AcProNH2, ProNH2, AcProNHCH3 RLD 4/23/93
   CG2O3   CG3C51   CG3C52     5   112.300000   435.136000   0.00000000         0.00 ; PROT AcProNH2, ProNH2, AcProNHCH3 RLD 4/23/93
   CG2O3   CG3C51    NG2S0     5   108.200000   418.400000   0.00000000         0.00 ; PROT AcProNH2, ProNH2, AcProNHCH3 RLD 4/23/93
   CG2O3   CG3C51     HGA1     5   112.000000   418.400000   0.00000000         0.00 ; PROT AcProNH2, ProNH2, AcProNHCH3 RLD 4/23/93
  CG2R51   CG3C51   CG3C51     5   102.700000   937.216000   0.00000000         0.00 ; QUG, from cpea, yxu, RNA
  CG2R51   CG3C51   CG3C52     5   102.700000   937.216000   0.00000000         0.00 ; cpea, yxu, RNA
  CG2R51   CG3C51    NG2S0     5   105.910000   573.040640   0.00000000         0.00 ; 8LJ, by ac_aa
  CG2R51   CG3C51    NG311     5   105.000000   573.208000   0.00000000         0.00 ; 7GNM (cena), yxu, RNA
  CG2R51   CG3C51   NG3C51     5   105.100000   585.760000   0.00000000         0.00 ; from CG2R51 CG3C52 NG3C51, PENALTY= 4 143
  CG2R51   CG3C51    OG311     5   115.500000   502.080000   0.00000000         0.00 ; QUG, yxu, RNA
  CG2R51   CG3C51    SG311     5   116.370000   385.681120   0.00000000         0.00 ; 143, by ac_aa
  CG2R51   CG3C51     HGA1     5   110.100000   401.664000   0.00000000         0.00 ; QUG, yxu, RNA
  CG2R53   CG3C51   CG3C52     5   106.500000   585.760000   0.00000000         0.00 ; from CG2R53 CG3C52 CG3C52, penalty= 4 6V1 SUI
  CG2R53   CG3C51    NG2S1     5   105.490000   572.622240   0.00000000         0.00 ; SUI, by ac_aa
  CG2R53   CG3C51    SG311     5   106.000000   331.623840   0.00000000         0.00 ; 6V1, by ac_aa
  CG2R53   CG3C51     HGA1     5   111.000000   485.344000   0.00000000         0.00 ; from CG2R53 CG3C52 HGA2, penalty= 4 6V1 SUI
   CG311   CG3C51   CG3C52     5   115.000000   485.344000   0.25610000      6694.40 ; TF2M viv
   CG311   CG3C51   CG3RC1     5   108.000000   435.136000   0.00000000         0.00 ; BAM1, bile acid steroidal C-D ring, cacha, 02/08
   CG311   CG3C51     HGA1     5   110.100000   289.532800   0.21790000     18853.10 ; TF2M viv
   CG314   CG3C51   CG3C52     5   109.830000   489.276960   0.25387000      6368.05 ; 5CS, by ac_aa
   CG314   CG3C51   OG3C51     5   103.880000   376.560000   0.00000000         0.00 ; 5CS, by ac_aa
   CG314   CG3C51     HGA1     5   109.630000   289.532800   0.21519000      4451.78 ; 5CS, by ac_aa
   CG321   CG3C51   CG3C51     5   115.000000   485.344000   0.25610000      6694.40 ; TF2M viv
   CG321   CG3C51   CG3C52     5   115.000000   485.344000   0.25610000      6694.40 ; TF2M viv
   CG321   CG3C51   CG3RC1     5   103.700000   446.432800   0.25610000      6694.40 ; CARBOCY carbocyclic sugars
   CG321   CG3C51   OG3C51     5   111.500000   376.560000   0.00000000         0.00 ; TF2M, viv
   CG321   CG3C51     HGA1     5   110.100000   289.532800   0.21790000     18853.10 ; TF2M viv
   CG331   CG3C51   CG3C51     5   115.000000   485.344000   0.25610000      6694.40 ; TF2M viv
   CG331   CG3C51   CG3C52     5   115.000000   485.344000   0.25610000      6694.40 ; TF2M viv
   CG331   CG3C51   CG3RC1     5   108.500000   446.432800   0.25610000      6694.40 ; PROT alkane update, adm jr., 3/2/92
   CG331   CG3C51   OG3C51     5   111.500000   376.560000   0.00000000         0.00 ; TF2M, viv
   CG331   CG3C51     HGA1     5   110.100000   289.532800   0.21790000     18853.10 ; TF2M viv
  CG3C51   CG3C51   CG3C51     5   109.500000   485.344000   0.25610000      9338.69 ; THF, nucleotide CSD/NDB survey, 05/30/06, viv
  CG3C51   CG3C51   CG3C52     5   109.500000   485.344000   0.25610000      9338.69 ; THF, nucleotide CSD/NDB survey, 05/30/06, viv
  CG3C51   CG3C51   CG3C53     5   111.000000   446.432800   0.25610000      6694.40 ; PROT alkane update, adm jr., 3/2/92
  CG3C51   CG3C51   CG3RC1     5   103.700000   446.432800   0.25610000      6694.40 ; CARBOCY carbocyclic sugars
  CG3C51   CG3C51   NG2R51     5   111.000000   920.480000   0.00000000         0.00 ; NA T/U/G, Arabinose (NF)
  CG3C51   CG3C51   NG2R61     5   111.000000   920.480000   0.00000000         0.00 ; NA C/A, RNA
  CG3C51   CG3C51    NG2S3     5   110.000000   365.681600   0.00000000         0.00 ; NABAKB  phosphoramidates
  CG3C51   CG3C51    NG301     5   111.000000   920.480000   0.00000000         0.00 ; NADH, NDPH; Kenno: reverted to "C/A, RNA" from par_all27_na.prm
  CG3C51   CG3C51    NG311     5   111.000000   920.480000   0.00000000         0.00 ; 7GNM, from CG3C51 CG3C51 NG301, yxu, RNA
  CG3C51   CG3C51    NG321     5   107.500000   566.513600   0.00000000         0.00 ; PROT arg, (DS)
  CG3C51   CG3C51    OG301     5   106.500000   485.344000   0.25610000      6694.40 ; MQG, from CG36, RNA
  CG3C51   CG3C51    OG303     5   109.700000   962.320000   0.00000000         0.00 ; PROTNA Ser-Phos
  CG3C51   CG3C51    OG311     5   110.100000   633.457600   0.00000000         0.00 ; PROT MeOH, EMB, 10/10/89
  CG3C51   CG3C51   OG3C51     5   111.100000   376.560000   0.00000000         0.00 ; THF 10/21/05, viv
  CG3C51   CG3C51    SG311     5   104.170000   871.192480   0.00000000         0.00 ; FZN, by ac_aa
  CG3C51   CG3C51     FGA1     5   112.000000   368.192000   0.23690000     25104.00 ; FLUROALK fluoroalkanes
  CG3C51   CG3C51     HGA1     5   111.400000   292.880000   0.21790000     18853.10 ; TF2M, viv
  CG3C51   CG3C51     HGA6     5   111.400000   292.880000   0.21790000     18853.10 ; TF2M, viv
  CG3C52   CG3C51   CG3C52     5   109.500000   485.344000   0.25610000      9338.69 ; THF, nucleotide CSD/NDB survey, 05/30/06, viv
  CG3C52   CG3C51   CG3RC1     5   103.700000   446.432800   0.25610000      6694.40 ; CARBOCY carbocyclic sugars
  CG3C52   CG3C51   NG2R51     5   113.700000  1171.520000   0.00000000         0.00 ; NA
  CG3C52   CG3C51   NG2R61     5   113.700000   920.480000   0.00000000         0.00 ; NA C/A
  CG3C52   CG3C51    NG2S0     5   110.800000   585.760000   0.00000000         0.00 ; PROT AcProNH2, ProNH2, AcProNHCH3 RLD 4/23/93
  CG3C52   CG3C51    NG2S1     5   110.800000   585.760000   0.00000000         0.00 ; from CG3C52 CG3C51 NG2S0, penalty= 2 SUI
  CG3C52   CG3C51    NG2S3     5   110.000000   365.681600   0.00000000         0.00 ; NABAKB  phosphoramidates
  CG3C52   CG3C51    NG311     5   113.000000   920.480000   0.00000000         0.00 ; cena, yxu, RNA
  CG3C52   CG3C51    NG321     5   107.500000   566.513600   0.00000000         0.00 ; PROT arg, (DS)
  CG3C52   CG3C51   NG3C51     5   107.600000   702.912000   0.00000000         0.00 ; from CG3C52 CG3C52 NG3C51, PENALTY= 4 PR4 5CS
  CG3C52   CG3C51    OG301     5   106.500000   485.344000   0.25610000      6694.40 ; THF2, THF-2'OMe c3'-c2'-om, from Nucl. Acids, ed
  CG3C52   CG3C51    OG303     5   109.700000   962.320000   0.00000000         0.00 ; NA
  CG3C52   CG3C51    OG311     5   110.000000   633.457600   0.00000000         0.00 ; NA
  CG3C52   CG3C51   OG3C51     5   111.100000   376.560000   0.00000000         0.00 ; THF 10/21/05, viv
  CG3C52   CG3C51    SG311     5   107.690000   589.023520   0.00000000         0.00 ; 6V1, by ac_aa
  CG3C52   CG3C51     FGA1     5   112.000000   368.192000   0.23690000     25104.00 ; FLUROALK fluoroalkanes
  CG3C52   CG3C51     HGA1     5   111.400000   292.880000   0.21790000     18853.10 ; TF2M, viv
  CG3C52   CG3C51     HGA6     5   111.400000   292.880000   0.21790000     18853.10 ; TF2M, viv
  CG3C53   CG3C51    OG301     5   110.100000   633.457600   0.00000000         0.00 ; MQG, from CG3C53 CG3C51 OG311, yxu, RNA
  CG3C53   CG3C51    OG311     5   110.100000   633.457600   0.00000000         0.00 ; PROT MeOH, EMB, 10/10/89
  CG3C53   CG3C51     HGA1     5   110.100000   288.696000   0.21790000     18853.10 ; PROT alkane update, adm jr., 3/2/92
  CG3RC1   CG3C51   NG2R51     5   108.000000   920.480000   0.00000000         0.00 ; CARBOCY carbocyclic sugars
  CG3RC1   CG3C51   NG2R61     5   108.000000   920.480000   0.00000000         0.00 ; CARBOCY carbocyclic sugars
  CG3RC1   CG3C51    NG311     5   111.000000   920.480000   0.00000000         0.00 ; 7GNM, from CG3C51 CG3C51 NG301, yxu, RNA
  CG3RC1   CG3C51    OG303     5   110.100000   633.457600   0.00000000         0.00 ; CARBOCY ncarbocyclic sugars
  CG3RC1   CG3C51    OG311     5   110.100000   633.457600   0.00000000         0.00 ; CARBOCY ncarbocyclic sugars
  CG3RC1   CG3C51     HGA1     5   110.100000   288.696000   0.21790000     18853.10 ; CARBOCY carbocyclic sugars
  NG2R51   CG3C51   OG3C51     5   108.000000  1171.520000   0.00000000         0.00 ; NA
  NG2R51   CG3C51     HGA1     5   111.000000   359.824000   0.00000000         0.00 ; NA From HGA1   CG3C51 NN2
  NG2R61   CG3C51   OG3C51     5   108.000000   920.480000   0.00000000         0.00 ; NA C/A DNA
  NG2R61   CG3C51     HGA1     5   111.000000   359.824000   0.00000000         0.00 ; NA
   NG2S0   CG3C51     HGA1     5   112.000000   401.664000   0.00000000         0.00 ; PROT AcProNH2, ProNH2, AcProNHCH3 RLD 4/23/93
   NG2S1   CG3C51     HGA1     5   112.000000   401.664000   0.00000000         0.00 ; from NG2S0 CG3C51 HGA1, PENALTY= 2 SUI
   NG2S3   CG3C51     HGA1     5   110.000000   401.664000   0.00000000         0.00 ; NABAKB  phosphoramidates
   NG301   CG3C51   OG3C51     5   112.000000   920.480000   0.00000000         0.00 ; NADH, NDPH; Kenno: reverted to "C/A RNA" from par_all27_na.prm
   NG301   CG3C51     HGA1     5   111.000000   359.824000   0.00000000         0.00 ; NADH, NDPH; Kenno: reverted to uncommented parameter from par_all27_na.prm
   NG311   CG3C51     HGA1     5   106.000000   359.824000   0.00000000         0.00 ; 7GNM, yxu, RNA
   NG321   CG3C51     HGA1     5   109.500000   271.123200   0.21400000     41840.00 ; AMINE aliphatic amines
  NG3C51   CG3C51    SG311     5   112.510000   633.457600   0.00000000         0.00 ; 143, by ac_aa
  NG3C51   CG3C51     HGA1     5   109.000000   451.872000   0.00000000         0.00 ; from NG3C51 CG3C52 HGA2, penalty= 4 143 5CS PR4
   OG301   CG3C51   OG3C51     5   112.000000   836.800000   0.00000000         0.00 ; rbrb, yxu, RNA
   OG301   CG3C51     HGA1     5   108.500000   384.091200   0.00000000         0.00 ; THF2, THF-2'OMe h2''-c2'-om, from Nucl. Acids, ed
   OG303   CG3C51     HGA1     5   109.500000   502.080000   0.00000000         0.00 ; PROTNA Ser-Phos
   OG311   CG3C51     HGA1     5   108.890000   384.091200   0.00000000         0.00 ; PROT MeOH, EMB, 10/10/89
  OG3C51   CG3C51    SG311     5   114.840000   865.083840   0.00000000         0.00 ; FZN, by ac_aa
  OG3C51   CG3C51     HGA1     5   107.300000   585.760000   0.00000000         0.00 ; THF 10/21/05, viv
   SG311   CG3C51     HGA1     5   107.950000   358.485120   0.00000000         0.00 ; 6V1 143 FZN, by ac_aa
    FGA1   CG3C51     HGA6     5   108.890000   481.160000   0.19970000      4184.00 ; FLUROALK fluoroalkanes
  CG2R51   CG3C52   CG2R51     5   107.600000   635.968000   0.00000000         0.00 ; CPDE, cyclopentadiene, kevo
  CG2R51   CG3C52   CG2R52     5   106.000000   702.912000   0.00000000         0.00 ; 3HPR, 3H-pyrrole, kevo
  CG2R51   CG3C52   CG2R53     5   108.000000   376.560000   0.00000000         0.00 ; A2FO, 3H-furan-2-one, ctsai
  CG2R51   CG3C52   CG2RC0     5   107.300000   334.720000   0.00000000         0.00 ; INDE, indene, kevo
  CG2R51   CG3C52   CG3C51     5   106.000000   435.136000   0.00000000         0.00 ; pepr, from CG2R51 CG3C52 CG3C52, not optimized, yxu, RNA
  CG2R51   CG3C52   CG3C52     5   106.000000   435.136000   0.00000000         0.00 ; 105 2PRL, 2-pyrroline, kevo
  CG2R51   CG3C52   CG3C54     5   103.300000   435.136000   0.00000000         0.00 ; 106 2PRL, 2-pyrroline RE-OPTIMIZE!, kevo
  CG2R51   CG3C52   NG2R50     5   111.600000   878.640000   0.00000000         0.00 ; 115.00 111.60 2HPR, 2H-pyrrole 1, kevo
  CG2R51   CG3C52    NG2S0     5   104.590000   573.208000   0.00000000         0.00 ; 8LJ, by ac_aa
  CG2R51   CG3C52   NG3C51     5   105.100000   585.760000   0.00000000         0.00 ; 3PRL, 3-pyrroline, kevo
  CG2R51   CG3C52   OG3C51     5   102.400000   627.600000   0.00000000         0.00 ; B2FO, 5H-furan-2-one, ctsai
  CG2R51   CG3C52     HGA2     5   112.600000   435.136000   0.00000000         0.00 ; 2PRP, 2-pyrroline.H+; 2PRL, 2-pyrroline, kevo
  CG2R52   CG3C52   CG2RC0     5   105.000000   585.760000   0.00000000         0.00 ; 3HIN, 3H-indole, kevo
  CG2R52   CG3C52   CG3C52     5    99.000000   669.440000   0.00000000         0.00 ; ~ 99.5 99 2PRZ, 2-pyrazoline C3-C4-C5, kevo
  CG2R52   CG3C52     HGA2     5   112.200000   485.344000   0.00000000         0.00 ; x 112.2 2PRZ, 2-pyrazoline; 3HPR, 3H-pyrrole C3-C4-H4x, kevo
  CG2R53   CG3C52   CG3C51     5   106.500000   585.760000   0.00000000         0.00 ; from CG2R53 CG3C52 CG3C52, penalty= 0.4 6V1 SUI
  CG2R53   CG3C52   CG3C52     5   106.500000   585.760000   0.00000000         0.00 ; 2PDO, 2-pyrrolidinone C2-C3-C4, kevo
  CG2R53   CG3C52     HGA2     5   111.000000   485.344000   0.00000000         0.00 ; 2PDO, 2-pyrrolidinone, kevo
  CG2RC0   CG3C52   CG2RC0     5    95.000000   334.720000   0.00000000         0.00 ; FLRN, Fluorene, erh
  CG2RC0   CG3C52   CG3C51     5   108.200000   543.920000   0.00000000         0.00 ; from CG2RC0 CG3C52 CG3C52, PENALTY= 0.4 IGL
  CG2RC0   CG3C52   CG3C52     5   108.200000   543.920000   0.00000000         0.00 ; INDI, indoline, kevo
  CG2RC0   CG3C52   OG3C51     5   105.400000   627.600000   0.00000000         0.00 ; BICB,BINB Boronic acid, sr
  CG2RC0   CG3C52     HGA2     5   114.000000   317.984000   0.00000000         0.00 ; 3HIN, 3H-indole, kevo
  CG3C50   CG3C52   CG3C52     5   109.500000   485.344000   0.25610000      9338.69 ; from CG3C51 CG3C52 CG3C52, PENALTY= 0.8 PXU
  CG3C50   CG3C52     HGA2     5   111.400000   292.880000   0.21790000     18853.10 ; from CG3C51 CG3C52 HGA2, PENALTY= 0.8 PXU
  CG3C51   CG3C52   CG3C51     5   109.500000   485.344000   0.25610000      9338.69 ; THF, nucleotide CSD/NDB survey, 05/30/06, viv
  CG3C51   CG3C52   CG3C52     5   109.500000   485.344000   0.25610000      9338.69 ; THF, nucleotide CSD/NDB survey, 05/30/06, viv
  CG3C51   CG3C52   CG3C53     5   108.500000   585.760000   0.00000000         0.00 ; cpea, from CG3C52 CG3C52 CG3C53, yxu, RNA
  CG3C51   CG3C52   CG3RC1     5   105.500000   669.440000   0.25610000      6694.40 ; CARBOCY carbocyclic sugars
  CG3C51   CG3C52    NG2S0     5   110.500000   585.760000   0.00000000         0.00 ; from CG3C52 CG3C52 NG2S0, PENALTY= 0.4 MP8 4FB HZP HYP FP9
  CG3C51   CG3C52   NG3C51     5   107.600000   702.912000   0.00000000         0.00 ; 3POMP, 3-phenoxymethylpyrrolidine; from PRLD etc; kevo
  CG3C51   CG3C52   OG3C51     5   111.100000   376.560000   0.00000000         0.00 ; THF 10/21/05, viv
  CG3C51   CG3C52    SG311     5   106.290000   904.078720   0.00000000         0.00 ; PRS, by ac_aa
  CG3C51   CG3C52     HGA2     5   111.400000   292.880000   0.21790000     18853.10 ; TF2M, viv
  CG3C52   CG3C52   CG3C52     5   109.500000   485.344000   0.25610000      9338.69 ; THF, nucleotide CSD/NDB survey, 05/30/06, viv
  CG3C52   CG3C52   CG3C53     5   108.500000   585.760000   0.00000000         0.00 ; PROT AcProNH2, ProNH2, AcProNHCH3 RLD 4/23/93
  CG3C52   CG3C52   CG3C54     5   108.500000   585.760000   0.00000000         0.00 ; PROT AcProNH2, ProNH2, AcProNHCH3 RLD 4/23/93
  CG3C52   CG3C52   CG3RC1     5   111.000000   446.432800   0.25610000      6694.40 ; CARBOCY carbocyclic sugars
  CG3C52   CG3C52   NG2R50     5   107.100000   334.720000   0.00000000         0.00 ; ~ 104.2 ! 105.80 2IMI, 2-imidazoline N3-C4-C5 d1,d1a, kevo
  CG3C52   CG3C52   NG2R53     5   104.500000   753.120000   0.00000000         0.00 ; 2PDO, 2-pyrrolidinone C4-C5-N1, kevo
  CG3C52   CG3C52    NG2S0     5   110.500000   585.760000   0.00000000         0.00 ; PROT AcProNH2, ProNH2, AcProNHCH3 RLD 4/23/93
  CG3C52   CG3C52   NG3C51     5   107.600000   702.912000   0.00000000         0.00 ; x 107 PRLD, pyrrolidine; 103.3 2PRL, 2-pyrroline; 100.4 2IMI, 2-imidazoline; 2PRZ, 2-pyrazoline, kevo
  CG3C52   CG3C52   OG3C51     5   111.100000   376.560000   0.00000000         0.00 ; THF 10/21/05, viv
  CG3C52   CG3C52     HGA2     5   111.400000   292.880000   0.21790000     18853.10 ; TF2M, viv
  CG3C53   CG3C52     HGA2     5   110.100000   279.742240   0.21790000     18853.10 ; PROT AcProNH2, ProNH2, AcProNHCH3 RLD 4/23/93
  CG3C54   CG3C52   NG3C51     5   110.400000   728.016000   0.00000000         0.00 ; IMDP, imidazolidine, erh and kevo
  CG3C54   CG3C52     HGA2     5   110.100000   221.752000   0.21790000     18853.10 ; PROT AcProNH2, ProNH2, AcProNHCH3 RLD 4/23/93
  CG3RC1   CG3C52   CG3RC1     5   105.300000   485.344000   0.00000000         0.00 ; NORB, Norbornane, kevo
  CG3RC1   CG3C52     HGA2     5   110.100000   288.696000   0.21790000     18853.10 ; CARBOCY carbocyclic sugars
  NG2R50   CG3C52     HGA2     5   109.800000   368.192000   0.00000000         0.00 ; x 2IMI, 2-imidazoline; 2HPR, 2H-pyrrole, kevo
  NG2R53   CG3C52     HGA2     5   111.000000   493.712000   0.00000000         0.00 ; 2PDO, 2-pyrrolidinone, kevo
   NG2S0   CG3C52    SG311     5   106.640000   467.436480   0.00000000         0.00 ; PRS, by ac_aa
   NG2S0   CG3C52     HGA2     5   108.000000   401.664000   0.00000000         0.00 ; PROT AcProNH2, ProNH2, AcProNHCH3 RLD 4/23/93
  NG3C51   CG3C52     HGA2     5   109.000000   451.872000   0.00000000         0.00 ; v 107.7 PRLD, pyrrolidine; 110.8 2PRL, 2-pyrroline; 110.4 3PRL, 3-pyrroline; 111.4 2IMI, 2-imidazoline; 111.7 2PRZ, 2-pyrazoline, kevo
  OG3C51   CG3C52   OG3C51     5   108.100000   711.280000   0.00000000         0.00 ; DIOL, 1,3-Dioxolane, erh
  OG3C51   CG3C52     HGA2     5   107.300000   585.760000   0.00000000         0.00 ; THF 10/21/05, viv
   SG311   CG3C52     HGA2     5   113.260000   384.593280   0.00000000         0.00 ; PRS, by ac_aa
    HGA2   CG3C52     HGA2     5   106.800000   322.168000   0.18020000      4518.72 ; THF, 10/17/05 viv
   CG2O1   CG3C53   CG3C52     5   112.300000   435.136000   0.00000000         0.00 ; PROT AcProNH2, ProNH2, AcProNHCH3 RLD 4/23/93
   CG2O1   CG3C53    NG3P2     5   106.000000   418.400000   0.00000000         0.00 ; PROT AcProNH2, ProNH2, AcProNHCH3 RLD 4/23/93
   CG2O1   CG3C53     HGA1     5   112.000000   418.400000   0.00000000         0.00 ; PROT AcProNH2, ProNH2, AcProNHCH3 RLD 4/23/93
   CG2O3   CG3C53   CG3C52     5   112.300000   435.136000   0.00000000         0.00 ; PROT AcProNH2, ProNH2, AcProNHCH3 RLD 4/23/93
   CG2O3   CG3C53    NG3P2     5   106.000000   418.400000   0.00000000         0.00 ; PROT AcProNH2, ProNH2, AcProNHCH3 RLD 4/23/93
   CG2O3   CG3C53     HGA1     5   112.000000   418.400000   0.00000000         0.00 ; PROT AcProNH2, ProNH2, AcProNHCH3 RLD 4/23/93
  CG2R51   CG3C53   CG3C51     5   106.000000   878.640000   0.00000000         0.00 ; QUG, from cpea, yxu, RNA
  CG2R51   CG3C53   CG3C52     5   106.000000   878.640000   0.00000000         0.00 ; cpea, yxu, RNA
  CG2R51   CG3C53    NG3P2     5   109.500000   644.336000   0.00000000         0.00 ; QUG, from cpea, yxu, RNA
  CG2R51   CG3C53    NG3P3     5   109.500000   644.336000   0.00000000         0.00 ; cpea, yxu, RNA
  CG2R51   CG3C53     HGA1     5   114.800000   384.928000   0.00000000         0.00 ; QUG, yxu, RNA
  CG3C51   CG3C53   CG3RC1     5   103.700000   446.432800   0.25610000      6694.40 ; EQG, from CG3C51 CG3C51 CG3RC1, yxu, RNA
  CG3C51   CG3C53   NG2R61     5   111.000000   920.480000   0.00000000         0.00 ; NA C/A, RNA
  CG3C51   CG3C53    NG3P2     5   108.500000   585.760000   0.00000000         0.00 ; QUG, from CG3C52 CG3C53 NG3P2, yxu, RNA
  CG3C51   CG3C53   OG3C51     5   106.250000  1004.160000   0.00000000         0.00 ; NA
  CG3C51   CG3C53     HGA1     5   110.100000   288.696000   0.21790000     18853.10 ; PROT alkane update, adm jr., 3/2/92
  CG3C52   CG3C53   CG3RC1     5   103.700000   446.432800   0.25610000      6694.40 ; cpoa, from CG3C52 CG3C51 CG3RC1, yxu, RNA
  CG3C52   CG3C53    NG3P2     5   108.500000   585.760000   0.00000000         0.00 ; PROT AcProNH2, ProNH2, AcProNHCH3 RLD 4/23/93
  CG3C52   CG3C53    NG3P3     5   108.500000   585.760000   0.00000000         0.00 ; cpoa, from CG3C52 CG3C53 NG3P2, yxu, RNA
  CG3C52   CG3C53     HGA1     5   118.000000   292.880000   0.00000000         0.00 ; PROT AcProNH2, ProNH2, AcProNHCH3 RLD 4/23/93
  CG3RC1   CG3C53    NG3P2     5   108.500000   585.760000   0.00000000         0.00 ; EQG, from CG3C52 CG3C53 NG3P2, yxu, RNA
  CG3RC1   CG3C53    NG3P3     5   108.500000   585.760000   0.00000000         0.00 ; cpoa, from CG3C52 CG3C53 NG3P2, yxu, RNA
  CG3RC1   CG3C53     HGA1     5   110.100000   288.696000   0.21790000     18853.10 ; EQG, from CG3RC1 CG3C51 HGA1, yxu, RNA
  NG2R61   CG3C53   OG3C51     5   108.000000   920.480000   0.00000000         0.00 ; NA C/A DNA
  NG2R61   CG3C53     HGA1     5   111.000000   359.824000   0.00000000         0.00 ; NA
   NG3P2   CG3C53     HGA1     5   107.500000   430.952000   0.00000000         0.00 ; PROT AcProNH2, ProNH2, AcProNHCH3 RLD 4/23/93
   NG3P3   CG3C53     HGA1     5   107.500000   430.952000   0.00000000         0.00 ; cpoa, from NG3P2 CG3C53 HGA1, yxu, RNA
  OG3C51   CG3C53     HGA1     5   107.240000   378.233600   0.00000000         0.00 ; NA
  CG2R51   CG3C54   NG2R52     5   103.100000  1154.784000   0.00000000         0.00 ; 2HPP, 2H-pyrrole.H+ N1-C2-C3, kevo
  CG2R51   CG3C54    NG3P2     5   103.000000   518.816000   0.00000000         0.00 ; 3PRP, 3-pyrroline.H+, kevo
  CG2R51   CG3C54     HGA2     5   114.800000   343.088000   0.00000000         0.00 ; 109.8 3PRP, 3-pyrroline.H+; 2HPP, 2H-pyrrole.H+, kevo
  CG3C52   CG3C54    NG3P2     5   108.500000   585.760000   0.00000000         0.00 ; PROT AcProNH2, ProNH2, AcProNHCH3 RLD 4/23/93
  CG3C52   CG3C54     HGA2     5   110.100000   221.752000   0.21790000     18853.10 ; PROT AcProNH2, ProNH2, AcProNHCH3 RLD 4/23/93
  CG3C54   CG3C54   NG2R52     5   106.000000   569.024000   0.00000000         0.00 ; 2IMP, 2-imidazoline.H+ 1a,1, kevo
  CG3C54   CG3C54     HGA2     5   110.100000   221.752000   0.21790000     18853.10 ; ~ 2IMP, 2-imidazoline.H+ ! RE-OPTIMIZE !!!, kevo
  NG2R52   CG3C54     HGA2     5   107.000000   451.872000   0.00000000         0.00 ; x 2IMP, 2-imidazoline.H+; 2HPP, 2H-pyrrole.H+, kevo
  NG3C51   CG3C54    NG3P2     5   119.000000   719.648000   0.00000000         0.00 ; IMDP, imidazolidine ! questionable - RE-OPTIMIZE?, erh and kevo
  NG3C51   CG3C54     HGA2     5   114.600000   443.504000   0.00000000         0.00 ; IMDP, imidazolidine, erh and kevo
   NG3P2   CG3C54     HGA2     5   109.150000   430.952000   0.00000000         0.00 ; PROT AcProNH2, ProNH2, AcProNHCH3 RLD 4/23/93
    HGA2   CG3C54     HGA2     5   109.000000   297.064000   0.18020000      4518.72 ; PROT AcProNH2, ProNH2, AcProNHCH3 RLD 4/23/93
   CG311   CG3RC1    CG331     5   113.500000   488.272800   0.25610000      9338.69 ; CA, Cholic acid, cacha, 02/08
   CG311   CG3RC1   CG3C51     5   113.500000   488.272800   0.25610000      9338.69 ; CA, Cholic acid, cacha, 02/08
   CG311   CG3RC1   CG3C52     5   111.000000   446.432800   0.25610000      6694.40 ; CA, Cholic acid, cacha, 02/08
   CG311   CG3RC1   CG3RC1     5   108.000000   446.432800   0.25610000      6694.40 ; CARBOCY carbocyclic sugars
   CG311   CG3RC1     HGA1     5   110.100000   288.696000   0.21790000     18853.10 ; CARBOCY carbocyclic sugars
   CG321   CG3RC1    CG331     5   113.500000   488.272800   0.25610000      9338.69 ; BAM1, bile acid steroidal C-D ring, cacha, 02/08
   CG321   CG3RC1   CG3C31     5   111.000000   446.432800   0.25610000      6694.40 ; CARBOCY carbocyclic sugars
   CG321   CG3RC1   CG3C51     5   111.000000   446.432800   0.25610000      6694.40 ; CARBOCY carbocyclic sugars
   CG321   CG3RC1   CG3C52     5   113.500000   488.272800   0.25610000      9338.69 ; BAM1, bile acid steroidal C-D ring, cacha, 02/08
   CG321   CG3RC1   CG3RC1     5   111.000000   446.432800   0.25610000      6694.40 ; CARBOCY carbocyclic sugars
   CG321   CG3RC1     HGA1     5   110.100000   288.696000   0.21790000     18853.10 ; CARBOCY carbocyclic sugars
   CG331   CG3RC1   CG3C51     5   113.500000   488.272800   0.25610000      9338.69 ; BAM1, bile acid steroidal C-D ring, cacha, 02/08
   CG331   CG3RC1   CG3RC1     5   113.500000   488.272800   0.25610000      9338.69 ; BAM1, bile acid steroidal C-D ring, cacha, 02/08
  CG3C31   CG3RC1   CG3C51     5   111.000000   446.432800   0.25610000      6694.40 ; CARBOCY carbocyclic sugars
  CG3C31   CG3RC1   CG3C52     5   111.000000   446.432800   0.25610000      6694.40 ; CARBOCY carbocyclic sugars
  CG3C31   CG3RC1   CG3RC1     5    62.500000   446.432800   0.00000000         0.00 ; CARBOCY carbocyclic sugars
  CG3C31   CG3RC1   NG2R51     5   113.700000   585.760000   0.00000000         0.00 ; CARBOCY carbocyclic sugars
  CG3C31   CG3RC1   NG2R61     5   113.700000   585.760000   0.00000000         0.00 ; CARBOCY carbocyclic sugars
  CG3C31   CG3RC1     HGA1     5   110.100000   288.696000   0.21790000     18853.10 ; CARBOCY carbocyclic sugars
  CG3C51   CG3RC1   CG3C52     5   109.000000   585.760000   0.00000000         0.00 ; RSRF, 4,6-dioxabicyclo[3.3.0]octan-8-ol, xxwy
  CG3C51   CG3RC1   CG3RC1     5   108.000000   446.432800   0.25610000      6694.40 ; CARBOCY carbocyclic sugars
  CG3C51   CG3RC1   OG3C31     5   112.000000   794.960000   0.00000000         0.00 ; EQG, from cpoa, yxu, RNA
  CG3C51   CG3RC1     HGA1     5   110.100000   288.696000   0.21790000     18853.10 ; CARBOCY carbocyclic sugars
  CG3C52   CG3RC1   CG3C52     5   109.400000   468.608000   0.00000000         0.00 ; NORB, Norbornane, kevo
  CG3C52   CG3RC1   CG3RC1     5   111.000000   446.432800   0.25610000      6694.40 ; CARBOCY carbocyclic sugars
  CG3C52   CG3RC1   NG2R51     5   113.700000   585.760000   0.00000000         0.00 ; CARBOCY carbocyclic sugars
  CG3C52   CG3RC1   NG2R61     5   113.700000   585.760000   0.00000000         0.00 ; CARBOCY carbocyclic sugars
  CG3C52   CG3RC1   OG3C31     5   112.000000   794.960000   0.00000000         0.00 ; cpoa, yxu, RNA
  CG3C52   CG3RC1     HGA1     5   110.100000   288.696000   0.21790000     18853.10 ; CARBOCY carbocyclic sugars
  CG3C53   CG3RC1   CG3RC1     5   107.000000   861.904000   0.23830000     37656.00 ; EQG, yxu, RNA
  CG3C53   CG3RC1   OG3C31     5   105.800000   778.224000   0.00000000         0.00 ; EQG, yxu, RNA
  CG3C53   CG3RC1     HGA1     5   105.700000   146.440000   0.20100000     36819.20 ; EQG, yxu, RNA
  CG3RC1   CG3RC1   NG2R51     5   113.700000   585.760000   0.00000000         0.00 ; CARBOCY carbocyclic sugars
  CG3RC1   CG3RC1   NG2R53     5   113.700000   585.760000   0.00000000         0.00 ; CBHH, glycoluril, (CG3RC1 CG3RC1 NG2R51), jing
  CG3RC1   CG3RC1   NG2R61     5   113.700000   585.760000   0.00000000         0.00 ; CARBOCY carbocyclic sugars
  CG3RC1   CG3RC1   OG3C31     5    59.600000   451.872000   0.14250000      6694.40 ; EQG, yxu, RNA
  CG3RC1   CG3RC1   OG3C51     5   109.000000   418.400000   0.00000000         0.00 ; RSRF, 4,6-dioxabicyclo[3.3.0]octan-8-ol, xxwy
  CG3RC1   CG3RC1     HGA1     5   110.100000   288.696000   0.21790000     18853.10 ; CARBOCY carbocyclic sugars
  NG2R53   CG3RC1   NG2R53     5   117.000000   585.760000   0.00000000         0.00 ; CBHH, glycoluril, jing
  NG2R53   CG3RC1     HGA1     5   111.000000   493.712000   0.00000000         0.00 ; CBHH, glycoluril, (NG2R53 CG3C52 HGA2), jing
  OG3C31   CG3RC1     HGA1     5   112.500000   610.864000   0.00000000         0.00 ; EQG, yxu, RNA
  OG3C51   CG3RC1   OG3C51     5   105.000000   585.760000   0.00000000         0.00 ; RSRF, 4,6-dioxabicyclo[3.3.0]octan-8-ol, xxwy
  OG3C51   CG3RC1     HGA1     5   106.000000   460.240000   0.00000000         0.00 ; RSRF, 4,6-dioxabicyclo[3.3.0]octan-8-ol, xxwy
   CG321    NG1T1    NG1T1     5   112.750000   317.565600   0.00000000         0.00 ; AZDA, by ac_aa
   NG1T1    NG1T1    NG1T1     5   171.860000   459.235840   0.00000000         0.00 ; AZDA, by ac_aa
   CG2D1    NG2D1    CG321     5   111.000000   623.416000   0.00000000         0.00 ; EEPI, from CG2D1 NG2D1 CG331, fylin
   CG2D1    NG2D1    CG331     5   111.000000   560.656000   0.00000000         0.00 ; RETINOL SCH1, Schiff's base, deprotonated
   CG2D1    NG2D1    NG2S1     5   115.000000   836.800000   0.00000000         0.00 ; HDZ1, hydrazone model cmpd
  CG2D1O    NG2D1    CG2N2     5   107.000000   836.800000   0.00000000         0.00 ; ABSB, amide base, sr
  CG2D1O    NG2D1    CG321     5   111.000000   623.416000   0.00000000         0.00 ; from CG2D1 NG2D1 CG321, PENALTY= 3 FZN
  CG2D1O    NG2D1    CG331     5   111.000000   560.656000   0.00000000         0.00 ; from CG2D1 NG2D1 CG331, penalty= 3 FZN
  CG2D2O    NG2D1    CG2N2     5   107.000000   836.800000   0.00000000         0.00 ; ABSB, amide base, sr
  CG2D2O    NG2D1    CG321     5   111.000000   623.416000   0.00000000         0.00 ; from CG2D1 NG2D1 CG321, PENALTY= 3 FZN
  CG2D2O    NG2D1    CG331     5   111.000000   560.656000   0.00000000         0.00 ; from CG2D1 NG2D1 CG331, penalty= 3 FZN
  CG2DC1    NG2D1    CG2O1     5   119.680000   369.698240   0.00000000         0.00 ; NRQ, by ac_aa
  CG2DC1    NG2D1    CG321     5   111.000000   623.416000   0.00000000         0.00 ; from CG2D1 NG2D1 CG321, PENALTY= 0.5 IT1 IT1P LLP
  CG2DC1    NG2D1    CG331     5   111.000000   560.656000   0.00000000         0.00 ; from CG2D1 NG2D1 CG331, penalty= 0.5 LLPP
  CG2DC1    NG2D1    NG2S1     5   115.000000   836.800000   0.00000000         0.00 ; HDZ2, hydrazone model cmpd
  CG2DC1    NG2D1     HGP1     5   107.730000   553.459520   0.00000000         0.00 ; sb_ot 2021, from CG2DC2 NG2D1  HGP1
  CG2DC2    NG2D1    CG2O1     5   119.680000   369.698240   0.00000000         0.00 ; NRQ, by ac_aa
  CG2DC2    NG2D1    CG321     5   111.000000   623.416000   0.00000000         0.00 ; from CG2D1 NG2D1 CG321, PENALTY= 0.5 IT1 IT1P LLP
  CG2DC2    NG2D1    CG331     5   111.000000   560.656000   0.00000000         0.00 ; from CG2D1 NG2D1 CG331, penalty= 0.5 LLPP
  CG2DC2    NG2D1    NG2S1     5   115.000000   836.800000   0.00000000         0.00 ; HDZ2, hydrazone model cmpd
  CG2DC2    NG2D1     HGP1     5   107.730000   553.459520   0.00000000         0.00 ; sb_ot 2021, from CG2DC2 NG2D1  HGP1
   CG2N1    NG2D1    CG331     5   108.000000   418.400000   0.00000000         0.00 ; MGU1, methylguanidine
   CG2N1    NG2D1    OG301     5    99.790000   515.803520   0.00000000         0.00 ; GGB, by ac_aa
   CG2N1    NG2D1     HGP1     5   113.000000   410.032000   0.00000000         0.00 ; MGU2, methylguanidine2
   CG2N2    NG2D1    CG2O1     5   114.800000   585.760000   0.00000000         0.00 ; ABSB, amide base, sr
   CG2N2    NG2D1    CG321     5   103.800000   376.560000   0.00000000         0.00 ; MT2A, fylin, re-opt
   CG2O1    NG2D1   CG2R61     5   118.020000   753.120000   0.00000000         0.00 ; ABNB, amide base, sr
   CG2O1    NG2D1    CG321     5   105.800000   585.760000   0.00000000         0.00 ; ABMM, amide base, sr
   CG2O1    NG2D1    CG331     5   105.800000   585.760000   0.00000000         0.00 ; ABBM, amide base, sr
   CG2O6    NG2D1   CG2R64     5   105.640000   314.804160   0.00000000         0.00 ; flavin
   CG2O7    NG2D1    CG331     5   136.000000    75.312000   0.00000000         0.00 ; MICY, methyl isocyanate, xxwy
  CG2R61    NG2D1    NG2D1     5   104.800000   669.440000   0.00000000         0.00 ; (E)-1,2-di-p-tolyldiazene (fdmab, trans), Klaja et al., 2020
  CG2R64    NG2D1     HGP1     5   111.000000   485.344000   0.00000000         0.00 ; 3MCn, yxu, angsum 04/15, RNA
   OG2D1    NG2D1    SG311     5   115.330000   642.662400   0.00000000         0.00 ; SNC, by ac_aa
  CG2R61    NG2O1    OG2N1     5   116.000000   543.920000   0.00000000         0.00 ; NITB, nitrobenzene
   CG324    NG2O1    OG2N1     5   117.000000   468.608000   0.00000000         0.00 ; NIPR, nitropropane, abar
   CG334    NG2O1    OG2N1     5   120.000000   502.080000   0.00000000         0.00 ; NIME, nitromethane, abar ! we'll tolerate the angle strain in this specific case - Kenno
   OG2N1    NG2O1    OG2N1     5   128.000000   878.640000   0.00000000         0.00 ; NITB, nitrobenzene
   CG2D1    NG2P1    CG334     5   123.600000   560.656000   0.00000000         0.00 ; RETINOL SCH2, Schiff's base, protonated
   CG2D1    NG2P1     HGP2     5   118.800000   317.984000   0.00000000         0.00 ; RETINOL SCH2, Schiff's base, protonated
  CG2DC1    NG2P1    CG324     5   123.600000   560.656000   0.00000000         0.00 ; from CG2DC1 NG2P1 CG334, PENALTY= 1.7 KPI
  CG2DC1    NG2P1    CG334     5   123.600000   560.656000   0.00000000         0.00 ; RETINOL SCH2, Schiff's base, protonated
  CG2DC1    NG2P1     HGP2     5   118.800000   317.984000   0.00000000         0.00 ; RETINOL SCH2, Schiff's base, protonated
  CG2DC2    NG2P1    CG324     5   123.600000   560.656000   0.00000000         0.00 ; from CG2DC1 NG2P1 CG334, PENALTY= 1.7 KPI
  CG2DC2    NG2P1    CG334     5   123.600000   560.656000   0.00000000         0.00 ; RETINOL SCH2, Schiff's base, protonated
  CG2DC2    NG2P1     HGP2     5   118.800000   317.984000   0.00000000         0.00 ; RETINOL SCH2, Schiff's base, protonated
   CG2N1    NG2P1    CG314     5   120.000000   521.326400   0.00000000         0.00 ; from CG2N1 NG2P1 CG324, PENALTY= 0.6 AGM
   CG2N1    NG2P1    CG324     5   120.000000   521.326400   0.00000000         0.00 ; PROT 107.5->120.0 to make planar Arg (KK)
   CG2N1    NG2P1    CG334     5   120.000000   521.326400   0.00000000         0.00 ; PROT methylguanidinium, adm jr., 3/26/92
   CG2N1    NG2P1    OG301     5   101.880000   520.071200   0.00000000         0.00 ; GGBP, by ac_aa
   CG2N1    NG2P1     HGP2     5   120.000000   410.032000   0.00000000         0.00 ; PROT 35.3->49.0 GUANIDINIUM (KK)
   CG2N2    NG2P1     HGP2     5   120.000000   334.720000   0.00000000         0.00 ; AMDN, amidinium; BAMI, benzamidinium; mp2 molvib; pram
  CG2R61    NG2P1   CG2R64     5   121.400000   395.806400   0.00000000         0.00 ; K2C (model: ncyp), yxu, RNA
  CG2R61    NG2P1    CG334     5   120.000000   443.504000   0.00000000         0.00 ; K2C (model: ncyp), yxu, RNA
  CG2R61    NG2P1     HGP2     5   120.000000   393.296000   0.00000000         0.00 ; ncyp, yxu, RNA
  CG2R63    NG2P1   CG2R64     5   126.400000   418.400000   0.00000000         0.00 ; 3MC, yxu, RNA
  CG2R63    NG2P1    CG334     5   115.500000   502.080000   0.00000000         0.00 ; 3MC, yxu, RNA
  CG2R63    NG2P1     HGP2     5   118.700000   317.984000   0.00000000         0.00 ; CYTp, yxu, RNA
  CG2R64    NG2P1   CG2R64     5   125.000000   358.150400   0.26700000     65270.40 ; K2C (model: ncyp), yxu, angsum 05/15, RNA
  CG2R64    NG2P1    CG324     5   118.100000   502.080000   0.00000000         0.00 ; pncp, from 3MC, yxu, RNA
  CG2R64    NG2P1    CG334     5   118.100000   502.080000   0.00000000         0.00 ; 3MC, yxu, RNA
  CG2R64    NG2P1     HGP2     5   120.700000   334.720000   0.00000000         0.00 ; 3MC, yxu, angsum 05/15, RNA
   CG314    NG2P1     HGP2     5   120.000000   338.067200   0.00000000         0.00 ; from CG324 NG2P1 HGP2, PENALTY= 0.6 AGM
   CG324    NG2P1     HGP2     5   120.000000   338.067200   0.00000000         0.00 ; PROT 107.5->120.0 to make planar Arg (KK)
   CG334    NG2P1    CG334     5   120.640000   349.866080   0.00000000         0.00 ; DA2, by ac_aa
   CG334    NG2P1     HGP2     5   120.000000   338.067200   0.00000000         0.00 ; PROT methylguanidinium, adm jr., 3/26/92
   OG301    NG2P1     HGP2     5   104.690000   336.560960   0.00000000         0.00 ; GGBP, by ac_aa
    HGP2    NG2P1     HGP2     5   120.000000   209.200000   0.00000000         0.00 ; PROT 40.0->25.0 GUANIDINIUM (KK)
  CG2R53   NG2R43   CG3C41     5   111.500000   711.280000   0.00000000         0.00 ; AZDO, 2-azetidinone, kevo
  CG2R53   NG2R43     HGP1     5   129.700000   284.512000   0.00000000         0.00 ; AZDO, 2-azetidinone, kevo
  CG3C41   NG2R43     HGP1     5   125.300000   284.512000   0.00000000         0.00 ; AZDO, 2-azetidinone, kevo
  CG251O   NG2R50   CG2R53     5   101.000000   836.800000   0.00000000         0.00 ; from CG2R53 NG2R50 CG2R53, PENALTY= 3.5 CRQ SWG CRF CRO MDO PIA GYS CH6 CR2 DYG NRQ
  CG252O   NG2R50   CG2R53     5   101.000000   836.800000   0.00000000         0.00 ; from CG2R53 NG2R50 CG2R53, PENALTY= 3.5 CRQ SWG CRF CRO MDO PIA GYS CH6 CR2 DYG NRQ
  CG2R51   NG2R50   CG2R52     5   103.000000   485.344000   0.00000000         0.00 ; 3HPR, 3H-pyrrole, kevo
  CG2R51   NG2R50   CG2R53     5   103.500000  1087.840000   0.00000000         0.00 ; PROT his, adm jr., 6/27/90 @@@@@ Kenno: 104 --> 103.5 @@@@@
  CG2R51   NG2R50   CG2RC0     5   103.000000   502.080000   0.00000000         0.00 ; DWG, from CG2R52 NG2R50 CG2RC0, yxu, RNA
  CG2R51   NG2R50   NG2R50     5   106.800000   920.480000   0.00000000         0.00 ; OXAD, oxadiazole123 @@@@@ Kenno: 107.1 --> 106.8 @@@@@
  CG2R51   NG2R50     HGP1     5   125.500000   251.040000   0.21500000     16736.00 ; protein FF
  CG2R52   NG2R50   CG2RC0     5   103.000000   502.080000   0.00000000         0.00 ; 3HIN, 3H-indole, kevo
  CG2R52   NG2R50   CG3C52     5   102.900000   962.320000   0.00000000         0.00 ; 105.00 102.90 2HPR, 2H-pyrrole 1,1a, kevo
  CG2R52   NG2R50   NG2R51     5   103.500000  1338.880000   0.00000000         0.00 ; PYRZ, pyrazole
  CG2R52   NG2R50   NG3C51     5   105.500000  1338.880000   0.00000000         0.00 ; ~ 107.5 2PRZ, 2-pyrazoline N1-N2-C3, kevo
  CG2R52   NG2R50   OG2R50     5   103.300000  1255.200000   0.00000000         0.00 ; ISOX, isoxazole @@@@@ Kenno: 105.6 --> 103.3 @@@@@
  CG2R52   NG2R50   SG2R50     5   111.000000  1255.200000   0.00000000         0.00 ; ISOT, isothiazole
  CG2R53   NG2R50   CG2R53     5   101.000000   836.800000   0.00000000         0.00 ; TRZ4, triazole124, xxwy
  CG2R53   NG2R50   CG2RC0     5   103.800000  1004.160000   0.00000000         0.00 ; NA Gua 5R)
  CG2R53   NG2R50   CG3C52     5   101.900000  1338.880000   0.00000000         0.00 ; 101.0 ! 104.50 2IMI, 2-imidazoline C2-N3-C4 d1a, kevo
  CG2R53   NG2R50   NG2R50     5   105.900000   920.480000   0.00000000         0.00 ; TEAZ ,1H-tetrazole, pchat
  CG2R53   NG2R50   NG2R51     5   101.000000   836.800000   0.00000000         0.00 ; TRZ4, triazole124, xxwy
  CG2R53   NG2R50   OG2R50     5   103.000000   418.400000   0.00000000         0.00 ; OXD4, oxadiazole124, xxwy
  NG2R50   NG2R50   NG2R50     5   108.200000  1338.880000   0.00000000         0.00 ; etea, 5-Ethyl-1H-tetrazole, pchat
  NG2R50   NG2R50   NG2R51     5   102.200000  1338.880000   0.00000000         0.00 ; TRZ3, triazole123 @@@@@ Kenno: 101.9 --> 102.2 @@@@@
  NG2R50   NG2R50   OG2R50     5   103.000000   920.480000   0.00000000         0.00 ; OXAD, oxadiazole123 @@@@@ Kenno: 105.5 --> 103.0 @@@@@
  NG2R50   NG2R50     HGP1     5   127.000000   251.040000   0.21400000     16736.00 ; protein FF
   CG2O6   NG2R51   CG2R51     5   125.500000   251.040000   0.00000000         0.00 ; TICA model for D3R, xxwy
  CG2R51   NG2R51   CG2R51     5   109.000000   836.800000   0.00000000         0.00 ; PYRL, pyrrole
  CG2R51   NG2R51   CG2R53     5   107.500000  1087.840000   0.00000000         0.00 ; PROT his, adm jr., 6/27/90
  CG2R51   NG2R51   CG2R61     5   127.000000   334.720000   0.00000000         0.00 ; D3R set1 scaffold 1, xxwy
  CG2R51   NG2R51   CG2R64     5   128.000000   292.880000   0.00000000         0.00 ; PIPA model for D3R, xxwy
  CG2R51   NG2R51   CG2RC0     5   110.000000   711.280000   0.00000000         0.00 ; adm,dec06(112.0)INDO/TRP
  CG2R51   NG2R51    CG321     5   127.100000   585.760000   0.00000000         0.00 ; ETRZ, 1-Ethyl-1,2,3-triazole, kevo
  CG2R51   NG2R51    CG331     5   127.800000   585.760000   0.00000000         0.00 ; RCG, from G, cgenff_xyu, yxu
  CG2R51   NG2R51   CG3C51     5   126.000000  1087.840000   0.00000000         0.00 ; NA
  CG2R51   NG2R51   NG2R50     5   115.000000  1338.880000   0.00000000         0.00 ; PYRZ, pyrazole
  CG2R51   NG2R51    OG301     5   120.630000   402.249760   0.00000000         0.00 ; TOX, by ac_aa
  CG2R51   NG2R51      PG2     5   117.380000   308.946560   0.00000000         0.00 ; NEP, by ac_aa
  CG2R51   NG2R51     HGP1     5   125.500000   251.040000   0.21500000     16736.00 ; PROT his, adm jr., 6/27/90
  CG2R53   NG2R51   CG2R53     5   107.500000  1087.840000   0.00000000         0.00 ; from CG2R51 NG2R51 CG2R53, PENALTY= 2.5 CRQ SWG CRF CRO MDO PIA GYS CH6 CR2 DYG NRQ
  CG2R53   NG2R51   CG2RC0     5   107.200000   836.800000   0.00000000         0.00 ; NA Gua 5R)
  CG2R53   NG2R51    CG321     5   127.800000   585.760000   0.00000000         0.00 ; from CG2R53 NG2R51 CG331, PENALTY= 0.9 CRQ SWG CRF B2H CRO MDO PIA GYS CH6 C12 TRZ4
  CG2R53   NG2R51    CG331     5   127.800000   585.760000   0.00000000         0.00 ; NA 9-M-A, adm jr.
  CG2R53   NG2R51   CG3C51     5   126.300000   376.560000   0.00000000         0.00 ; NA G
  CG2R53   NG2R51   CG3RC1     5   127.600000   376.560000   0.00000000         0.00 ; CARBOCY carbocyclic sugars
  CG2R53   NG2R51   NG2R50     5   114.000000  1087.840000   0.00000000         0.00 ; TRZ4, triazole124, xxwy
  CG2R53   NG2R51      PG2     5   134.060000   217.735360   0.00000000         0.00 ; NEP, by ac_aa
  CG2R53   NG2R51     HGP1     5   127.000000   251.040000   0.21400000     16736.00 ; PROT his, adm jr., 6/27/90
  CG2R61   NG2R51   NG2R50     5   118.000000   334.720000   0.00000000         0.00 ; D3R set1 scaffold 1, xxwy
  CG2R64   NG2R51   NG2R50     5   117.000000   292.880000   0.00000000         0.00 ; PIPA model for D3R, xxwy
  CG2RC0   NG2R51   CG2RC0     5   110.000000   711.280000   0.00000000         0.00 ; CRBZ, carbazole, erh
  CG2RC0   NG2R51    CG331     5   125.900000   585.760000   0.00000000         0.00 ; NA 9-M-G, adm jr.
  CG2RC0   NG2R51   CG3C51     5   126.500000   376.560000   0.00000000         0.00 ; NA G
  CG2RC0   NG2R51   CG3RC1     5   126.500000   376.560000   0.00000000         0.00 ; CARBOCY carbocyclic sugars
  CG2RC0   NG2R51   NG2R50     5   114.500000  1589.920000   0.00000000         0.00 ; INDA, 1H-indazole, kevo
  CG2RC0   NG2R51    OG301     5   118.990000   405.262240   0.00000000         0.00 ; TOX, by ac_aa
  CG2RC0   NG2R51     HGP1     5   126.000000   234.304000   0.00000000         0.00 ; INDO/TRP
   CG321   NG2R51   NG2R50     5   117.900000   585.760000   0.00000000         0.00 ; ETRZ, 1-Ethyl-1,2,3-triazole, kevo
   CG331   NG2R51   NG2R50     5   118.000000   334.720000   0.00000000         0.00 ; INCA model for D3R, xxwy
  NG2R50   NG2R51   NG2R50     5   121.000000   753.120000   0.00000000         0.00 ; TRZ2, 2H-1,2,3-triazole, lf
  NG2R50   NG2R51     HGP1     5   119.500000   267.776000   0.00000000         0.00 ; PYRZ, pyrazole
  CG2R51   NG2R52   CG2R53     5   108.000000  1213.360000   0.00000000         0.00 ; PROT his, ADM JR., 7/20/89
  CG2R51   NG2R52    CG334     5   122.570000   200.497280   0.24801000     12552.00 ; MHSP, by ac_aa
  CG2R51   NG2R52     HGP2     5   124.900000   209.200000   0.21300000     12552.00 ; PROT his, adm jr., 6/27/90
  CG2R52   NG2R52   CG3C54     5   111.900000   845.168000   0.00000000         0.00 ; x 2HPP, 2H-pyrrole.H+ C5-N1-C2, kevo
  CG2R52   NG2R52     HGP2     5   123.200000   242.672000   0.00000000         0.00 ; x 2IMP, 2-imidazoline.H+; 2HPP, 2H-pyrrole.H+, kevo
  CG2R53   NG2R52   CG2RC0     5   108.000000   861.904000   0.00000000         0.00 ; 7MG, yxu, RNA
  CG2R53   NG2R52    CG334     5   126.300000   368.192000   0.24300000     19246.40 ; 7MG, yxu, RNA
  CG2R53   NG2R52   CG3C54     5   108.000000  1171.520000   0.00000000         0.00 ; 2IMP, 2-imidazoline.H+ 1,1a, kevo
  CG2R53   NG2R52     HGP2     5   127.100000   209.200000   0.20900000     12552.00 ; PROT his, adm jr., 6/27/90
  CG2RC0   NG2R52    CG334     5   124.900000   368.192000   0.00000000         0.00 ; 7MG, yxu, RNA
  CG2RC0   NG2R52     HGP2     5   126.900000   326.352000   0.00000000         0.00 ; 7MG, yxu, RNA
  CG3C54   NG2R52     HGP2     5   124.900000   242.672000   0.00000000         0.00 ; x 2IMP, 2-imidazoline.H+; 2HPP, 2H-pyrrole.H+, kevo
  CG251O   NG2R53   CG2R53     5   117.500000   970.688000   0.00000000         0.00 ; MHYO, 5-methylenehydantoin, xxwy
  CG251O   NG2R53     HGP1     5   123.000000   317.984000   0.00000000         0.00 ; MHYO, 5-methylenehydantoin, xxwy
  CG252O   NG2R53   CG2R53     5   117.500000   970.688000   0.00000000         0.00 ; MHYO, 5-methylenehydantoin, xxwy
  CG252O   NG2R53     HGP1     5   123.000000   317.984000   0.00000000         0.00 ; MHYO, 5-methylenehydantoin, xxwy
  CG2R53   NG2R53   CG2R53     5   120.500000   460.240000   0.00000000         0.00 ; MRDN, methylidene rhodanine, kevo & xxwy
  CG2R53   NG2R53   CG2RC0     5   111.000000   292.880000   0.00000000         0.00 ; MSCH model for D3R, xxwy
  CG2R53   NG2R53    CG311     5   120.000000   418.400000   0.00000000         0.00 ; drug design project, xxwy
  CG2R53   NG2R53    CG321     5   120.000000   418.400000   0.00000000         0.00 ; from CG2R53 NG2R53 CG311, penalty= 0.6 SUI 6V1
  CG2R53   NG2R53    CG331     5   124.000000   251.040000   0.00000000         0.00 ; MSCH model for D3R, xxwy
  CG2R53   NG2R53   CG3C52     5   111.000000   627.600000   0.00000000         0.00 ; 2PDO, 2-pyrrolidinone C5-N1-C2 v, kevo
  CG2R53   NG2R53   CG3RC1     5   112.000000   627.600000   0.00000000         0.00 ; CBHH, glycoluril, jing
  CG2R53   NG2R53     HGP1     5   119.500000   317.984000   0.00000000         0.00 ; 2PDO, 2-pyrrolidinone (H1-N1-C2), kevo
  CG2RC0   NG2R53    CG331     5   125.000000   251.040000   0.00000000         0.00 ; MSCH model for D3R, xxwy
  CG3C52   NG2R53     HGP1     5   116.000000   317.984000   0.00000000         0.00 ; 2PDO, 2-pyrrolidinone (C5-N1-H1), kevo
  CG3RC1   NG2R53     HGP1     5   116.000000   317.984000   0.00000000         0.00 ; CBHH, glycoluril, (CG3C52 NG2R53 HGP1), jing
  CG2R51   NG2R57   CG2R51     5   109.000000   836.800000   0.00000000         0.00 ; 13BPO, 1,3-bipyrrole; from CG2R51 NG2R51 CG2R51; lf
  CG2R51   NG2R57   CG2R57     5   125.500000   351.456000   0.00000000         0.00 ; 13BPO, 1,3-bipyrrole, lf
  CG2R51   NG2R57   NG2R57     5   125.500000   451.872000   0.00000000         0.00 ; 11BPO, 1,1-bipyrrole, lf
  CG2R61   NG2R60   CG2R61     5   112.000000   167.360000   0.00000000         0.00 ; PYRIDINE pyridine, yin
  CG2R61   NG2R60   CG2R64     5   112.000000   167.360000   0.00000000         0.00 ; 2AMP, 2-amino pyridine, from PYR1, pyridine, kevo
  CG2R61   NG2R60   CG2R67     5   109.200000   167.360000   0.00000000         0.00 ; 22BPY, 2,2'-bipyridine, kevo
  CG2R61   NG2R60     HGP1     5   114.580000   236.730720   0.00000000         0.00 ; flavin
  CG2R61   NG2R61   CG2R63     5   123.900000    83.680000   0.00000000         0.00 ; YTS2, 2,4(1H,3H)-quinazolinedithione, isg
  CG2R61   NG2R61   CG2R64     5   132.070000   576.387840   0.00000000         0.00 ; flavin
  CG2R61   NG2R61    CG321     5   117.660000   223.509280   0.00000000         0.00 ; flavin
  CG2R61   NG2R61    CG331     5   120.500000   585.760000   0.00000000         0.00 ; 34c, yxu, RNA
  CG2R61   NG2R61     HGP1     5   120.700000   276.144000   0.00000000         0.00 ; YTS2, 2,4(1H,3H)-quinazolinedithione, isg
  CG2R62   NG2R61   CG2R62     5   120.000000   251.040000   0.00000000         0.00 ; NA nad/ppi, jjp1/adm jr. 7/95
  CG2R62   NG2R61   CG2R63     5   122.000000   585.760000   0.00000000         0.00 ; NA U, adm jr. 11/97
  CG2R62   NG2R61   CG2R64     5   122.000000   585.760000   0.00000000         0.00 ; 1PC, from CG2R62 NG2R61 CG2R63, yxu, RNA
  CG2R62   NG2R61    CG331     5   120.500000   585.760000   0.00000000         0.00 ; NA 1-M-C, adm jr. 7/24/91
  CG2R62   NG2R61   CG3C51     5   118.400000   376.560000   0.00000000         0.00 ; CARBOCY carbocyclic sugars
  CG2R62   NG2R61   CG3C53     5   118.400000   376.560000   0.00000000         0.00 ; CARBOCY carbocyclic sugars
  CG2R62   NG2R61   CG3RC1     5   115.900000   376.560000   0.00000000         0.00 ; CARBOCY carbocyclic sugars
  CG2R62   NG2R61     HGP1     5   117.400000   267.776000   0.00000000         0.00 ; NA nad/ppi, jjp1/adm jr. 7/95
  CG2R62   NG2R61     HGP2     5   117.400000   267.776000   0.00000000         0.00 ; NA nad/ppi, jjp1/adm jr. 7/95
  CG2R63   NG2R61   CG2R63     5   130.200000   418.400000   0.00000000         0.00 ; NA U
  CG2R63   NG2R61   CG2R64     5   131.100000   585.760000   0.00000000         0.00 ; NA Gua 6R)G, adm jr. 11/97
  CG2R63   NG2R61    CG321     5   115.400000   585.760000   0.00000000         0.00 ; 3AU, from CG2R63 NG2R61 CG331, yxu, RNA
  CG2R63   NG2R61    CG331     5   115.400000   585.760000   0.00000000         0.00 ; NA 1-M-C, adm jr.
  CG2R63   NG2R61   CG3C51     5   118.400000   376.560000   0.00000000         0.00 ; CARBOCY carbocyclic sugars
  CG2R63   NG2R61   CG3RC1     5   120.000000   376.560000   0.00000000         0.00 ; CARBOCY carbocyclic sugars
  CG2R63   NG2R61     HGP1     5   115.400000   338.904000   0.00000000         0.00 ; NA U
  CG2R64   NG2R61   CG2R64     5   131.100000   585.760000   0.00000000         0.00 ; 1MAn, from CG2R63 NG2R61 CG2R64, yxu, RNA
  CG2R64   NG2R61    CG321     5   114.870000   537.811360   0.00000000         0.00 ; flavin
  CG2R64   NG2R61    CG331     5   115.400000   418.400000   0.00000000         0.00 ; 3MCn, yxu, RNA
  CG2R64   NG2R61     HGP1     5   115.600000   376.560000   0.00000000         0.00 ; NA Gua
  CG2RC0   NG2R61   CG2RC0     5   120.000000   251.040000   0.00000000         0.00 ; DWG, from CG2R62 NG2R61 CG2R62, yxu, RNA
  CG2RC0   NG2R61    CG331     5   120.500000   200.832000   0.00000000         0.00 ; MWG, yxu, RNA
  CG2RC0   NG2R61     HGP1     5   117.400000   267.776000   0.00000000         0.00 ; DWG, from CG2R62 NG2R61 HGP1, yxu, RNA
  CG2R61   NG2R62   CG2R64     5   110.500000   334.720000   0.00000000         0.00 ; PYRM, pyrimidine %%% TEST 108.0 -> 113.4 %%%
  CG2R61   NG2R62   NG2R62     5   120.000000    83.680000   0.00000000         0.00 ; PYRD, pyridazine
  CG2R62   NG2R62   CG2R62     5   114.100000   209.200000   0.00000000         0.00 ; PYRH , from CG2R62 NG2R62 CG2R64, fylin
  CG2R62   NG2R62   CG2R63     5   110.500000   334.720000   0.00000000         0.00 ; 5fop, from CG2R61 NG2R62 CG2R64, not optimized, yxu, RNA
  CG2R62   NG2R62   CG2R64     5   115.500000   585.760000   0.00000000         0.00 ; TC243C, 4(3H)-quinazolinone, isg
  CG2R63   NG2R62   CG2R64     5   119.100000   711.280000   0.00000000         0.00 ; NA C
  CG2R64   NG2R62   CG2R64     5   117.800000   753.120000   0.00000000         0.00 ; NA Ade 6R) adm jr. 11/97
  CG2R64   NG2R62   CG2RC0     5   115.100000   753.120000   0.00000000         0.00 ; NA Ade 6R) %%% TEST 110.1 -> 120.9 %%%
  CG2R64   NG2R62   NG2R62     5   121.000000   543.920000   0.00000000         0.00 ; TRIB, triazine124
  CG2R62   NG2R67   CG2R62     5   120.000000   251.040000   0.00000000         0.00 ; 1PH4PO, 1-phenyl-4(1H)-pyridinone; from CG2R62 NG2R61 CG2R62; isg
  CG2R62   NG2R67   CG2R63     5   128.700000   585.760000   0.00000000         0.00 ; 1PH2PO, 1-phenyl-2(1H)-pyridinone; from CG2R61 NG2R61 CG2R63; isg
  CG2R62   NG2R67   CG2R67     5   120.000000   435.136000   0.00000000         0.00 ; 1PH4PO, 1-phenyl-4(1H)-pyridinone, isg
  CG2R63   NG2R67   CG2R63     5   128.700000   418.400000   0.00000000         0.00 ; 3PHURA, 3-phenyl-2,4(1H,3H)-pyrimidinedione; from CG2R63 NG2R61 CG2R63, NA; isg
  CG2R63   NG2R67   CG2R64     5   126.100000   585.760000   0.00000000         0.00 ; 43PPY, 3-phenyl-4(3H)-pyrimidinone; from CG2R63 NG2R61 CG2R64; isg
  CG2R63   NG2R67   CG2R67     5   111.300000   276.144000   0.00000000         0.00 ; 1PH2PO, 1-phenyl-2(1H)-pyridinone; from CG2R62 NG2R61 CG2R63; isg
  CG2R64   NG2R67   CG2R67     5   121.000000   460.240000   0.00000000         0.00 ; 43PPY, 3-phenyl-4(3H)-pyrimidinone; from CG2R63 NG2R61 CG2R64; isg
  CG2R51   NG2RC0   CG2R61     5   130.500000   125.520000   0.00000000         0.00 ; INDZ, indolizine, kevo
  CG2R51   NG2RC0   CG2R63     5   122.500000   460.240000   0.00000000         0.00 ; DWG, yxu, RNA
  CG2R51   NG2RC0   CG2RC0     5   109.700000   836.800000   0.00000000         0.00 ; INDZ, indolizine, kevo
  CG2R61   NG2RC0   CG2RC0     5   119.800000   125.520000   0.00000000         0.00 ; INDZ, indolizine, kevo
  CG2R63   NG2RC0   CG2RC0     5   127.800000   502.080000   0.00000000         0.00 ; DWG, yxu, RNA
   CG2O1    NG2S0   CG2R61     5   120.000000   418.400000   0.00000000         0.00 ; fentanyl, Lesnik et al, 2020
   CG2O1    NG2S0   CG2R64     5   118.000000   502.080000   0.00000000         0.00 ; m6pa, yxu, angsum 04/15, RNA
   CG2O1    NG2S0    CG311     5   119.500000   351.456000   0.00000000         0.00 ; MAA
   CG2O1    NG2S0    CG321     5   119.500000   351.456000   0.00000000         0.00 ; from CG2O1 NG2S0 CG331, PENALTY= 0.9 I4G FHO
   CG2O1    NG2S0    CG331     5   119.500000   351.456000   0.00000000         0.00 ; DMF, Dimethylformamide, xxwy
   CG2O1    NG2S0   CG3C50     5   117.000000   502.080000   0.00000000         0.00 ; from CG2O1 NG2S0 CG3C51, sm140
   CG2O1    NG2S0   CG3C51     5   117.000000   502.080000   0.00000000         0.00 ; PROT AcProNH2, ProNH2, AcProNHCH3 RLD 4/23/93
   CG2O1    NG2S0   CG3C52     5   117.000000   502.080000   0.00000000         0.00 ; PROT AcProNH2, ProNH2, AcProNHCH3 RLD 4/23/93
   CG2O1    NG2S0    OG311     5   101.450000   399.823040   0.00000000         0.00 ; FHO, by ac_aa
   CG2O6    NG2S0   CG2R61     5   115.000000   502.080000   0.00000000         0.00 ; dmpu, from m6pa, yxu, RNA
   CG2O6    NG2S0   CG2R64     5   118.000000   502.080000   0.00000000         0.00 ; 66A, from m6pa CG2R64 NG2S0  CG2O1, yxu, angsum 04/15, RNA
   CG2O6    NG2S0    CG321     5   117.000000   330.536000   0.00000000         0.00 ; H2U, yxu, 21/2/14, RNA
   CG2O6    NG2S0    CG331     5   116.000000   317.984000   0.00000000         0.00 ; H2U, yxu, angsum 04/15, RNA
  CG2R61    NG2S0    CG311     5   119.500000   351.456000   0.00000000         0.00 ; fentanyl, Lesnik et al, 2020
  CG2R61    NG2S0    CG331     5   115.500000   376.560000   0.00000000         0.00 ; dmpu, from m6pa, yxu, RNA
  CG2R64    NG2S0    CG331     5   117.500000   376.560000   0.00000000         0.00 ; 66A (m6pa), yxu, angsum 04/15, RNA
   CG311    NG2S0    CG331     5   121.000000   376.560000   0.00000000         0.00 ; from CG331 NG2S0 CG331, PENALTY= 1.5 MAA
   CG321    NG2S0    CG321     5   121.000000   376.560000   0.00000000         0.00 ; from CG331 NG2S0 CG331, PENALTY= 1.8 I4G
   CG321    NG2S0    CG331     5   121.000000   334.720000   0.00000000         0.00 ; H2U, yxu, RNA
   CG321    NG2S0    OG311     5   101.750000   322.753760   0.00000000         0.00 ; FHO, by ac_aa
   CG331    NG2S0    CG331     5   121.000000   376.560000   0.00000000         0.00 ; DMF, Dimethylformamide, xxwy
  CG3C50    NG2S0   CG3C52     5   114.200000   836.800000   0.00000000         0.00 ; from CG3C51 NG2S0 CG3C52, PENALTY= 0.8 PXU
  CG3C51    NG2S0   CG3C52     5   114.200000   836.800000   0.00000000         0.00 ; PROT AcProNH2, ProNH2, AcProNHCH3 RLD 4/23/93
  CG2D1O    NG2S1    CG2O1     5   120.490000   360.911840   0.00000000         0.00 ; DYAP, by ac_aa
  CG2D1O    NG2S1     HGP1     5   121.530000   251.458400   0.00000000         0.00 ; DYAP, by ac_aa
  CG2D2O    NG2S1    CG2O1     5   120.490000   360.911840   0.00000000         0.00 ; DYAP, by ac_aa
  CG2D2O    NG2S1     HGP1     5   121.530000   251.458400   0.00000000         0.00 ; DYAP, by ac_aa
   CG2O1    NG2S1    CG2O6     5   124.600000   391.622400   0.00000000         0.00 ; H2U, yxu, angsum 04/15, RNA
   CG2O1    NG2S1   CG2R61     5   120.000000   418.400000   0.00000000         0.00 ; RESI PACP, FRET AND OTHERS
   CG2O1    NG2S1   CG2R64     5   120.000000   418.400000   0.00000000         0.00 ; 2AMP, 2-amino pyridine, from PACP, p-acetamide-phenol, pyridine, kevo
   CG2O1    NG2S1    CG311     5   120.000000   418.400000   0.00000000         0.00 ; PROT NMA Vib Modes (LK)
   CG2O1    NG2S1    CG321     5   120.000000   418.400000   0.00000000         0.00 ; PROT NMA Vib Modes (LK)
   CG2O1    NG2S1    CG331     5   120.000000   418.400000   0.00000000         0.00 ; PROT NMA Vib Modes (LK)
   CG2O1    NG2S1   CG3C51     5   120.000000   418.400000   0.00000000         0.00 ; from CG2O1 NG2S1 CG321, penalty= 10 SUI
   CG2O1    NG2S1    NG2D1     5   115.000000   418.400000   0.00000000         0.00 ; HDZ1, hydrazone model cmpd
   CG2O1    NG2S1    OG311     5   105.860000   456.223360   0.00000000         0.00 ; HGA, by ac_aa
   CG2O1    NG2S1     HGP1     5   123.000000   284.512000   0.00000000         0.00 ; PROT NMA Vib Modes (LK)
   CG2O3    NG2S1    CG311     5   120.000000   418.400000   0.00000000         0.00 ; from CG2O1 NG2S1 CG311, PENALTY= 7.5 CXM
   CG2O3    NG2S1    CG321     5   120.000000   418.400000   0.00000000         0.00 ; from CG2O1 NG2S1 CG321, penalty= 7.5 KCX
   CG2O3    NG2S1     HGP1     5   123.000000   284.512000   0.00000000         0.00 ; from CG2O1 NG2S1 HGP1, penalty= 7.5 KCX CXM
   CG2O6    NG2S1   CG2R61     5   119.000000   418.400000   0.00000000         0.00 ; mpyu, yxu, RNA
   CG2O6    NG2S1   CG2R64     5   119.000000   418.400000   0.00000000         0.00 ; HNA, from mpyu CG2R61 NG2S1  CG2O6, yxu, RNA
   CG2O6    NG2S1    CG311     5   120.000000   502.080000   0.00000000         0.00 ; HNA, from CG2O6 NG2S1 CG321, yxu, RNA
   CG2O6    NG2S1    CG321     5   120.000000   502.080000   0.00000000         0.00 ; DECB, diehtyl carbamate, from DMCB, cacha & kevo & xxwy
   CG2O6    NG2S1    CG331     5   120.000000   502.080000   0.00000000         0.00 ; DMCB & DECB, dimethyl & diehtyl carbamate, cacha & kevo & xxwy
   CG2O6    NG2S1     HGP1     5   121.500000   334.720000   0.00000000         0.00 ; DMCB & DECB, dimethyl & diehtyl carbamate, cacha & kevo & xxwy
  CG2R61    NG2S1     HGP1     5   117.000000   284.512000   0.00000000         0.00 ; RESI PACP, FRET AND OTHERS
  CG2R64    NG2S1     HGP1     5   117.000000   284.512000   0.00000000         0.00 ; 2AMP, 2-amino pyridine, from PACP, p-acetamide-phenol, pyridine, kevo
   CG311    NG2S1     HGP1     5   117.000000   292.880000   0.00000000         0.00 ; PROT NMA Vibrational Modes (LK)
   CG321    NG2S1     HGP1     5   117.000000   292.880000   0.00000000         0.00 ; PROT NMA Vibrational Modes (LK)
   CG331    NG2S1     HGP1     5   117.000000   292.880000   0.00000000         0.00 ; PROT NMA Vibrational Modes (LK)
  CG3C51    NG2S1     HGP1     5   117.000000   292.880000   0.00000000         0.00 ; from CG321 NG2S1 HGP1, PENALTY= 10 SUI
   NG2D1    NG2S1     HGP1     5   122.000000   284.512000   0.00000000         0.00 ; HDZ1, hydrazone model cmpd
   OG311    NG2S1     HGP1     5    98.230000   313.800000   0.00000000         0.00 ; HGA, by ac_aa
   CG2O1    NG2S2     HGP1     5   120.000000   418.400000   0.00000000         0.00 ; PROT his, adm jr. 8/13/90  geometry and vibrations
   CG2O6    NG2S2     HGP1     5   120.000000   418.400000   0.00000000         0.00 ; PROT his, adm jr. 8/13/90  geometry and vibrations NOW UREA ==> re-optimize???
    HGP1    NG2S2     HGP1     5   120.000000   192.464000   0.00000000         0.00 ; PROT adm jr. 8/13/90  geometry and vibrations
  CG2R61    NG2S3     HGP4     5   111.600000   502.080000   0.00000000         0.00 ; PYRIDINE aminopyridine, adm jr., 7/94 kevo: 120 --> 111.6
  CG2R64    NG2S3    CG331     5   120.000000   418.400000   0.00000000         0.00 ; 2-amino pyridine
  CG2R64    NG2S3     HGP4     5   121.500000   334.720000   0.00000000         0.00 ; NA Ade h61,h62, C,A,G
   CG321    NG2S3      PG1     5   118.300000   920.480000   0.23300000     29288.00 ; from CG331 NG2S3 PG1, PENALTY= 0.9 APK GPL
   CG321    NG2S3    SG3O1     5   104.900000   491.201600   0.00000000         0.00 ; NESM, N-ethyl-sulfamate, my & kevo
   CG321    NG2S3     HGP1     5   109.500000   433.462400   0.00000000         0.00 ; NESM, N-ethyl-sulfamate, my & kevo
   CG331    NG2S3    CG331     5   114.290000   407.437920   0.00000000         0.00 ; SUN SEN, by ac_aa
   CG331    NG2S3      PG0     5   118.300000   920.480000   0.23300000     29288.00 ; from CG331 NG2S3 PG1, PENALTY= 2 SUN
   CG331    NG2S3      PG1     5   118.300000   920.480000   0.23300000     29288.00 ; NABAKB phosphoramidates
   CG331    NG2S3    SG3O1     5   103.100000   330.536000   0.00000000         0.00 ; NMSM, N-methyl-sulfamate, my
   CG331    NG2S3     HGP1     5   109.000000   292.880000   0.00000000         0.00 ; NABAKB phosphoramidates
  CG3C51    NG2S3      PG1     5   118.300000   920.480000   0.23300000     29288.00 ; NABAKB phosphoramidates
  CG3C51    NG2S3     HGP1     5   109.000000   292.880000   0.00000000         0.00 ; NABAKB  phosphoramidates
     PG1    NG2S3     HGP1     5   123.600000   251.040000   0.23500000     33472.00 ; NABAKB phosphoramidates
   SG3O1    NG2S3     HGP1     5   113.100000   393.296000   0.00000000         0.00 ; NMSM, N-methyl-sulfamate, my
    HGP1    NG2S3     HGP1     5   117.000000   259.408000   0.00000000         0.00 ; from HGP4 NG2S3 HGP4, PENALTY= 1 SVV
    HGP4    NG2S3     HGP4     5   117.000000   259.408000   0.00000000         0.00 ; NA Ade C,A,G
  CG2D1O    NG301   CG2D1O     5   114.000000   167.360000   0.00000000         0.00 ; NADH, NDPH; Kenno: reverted to nadh/ppi, jjp1/adm jr. 7/95
  CG2D1O    NG301   CG3C51     5   121.700000   585.760000   0.00000000         0.00 ; NADH, NDPH; Kenno: reverted to nad/ppi, jjp1/adm jr. 7/95
  CG2D2O    NG301   CG2D2O     5   114.000000   167.360000   0.00000000         0.00 ; NADH, NDPH; Kenno: reverted to nadh/ppi, jjp1/adm jr. 7/95
  CG2D2O    NG301   CG3C51     5   121.700000   585.760000   0.00000000         0.00 ; NADH, NDPH; Kenno: reverted to nad/ppi, jjp1/adm jr. 7/95
  CG2R61    NG301   CG2R64     5   107.730000   396.224800   0.00000000         0.00 ; flavin
  CG2R61    NG301    CG321     5   114.000000   473.712480   0.00000000         0.00 ; flavin
  CG2R61    NG301    CG331     5   113.500000   401.664000   0.00000000         0.00 ; TMC, trimethylcytosine, yxu; DMAN, N,N-dimethylaniline, kevo
  CG2R64    NG301    CG321     5   111.390000   295.055680   0.00000000         0.00 ; flavin
  CG2R64    NG301    CG331     5   113.500000   401.664000   0.00000000         0.00 ; TMC, trimethylcytosine, yxu
   CG321    NG301    CG321     5   112.000000   585.760000   0.00000000         0.00 ; TSPD model for D3R, xxwy
   CG321    NG301    SG3O2     5   111.000000   292.880000   0.00000000         0.00 ; TSPD model for D3R, xxwy
   CG331    NG301    CG331     5   116.000000   355.640000   0.00000000         0.00 ; TMC, trimethylcytosine, yxu; DMAN, N,N-dimethylaniline, kevo
  CG3AM0    NG301   CG3AM0     5   110.900000   443.504000   0.00000000         0.00 ; AMINE aliphatic amines
  CG2D1O    NG311   CG2D1O     5   114.000000   167.360000   0.00000000         0.00 ; NICH; Kenno: reverted to nad/ppi, jjp1/adm jr. 7/95
  CG2D1O    NG311   HGPAM1     5   123.000000   326.352000   0.00000000         0.00 ; NICH; Kenno: reverted to nad/ppi, jjp1/adm jr. 7/95
  CG2D2O    NG311   CG2D2O     5   114.000000   167.360000   0.00000000         0.00 ; NICH; Kenno: reverted to nad/ppi, jjp1/adm jr. 7/95
  CG2D2O    NG311   HGPAM1     5   123.000000   326.352000   0.00000000         0.00 ; NICH; Kenno: reverted to nad/ppi, jjp1/adm jr. 7/95
   CG2N1    NG311    CG331     5   106.000000   359.824000   0.00000000         0.00 ; MGU2, methylguanidine2
   CG2N1    NG311   HGPAM1     5   106.000000   376.560000   0.00000000         0.00 ; MGU2, methylguanidine2 Kenno: 104 -> 106
  CG2R61    NG311   CG2R61     5   109.000000   334.720000   0.00000000         0.00 ; FEOZ, phenoxazine, erh
  CG2R61    NG311   CG2R62     5   114.440000   291.039040   0.00000000         0.00 ; flavin
  CG2R61    NG311    CG321     5   113.000000   460.240000   0.00000000         0.00 ; OBTZ, 1,1-dioxo-3,4-dihydro-2H-1,2,4-benzothiadiazine, xxwy
  CG2R61    NG311    SG3O2     5   115.000000   292.880000   0.00000000         0.00 ; PMSM, N-phenylmethanesulfonamide; PBSM, N-phenylbenzenesulfonamide; xxwy
  CG2R61    NG311     HGP1     5   114.000000   334.720000   0.00000000         0.00 ; PMSM, N-phenylmethanesulfonamide; PBSM, N-phenylbenzenesulfonamide; xxwy
  CG2R61    NG311   HGPAM1     5   115.000000   376.560000   0.00000000         0.00 ; FEOZ, phenoxazine, erh
  CG2R62    NG311   HGPAM1     5   111.490000   367.271520   0.00000000         0.00 ; flavin
  CG2R64    NG311    CG321     5   114.000000   384.928000   0.00000000         0.00 ; K2Cn, from 4MC, yxu, RNA
  CG2R64    NG311    CG331     5   114.000000   384.928000   0.00000000         0.00 ; 4MC, yxu  ###ang small, but N is not always in planar geometry, RNA
  CG2R64    NG311   HGPAM1     5   113.500000   364.008000   0.00000000         0.00 ; 4MC, yxu, RNA
   CG314    NG311    CG321     5   109.950000   355.891040   0.00000000         0.00 ; from CG314 NG311 CG331, AGT
   CG314    NG311    CG331     5   109.950000   355.891040   0.00000000         0.00 ; AGT, by ac_aa
   CG314    NG311   HGPAM1     5   111.880000   351.204960   0.20127000      4184.00 ; AGT, by ac_aa
   CG321    NG311    CG321     5   109.600000   338.904000   0.00000000         0.00 ; 5UHG, from nmgn, cgenff_compromise, kevo
   CG321    NG311    CG331     5   112.200000   401.664000   0.23500000     31798.40 ; nmgn, yxu, RNA
   CG321    NG311   CG3C51     5   111.000000   585.760000   0.23100000     33472.00 ; 7GNM (cena), yxu, RNA
   CG321    NG311    SG3O2     5   115.000000   502.080000   0.00000000         0.00 ; EESM, N-ethylethanesulfonamide, xxwy
   CG321    NG311     HGP1     5   111.000000   384.928000   0.00000000         0.00 ; EESM, N-ethylethanesulfonamide, xxwy
   CG321    NG311   HGPAM1     5   111.000000   292.880000   0.00000000         0.00 ; compromise between PEI0 on the one hand and OBTZ AOBT on the other hand, kevo & xxwy
   CG331    NG311   CG3C51     5   112.200000   753.120000   0.23600000     29288.00 ; cona, from cena, yxu, RNA
   CG331    NG311    SG3O2     5   114.000000   569.024000   0.00000000         0.00 ; MMSM, N-methylmethanesulfonamide; MBSM, N-methylbenzenesulfonamide; xxwy
   CG331    NG311     HGP1     5   111.500000   353.966400   0.00000000         0.00 ; MMSM, N-methylmethanesulfonamide; MBSM, N-methylbenzenesulfonamide; xxwy
   CG331    NG311   HGPAM1     5   104.000000   376.560000   0.00000000         0.00 ; MGU2, methylguanidine2
  CG3AM1    NG311   CG3AM1     5   112.200000   338.904000   0.24217000      4184.00 ; AMINE aliphatic amines
  CG3AM1    NG311   HGPAM1     5   108.900000   352.292800   0.20292000      4184.00 ; AMINE aliphatic amines
  CG3C51    NG311   HGPAM1     5   111.000000   418.400000   0.00000000         0.00 ; 7GNM (cena), yxu, RNA
   SG3O2    NG311     HGP1     5   113.200000   353.966400   0.00000000         0.00 ; MMSM, N-methylmethanesulfonamide and other sulfonamides, xxwy
  CG2D1O    NG321   HGPAM2     5   113.000000   460.240000   0.00000000         0.00 ; AMET, ethenamine; mp2-geom, molvib; pram & kevo
  CG2D2O    NG321   HGPAM2     5   113.000000   460.240000   0.00000000         0.00 ; AMET, ethenamine; mp2-geom, molvib; pram & kevo
   CG2N1    NG321   HGPAM2     5   108.000000   460.240000   0.00000000         0.00 ; MGU1, methylguanidine
   CG2N2    NG321   HGPAM2     5   115.800000   418.400000   0.00000000         0.00 ; MT2A, fylin
   CG311    NG321   HGPAM2     5   112.100000   343.088000   0.00000000         0.00 ; 5UHA, from CG321  NG321  HGPAM2, cgenff_xyu, yxu, RNA
   CG321    NG321   HGPAM2     5   112.100000   343.088000   0.00000000         0.00 ; AMINE aliphatic amines
  CG3AM2    NG321   HGPAM2     5   112.100000   343.088000   0.00000000         0.00 ; AMINE aliphatic amines
  CG3C51    NG321   HGPAM2     5   112.100000   343.088000   0.00000000         0.00 ; AMINE aliphatic amines
   OG301    NG321     HGP1     5   102.370000   496.138720   0.00000000         0.00 ; CAN, by ac_aa
   SG3O2    NG321     HGP1     5   115.000000   410.032000   0.00000000         0.00 ; MSAM, methanesulfonamide; BSAM, benzenesulfonamide; xxwy
    HGP1    NG321     HGP1     5   110.000000   317.984000   0.00000000         0.00 ; MSAM, methanesulfonamide; BSAM, benzenesulfonamide; xxwy
  HGPAM2    NG321   HGPAM2     5   105.850000   351.456000   0.00000000         0.00 ; AMINE aliphatic amines kevo: 29.50 -> 42.00 based on MAM1 molvib & AMET scans
  HGPAM3    NG331   HGPAM3     5   107.100000   347.272000   0.00000000         0.00 ; AMINE aliphatic amines kevo: 29.00 -> 41.50 based on MAM1 molvib & AMET scans
  CG2R51   NG3C51   CG3C52     5   104.800000   376.560000   0.00000000         0.00 ; 2PRL, 2-pyrroline, kevo
  CG2R51   NG3C51     HGP1     5   113.900000   359.824000   0.00000000         0.00 ; 2PRL, 2-pyrroline, kevo
  CG2R53   NG3C51   CG3C52     5   107.000000   334.720000   0.00000000         0.00 ; x 104.60 77 2IMI, 2-imidazoline C5-N1-C2 d1, kevo
  CG2R53   NG3C51     HGP1     5   115.600000   359.824000   0.00000000         0.00 ; ~ 117.7 ! 112.5 ! 30 116.5 2IMI, 2-imidazoline H1-N1-C2, kevo
  CG2RC0   NG3C51   CG3C52     5   106.900000   502.080000   0.00000000         0.00 ; INDI, indoline, kevo
  CG2RC0   NG3C51     HGP1     5   114.500000   343.088000   0.00000000         0.00 ; INDI, indoline, kevo
   CG321   NG3C51   CG3C51     5   110.010000   380.409280   0.00000000         0.00 ; PR4, by ac_aa
   CG321   NG3C51   CG3C52     5   113.250000   588.103040   0.00000000         0.00 ; PR4, by ac_aa
   CG331   NG3C51   CG3C51     5   110.010000   380.409280   0.00000000         0.00 ; from CG321 NG3C51 CG3C51, sm136
   CG331   NG3C51   CG3C52     5   113.250000   588.103040   0.00000000         0.00 ; from CG321 NG3C51 CG3C52, sm136
  CG3C50   NG3C51   CG3C50     5   103.700000  1171.520000   0.00000000         0.00 ; from CG3C52 NG3C51 CG3C52, PENALTY= 2.4 R1A
  CG3C50   NG3C51    OG312     5   109.570000   481.662080   0.00000000         0.00 ; R1A, by ac_aa
  CG3C51   NG3C51   CG3C52     5   103.700000  1171.520000   0.00000000         0.00 ; from CG3C52 NG3C51 CG3C52, PENALTY= 0.4 PR4
  CG3C51   NG3C51   OG3C51     5   101.450000  1099.136800   0.00000000         0.00 ; 143, by ac_aa
  CG3C51   NG3C51     HGP1     5   112.000000   359.824000   0.00000000         0.00 ; from CG3C52 NG3C51 HGP1, penalty= 0.4 143 5CS
  CG3C52   NG3C51   CG3C52     5   103.700000  1171.520000   0.00000000         0.00 ; v 102.9 PRLD, pyrrolidine; 105.4 3PRL, 3-pyrroline, kevo
  CG3C52   NG3C51   CG3C54     5   104.100000   560.656000   0.00000000         0.00 ; IMDP, imidazolidine, erh and kevo
  CG3C52   NG3C51   NG2R50     5   109.000000   393.296000   0.00000000         0.00 ; ~ 107.5 2PRZ, 2-pyrazoline C5-N1-N2, kevo
  CG3C52   NG3C51    NG3P2     5   103.900000   393.296000   0.00000000         0.00 ; PRZP, Pyrazolidine.H+, kevo
  CG3C52   NG3C51    OG312     5   102.420000   393.965440   0.00000000         0.00 ; R1A, by ac_aa1
  CG3C52   NG3C51   OG3C51     5    99.860000   845.168000   0.00000000         0.00 ; 143, by ac_aa
  CG3C52   NG3C51     HGP1     5   112.000000   359.824000   0.00000000         0.00 ; x 108 PRLD, pyrrolidine; 113 2PRL, 2-pyrroline; 106(v) 3PRL, 3-pyrroline; 117 2IMI, 2-imidazoline; 2PRZ, 2-pyrazoline, kevo
  CG3C54   NG3C51     HGP1     5   109.250000   418.400000   0.00000000         0.00 ; IMDP, imidazolidine, erh and kevo
  NG2R50   NG3C51     HGP1     5   103.600000   418.400000   0.00000000         0.00 ; ~ 104.9 2PRZ, 2-pyrazoline, kevo
   NG3P2   NG3C51     HGP1     5   100.600000   468.608000   0.00000000         0.00 ; PRZP, Pyrazolidine.H+, kevo
  OG3C51   NG3C51     HGP1     5   103.640000   545.677280   0.00000000         0.00 ; 143, by ac_aa
  CG2R61    NG3N1    NG3N1     5   112.000000   502.080000   0.00000000         0.00 ; PHHZ, phenylhydrazine, decrease angle to make HN become out of plane, ed
  CG2R61    NG3N1     HGP1     5   115.000000   435.136000   0.00000000         0.00 ; PHHZ, phenylhydrazine, decrease angle to make HN become out of plane, ed
   NG3N1    NG3N1     HGP1     5   102.000000   460.240000   0.00000000         0.00 ; HDZN, hydrazine, ed
    HGP1    NG3N1     HGP1     5   102.000000   418.400000   0.00000000         0.00 ; HDZN, hydrazine, ed
   CG314    NG3P0    CG334     5   109.500000   502.080000   0.24660000     21756.80 ; from CG324 NG3P0 CG334, PENALTY= 0.6 DDE DDEP
   CG324    NG3P0    CG324     5   109.500000   502.080000   0.24660000     21756.80 ; LIPID tetraethylammonium, from CG334  NG3P0  CG324
   CG324    NG3P0    CG334     5   109.500000   502.080000   0.24660000     21756.80 ; LIPID tetramethylammonium
   CG334    NG3P0    CG334     5   109.500000   502.080000   0.24660000     21756.80 ; LIPID tetramethylammonium
   CG334    NG3P0    OG311     5   100.000000   577.392000   0.00000000         0.00 ; TMAOP, Hydroxy(trimethyl)Ammonium, xxwy
   CG334    NG3P0    OG312     5   112.000000   669.440000   0.00000000         0.00 ; TMAO, trimethylamine N-oxide, xxwy & ejd
   CG324    NG3P1    CG324     5   115.200000   376.560000   0.00000000         0.00 ; FLAVOP PIP1,2,3 ! tweaked 115.50 --> 115.20 by kevo
   CG324    NG3P1    CG334     5   109.500000   376.560000   0.00000000         0.00 ; FLAVOP PIP1,2,3
   CG324    NG3P1     HGP2     5   110.800000   251.040000   0.20740000     22593.60 ; FLAVOP PIP1,2,3
   CG334    NG3P1    CG334     5   109.500000   376.560000   0.00000000         0.00 ; nc3 , fylin/kenno
   CG334    NG3P1     HGP2     5   110.800000   251.040000   0.20740000     22593.60 ; FLAVOP PIP1,2,3
  CG2R51    NG3P2   CG3C54     5   107.000000   711.280000   0.00000000         0.00 ; 2PRP, 2-pyrroline.H+, kevo
  CG2R51    NG3P2     HGP2     5   112.000000   317.984000   0.00000000         0.00 ; 2PRP, 2-pyrroline.H+, kevo
   CG314    NG3P2    CG324     5   115.200000   376.560000   0.00000000         0.00 ; 2MRB, Alpha benzyl gamma 2-methyl piperidine, cacha ! tweaked 115.50 --> 115.20 by kevo
   CG314    NG3P2     HGP2     5   110.800000   251.040000   0.20740000     22593.60 ; 2MRB, Alpha benzyl gamma 2-methyl piperidine, cacha
   CG324    NG3P2    CG324     5   115.200000   334.720000   0.00000000         0.00 ; PIP, piperidine ! tweaked 115.50 --> 115.20 by kevo
   CG324    NG3P2    CG334     5   115.200000   418.400000   0.00000000         0.00 ; 5AU, yxu, RNA
   CG324    NG3P2   CG3C53     5   115.200000   384.928000   0.00000000         0.00 ; QUG, yxu, RNA
   CG324    NG3P2     HGP2     5   110.800000   251.040000   0.20740000     22593.60 ; PIP, piperidine
   CG334    NG3P2    CG334     5   115.200000   334.720000   0.00000000         0.00 ; nc2 , fylin/kenno
   CG334    NG3P2   CG3C53     5   115.200000   384.928000   0.00000000         0.00 ; ponm, from pnpa, yxu, RNA
   CG334    NG3P2     HGP2     5   110.800000   251.040000   0.20740000     22593.60 ; nc2 , fylin/kenno
  CG3C53    NG3P2   CG3C54     5   111.000000   836.800000   0.00000000         0.00 ; PROT AcProNH2, ProNH2, AcProNHCH3 RLD 4/23/93
  CG3C53    NG3P2     HGP2     5   109.500000   276.144000   0.20560000      3347.20 ; PROT AcProNH2, ProNH2, AcProNHCH3 RLD 4/23/93
  CG3C54    NG3P2   CG3C54     5   113.000000   870.272000   0.00000000         0.00 ; PRLP, pyrrolidine.H+, kevo
  CG3C54    NG3P2   NG3C51     5   114.200000  1129.680000   0.00000000         0.00 ; PRZP, Pyrazolidine.H+, kevo
  CG3C54    NG3P2     HGP2     5   109.500000   276.144000   0.20560000      3347.20 ; PROT AcProNH2, ProNH2, AcProNHCH3 RLD 4/23/93
  NG3C51    NG3P2     HGP2     5   106.300000   351.456000   0.00000000         0.00 ; PRZP, Pyrazolidine.H+, kevo
    HGP2    NG3P2     HGP2     5   107.500000   426.768000   0.00000000         0.00 ; PROT AcProNH2, ProNH2, AcProNHCH3 RLD 4/23/93
   CG314    NG3P3     HGP2     5   109.500000   251.040000   0.20740000     16736.00 ; PROT new stretch and bend; methylammonium (KK 03/10/92)
   CG324    NG3P3     HGP2     5   109.500000   251.040000   0.20740000     16736.00 ; PROT new stretch and bend; methylammonium (KK 03/10/92)
   CG334    NG3P3     HGP2     5   109.500000   251.040000   0.20740000     16736.00 ; PROT new stretch and bend; methylammonium (KK 03/10/92)
  CG3C53    NG3P3     HGP2     5   109.500000   251.040000   0.20740000     16736.00 ; cpoa, from CG314 NG3P3 HGP2, yxu, RNA
    HGP2    NG3P3     HGP2     5   109.500000   368.192000   0.00000000         0.00 ; PROT new stretch and bend; methylammonium (KK 03/10/92)
  CG2R51   OG2R50   CG2R51     5   106.000000   836.800000   0.00000000         0.00 ; FURA, furan
  CG2R51   OG2R50   CG2R53     5   104.000000  1171.520000   0.00000000         0.00 ; OXAZ, oxazole
  CG2R51   OG2R50   CG2RC0     5   104.000000   418.400000   0.00000000         0.00 ; ZFUR, benzofuran, kevo
  CG2R51   OG2R50   NG2R50     5   108.500000  1255.200000   0.00000000         0.00 ; ISOX, isoxazole @@@@@ Kenno: 109.9 --> 108.5 @@@@@
  CG2R53   OG2R50   NG2R50     5   109.300000  1380.720000   0.00000000         0.00 ; OXD4, oxadiazole124, xxwy
  CG2D1O    OG301    CG331     5   109.000000   443.504000   0.00000000         0.00 ; MOET, Methoxyethene, xxwy
  CG2D2O    OG301    CG331     5   109.000000   443.504000   0.00000000         0.00 ; MOET, Methoxyethene, xxwy
  CG2R61    OG301   CG2R61     5   120.000000  1548.080000   0.00000000         0.00 ; BIPHENYL ANALOGS, peml
  CG2R61    OG301    CG321     5   108.000000   543.920000   0.00000000         0.00 ; ETOB, Ethoxybenzene, cacha
  CG2R61    OG301    CG331     5   108.000000   543.920000   0.00000000         0.00 ; MEOB, Methoxybenzene, cacha
  CG2R62    OG301    CG321     5   108.000000   543.920000   0.00000000         0.00 ; OAU, from CG2R61 OG301 CG321 yxu, RNA
  CG2R62    OG301    CG331     5   104.000000   543.920000   0.00000000         0.00 ; MOU, yxu, 21/2/14, RNA
   CG301    OG301    CG331     5   109.700000   794.960000   0.00000000         0.00 ; AMOL, alpha-methoxy-lactic acid, og
   CG311    OG301    CG331     5   109.700000   794.960000   0.00000000         0.00 ; all34_ethers_1a CC33A OC30A CC32A, gk or og (not affected by mistake)
   CG311    OG301   CG3C51     5   107.000000   543.920000   0.00000000         0.00 ; pepr, from CG331 OG301 CG3C51, not optimized, yxu, RNA
   CG311    OG301    OG311     5   104.000000   602.496000   0.00000000         0.00 ; PBG, yxu, RNA
   CG321    OG301    CG321     5   109.700000   794.960000   0.00000000         0.00 ; diethylether, alex
   CG321    OG301    CG331     5   109.700000   794.960000   0.00000000         0.00 ; diethylether, alex
   CG321    OG301    NG2D1     5   104.200000   453.294560   0.00000000         0.00 ; GGB, by ac_aa
   CG321    OG301    NG2P1     5   102.860000   460.072640   0.00000000         0.00 ; GGBP, by ac_aa
   CG321    OG301    NG321     5   104.740000   601.575520   0.00000000         0.00 ; CAN, by ac_aa
   CG331    OG301    CG331     5   109.700000   794.960000   0.00000000         0.00 ; diethylether, alex!from CG321  OG301  CCT2, DME viv
   CG331    OG301   CG3C51     5   107.000000   543.920000   0.00000000         0.00 ; THF2, THF-2'OMe c2'-om-cm, from Nucl. Acids, ed
   CG331    OG301    OG311     5   104.000000   602.496000   0.00000000         0.00 ; mhp, from ppox, yxu, RNA
  CG3C51    OG301   CG3C51     5   107.000000   460.240000   0.00000000         0.00 ; rbrb, yxu, RNA
  NG2R51    OG301    OG311     5   105.670000   511.619520   0.00000000         0.00 ; TOX, by ac_aa
   OG311    OG301    SG301     5   109.650000   772.366400   0.00000000         0.00 ; 2CO, by ac_aa
   CG2O2    OG302    CG301     5   109.600000   334.720000   0.22651000     25104.00 ; AMGT, Alpha Methyl Gamma Tert Butyl Glu Acid CDCA Amide, cacha
   CG2O2    OG302    CG311     5   109.600000   334.720000   0.22651000     25104.00 ; LIPID methyl acetate
   CG2O2    OG302    CG321     5   109.600000   334.720000   0.22651000     25104.00 ; LIPID methyl acetate
   CG2O2    OG302    CG331     5   109.600000   334.720000   0.22651000     25104.00 ; LIPID methyl acetate
   CG2O6    OG302    CG321     5   111.000000   334.720000   0.00000000         0.00 ; DECB, diehtyl carbamate, from DMCB, cacha & kevo & xxwy
   CG2O6    OG302    CG331     5   111.000000   334.720000   0.00000000         0.00 ; DMCB & DMCA, dimethyl carbamate & carbonate, cacha & kevo & xxwy
   CG2O2    OG303      PG1     5   126.800000   411.705600   0.23106000      1481.14 ; PHDP, by ac_aa
   CG2O2    OG303      PG2     5   135.670000   119.076640   0.30104000      8769.66 ; PHD, by ac_aa
  CG2R61    OG303      PG1     5   120.000000   753.120000   0.23000000     16736.00 ; PROTNA phenol phosphate, 6/94, adm jr.
  CG2R61    OG303    SG3O1     5   108.000000   276.144000   0.00000000         0.00 ; from CG2R61 OG303 SG3O2, PENALTY= 5 TYS
  CG2R61    OG303    SG3O2     5   108.000000   276.144000   0.00000000         0.00 ; PMST, phenyl methanesulfonate, PSMT, phenyl sulfamate, xxwy
   CG301    OG303      PG1     5   120.000000   167.360000   0.23300000     29288.00 ; from CG321 OG303 PG1, PENALTY= 1.8 QPA
   CG311    OG303      PG0     5   120.000000   167.360000   0.23300000     29288.00 ; from CG321 OG303 PG0, PENALTY= 0.6 SGB SVY
   CG311    OG303      PG2     5   120.000000   167.360000   0.23300000     29288.00 ; NA IP_2
   CG311    OG303    SG3O1     5   109.000000   125.520000   0.19000000     22593.60 ; from CG321 OG303 SG3O1, penalty= 0.6 ALS
   CG321    OG303      PG0     5   120.000000   167.360000   0.23300000     29288.00 ; mono-thio S-P bond
   CG321    OG303      PG1     5   120.000000   167.360000   0.23300000     29288.00 ; NA !Reorganization: PC and others
   CG321    OG303      PG2     5   120.000000   167.360000   0.23300000     29288.00 ; NA !Reorganization: TH5P and others
   CG321    OG303    SG3O1     5   109.000000   125.520000   0.19000000     22593.60 ; LIPID methylsulfate
   CG321    OG303    SG3O2     5   113.000000   401.664000   0.00000000         0.00 ; from CG331 OG303 SG3O2, PENALTY= 0.9 SEB
   CG331    OG303      PG0     5   120.000000   167.360000   0.23300000     29288.00 ; LIPID phosphate !Reorganization:MP_0
   CG331    OG303      PG1     5   120.000000   167.360000   0.23300000     29288.00 ; LIPID phosphate !Reorganization:MP_1
   CG331    OG303      PG2     5   120.000000   167.360000   0.23300000     29288.00 ; LIPID phosphate !Reorganization:MP_2
   CG331    OG303    SG3O1     5   109.000000   125.520000   0.19000000     22593.60 ; LIPID methylsulfate
   CG331    OG303    SG3O2     5   113.000000   401.664000   0.00000000         0.00 ; MMST, methyl methanesulfonate, xxwy
  CG3C51    OG303      PG1     5   120.000000   167.360000   0.23300000     29288.00 ; BPNP and others
  CG3C51    OG303      PG2     5   120.000000   167.360000   0.23300000     29288.00 ; TH3P and others
     PG0    OG304      PG0     5   143.000000   376.560000   0.32500000     33472.00 ; mono-thio S-P bond
     PG1    OG304      PG1     5   143.000000   376.560000   0.32500000     33472.00 ; PPI2, METP reorganization, kevo
     PG1    OG304      PG2     5   139.500000   376.560000   0.30500000     33472.00 ; PPI1, METP reorganization, kevo
  CG2D1O    OG311     HGP1     5   105.720000   549.191840   0.00000000         0.00 ; TPQP, by ac_aa
  CG2D2O    OG311     HGP1     5   105.720000   549.191840   0.00000000         0.00 ; TPQP, by ac_aa
   CG2O2    OG311     HGP1     5   115.000000   460.240000   0.00000000         0.00 ; PROT adm jr. 5/02/91, acetic acid pure solvent
   CG2O6    OG311     HGP1     5   116.000000   510.448000   0.00000000         0.00 ; CO31, bicarbonate, xxwy
  CG2R51    OG311     HGP1     5   108.000000   543.920000   0.00000000         0.00 ; from CG2R61 OG311 HGP1, PENALTY= 8.5 B2H CR8D TRO
  CG2R61    OG311     HGP1     5   108.000000   543.920000   0.00000000         0.00 ; PROT JES 8/25/89 phenol
  CG2R62    OG311     HGP1     5   108.000000   552.288000   0.19280000     33472.00 ; 5HU, yxu, RNA
   CG301    OG311     HGP1     5   106.000000   418.400000   0.00000000         0.00 ; AMOL, alpha-methoxy-lactic acid, og
   CG311    OG311     HGP1     5   106.000000   418.400000   0.00000000         0.00 ; og 1/06 EtOH IR fit; was 57.5 106
   CG321    OG311     HGP1     5   106.000000   418.400000   0.00000000         0.00 ; sng mod (qm and crystal data); was 57.5 106
   CG331    OG311     HGP1     5   106.000000   481.160000   0.00000000         0.00 ; Team Sugar, HCP1M OC311M CC331M; unchanged
  CG3C50    OG311     HGP1     5   109.000000   418.400000   0.00000000         0.00 ; from CG3C51 OG311 HGP1, PENALTY= 0.8 PXU
  CG3C51    OG311     HGP1     5   109.000000   418.400000   0.00000000         0.00 ; par_Sugars, CC315x OC311 HCP1; was 57.5 106
   NG2S0    OG311     HGP1     5   100.670000   544.003680   0.00000000         0.00 ; FHO, by ac_aa
   NG2S1    OG311     HGP1     5    98.890000   543.836320   0.00000000         0.00 ; HGA, by ac_aa
   NG3P0    OG311     HGP1     5   101.500000   502.080000   0.00000000         0.00 ; TMAOP, Hydroxy(trimethyl)Ammonium, xxwy
   OG301    OG311     HGP1     5    98.300000   510.448000   0.00000000         0.00 ; PBG, yxu, RNA
     PG0    OG311     HGP1     5   115.000000   251.040000   0.23500000     33472.00 ; NA MP_1, ADM Jr. !Reorganization:MP_0
     PG1    OG311     HGP1     5   115.000000   251.040000   0.23500000     33472.00 ; NA MP_1, ADM Jr. !Reorganization:MP_1
     PG2    OG311     HGP1     5   115.000000   251.040000   0.23500000     33472.00 ; from PG1 OG311 HGP1, penalty= 1 CSPP
   SG301    OG311     HGP1     5   105.260000   288.863360   0.21906000     33463.63 ; CSO, by ac_aa
   BG201    OG311     HGP1     5   110.000000   686.176000   0.00000000         0.00 ; BORO,BORB,BONE,BICB Boronic acid, sr
  CG3C31   OG3C31   CG3C31     5    97.000000   421.328800   0.00000000         0.00 ; 1EOX, 1-ethylene oxide, sc
  CG3RC1   OG3C31   CG3RC1     5    60.800000   753.120000   0.00000000         0.00 ; EQG, yxu, RNA
   CG2O4   OG3C51   CG3C41     5    95.000000   744.752000   0.00000000         0.00 ; 2OXT, ozyo, 04/19
  CG2R51   OG3C51   CG2R53     5   104.000000   711.280000   0.00000000         0.00 ; A2FO, 3H-furan-2-one, ctsai
  CG2R51   OG3C51   CG3C52     5   104.400000  1046.000000   0.00000000         0.00 ; 2DHF, 2,3-dihydrofuran, kevo
  CG2R51   OG3C51   NG3C51     5   102.360000   982.152160   0.00000000         0.00 ; 143, by ac_aa
  CG2R53   OG3C51   CG3C52     5   107.100000   753.120000   0.00000000         0.00 ; GBL, Gamma-butyrolactone, ctsai
  CG2RC0   OG3C51   CG3C52     5   108.050000   635.968000   0.00000000         0.00 ; 107.15 ZDOL, 1,3-benzodioxole, kevo
  CG3C41   OG3C51   CG3C41     5    89.120000   460.240000   0.00000000         0.00 ; OXTN, oxetane, gmu (CG3C52 OG3C51 CG3C52)
  CG3C51   OG3C51   CG3C51     5   111.000000   794.960000   0.00000000         0.00 ; THF 10/21/05, viv
  CG3C51   OG3C51   CG3C52     5   111.000000   794.960000   0.00000000         0.00 ; THF 10/21/05, viv
  CG3C51   OG3C51   CG3C53     5   108.000000   920.480000   0.00000000         0.00 ; NA
  CG3C51   OG3C51   NG3C51     5   107.050000   795.964160   0.00000000         0.00 ; 5CS, by ac_aa
  CG3C52   OG3C51   CG3C52     5   111.000000   794.960000   0.00000000         0.00 ; THF 10/21/05, viv
  CG3C52   OG3C51   CG3RC1     5   109.000000  1422.560000   0.00000000         0.00 ; RSRF, 4,6-dioxabicyclo[3.3.0]octan-8-ol, xxwy
  CG3C52   OG3C51    BG201     5   111.000000   794.960000   0.00000000         0.00 ; BICB,BINB Boronic acid, sr
   CG311   OG3C61    CG321     5   109.700000   794.960000   0.00000000         0.00 ; pepr, from CG321 OG3C61 CG321, not optimized, yxu, RNA
   CG321   OG3C61    CG321     5   109.700000   794.960000   0.00000000         0.00 ; DIOX, dioxane
  CG2D1O   OG3R60   CG2D1O     5    99.000000   334.720000   0.00000000         0.00 ; PY01, 4h-pyran, maintain 720 in ring
  CG2D1O   OG3R60    CG321     5    99.000000   167.360000   0.00000000         0.00 ; PY02, 2h-pyran
  CG2D2O   OG3R60   CG2D2O     5    99.000000   334.720000   0.00000000         0.00 ; PY01, 4h-pyran, maintain 720 in ring
  CG2D2O   OG3R60    CG321     5    99.000000   167.360000   0.00000000         0.00 ; PY02, 2h-pyran
  CG2R61   OG3R60   CG2R61     5   115.000000   334.720000   0.00000000         0.00 ; FEOZ, phenoxazine, erh
  CG2R62   OG3R60   CG2R63     5   126.500000   853.536000   0.00000000         0.00 ; RIN, coumarin, isg
   CG331      PG0    OG2P1     5   121.000000   538.564480   0.00000000         0.00 ; SGB SVX, by ac_aa
   CG331      PG0    OG303     5   107.340000   442.248800   0.00000000         0.00 ; SVX SGB, by ac_aa
   NG2S3      PG0    OG2P1     5   120.640000  1000.310720   0.00000000         0.00 ; SUN, by ac_aa
   NG2S3      PG0    OG303     5    96.040000   502.247360   0.00000000         0.00 ; SUN, by ac_aa
   OG2P1      PG0    OG303     5   111.600000   827.595200   0.00000000         0.00 ; LIPID phosphate !Reorganization:MP_0 RE-OPTIMIZE!
   OG2P1      PG0    OG304     5   111.600000   827.595200   0.00000000         0.00 ; mono-thio S-P bond
   OG2P1      PG0    OG311     5   108.230000   827.595200   0.00000000         0.00 ; NA MP_1, ADM Jr. !Reorganization:MP_0 RE-OPTIMIZE!
   OG2P1      PG0    SG2P1     5   131.030000   627.600000   0.00000000         0.00 ; mono-thio S-P bond
   OG303      PG0    OG303     5   108.000000   402.500800   0.00000000         0.00 ; GTP neutral
   OG303      PG0    OG304     5   108.000000   402.500800   0.00000000         0.00 ; mono-thio S-P bond
   OG303      PG0    OG311     5   108.000000   402.500800   0.00000000         0.00 ; NA MP_1, ADM Jr. !Reorganization:MP_0 RE-OPTIMIZE!
   OG303      PG0    SG2P1     5   111.600000   827.595200   0.00000000         0.00 ; mono-thio S-P bond
   OG303      PG0    SG2P2     5   111.600000   827.595200   0.00000000         0.00 ; di-thio S-P bond
   OG304      PG0    OG304     5   108.000000   402.500800   0.00000000         0.00 ; mono-thio S-P bond
   OG304      PG0    OG311     5   108.000000   402.500800   0.00000000         0.00 ; mono-thio S-P bond
   OG304      PG0    SG2P1     5   112.840000   810.022400   0.00000000         0.00 ; mono-thio S-P bond
   OG304      PG0    SG2P2     5   112.840000   810.022400   0.00000000         0.00 ; di-thio S-P bond
   OG311      PG0    OG311     5   104.000000   827.595200   0.00000000         0.00 ; NA MP_0, ADM Jr.
   OG311      PG0    SG2P1     5   131.030000   627.600000   0.00000000         0.00 ; mono-thio S-P bond
   OG311      PG0    SG2P2     5   131.030000   627.600000   0.00000000         0.00 ; di-thio S-P bond
   SG2P2      PG0    SG2P2     5   128.470000   773.203200   0.00000000         0.00 ; di-thio S-P bond
   CG312      PG1    OG2P1     5    94.000000   827.595200   0.00000000         0.00 ; BDFP, Difuorobenzylphosphonate \ re-optimize?
   CG312      PG1    OG311     5    90.000000   753.956800   0.00000000         0.00 ; BDFP, BDFD, Difuorobenzylphosphonate
   CG321      PG1    OG2P1     5   103.000000   827.595200   0.00000000         0.00 ; BDFP, Benzylphosphonate \ re-optimize?
   CG321      PG1    OG311     5    94.000000   753.956800   0.00000000         0.00 ; BDFP, BDFD, Benzylphosphonate
   CG331      PG1    OG2P1     5   103.000000   827.595200   0.00000000         0.00 ; from CG321 PG1 OG2P1, PENALTY= 0.9 SBG
   CG331      PG1    OG303     5    94.700000   742.325280   0.00000000         0.00 ; SBG, by ac_aa
   NG2S3      PG1    OG2P1     5   110.600000  1171.520000   0.00000000         0.00 ; NABAKB  phosphoramidates
   NG2S3      PG1    OG303     5   103.200000   502.080000   0.00000000         0.00 ; NABAKB  phosphoramidates
   OG2P1      PG1    OG2P1     5   120.000000   870.272000   0.00000000         0.00 ; MP_1 reorganization, kevo
   OG2P1      PG1    OG303     5   107.500000   827.595200   0.00000000         0.00 ; MP_1 reorganization, kevo
   OG2P1      PG1    OG304     5   111.600000   743.915200   0.00000000         0.00 ; NA nad/ppi, jjp1/adm jr. 7/95 !Reorganization:PPI1, PPI2
   OG2P1      PG1    OG311     5   111.000000   827.595200   0.00000000         0.00 ; MP_1 reorganization, kevo
   OG303      PG1    OG303     5   104.300000   669.440000   0.00000000         0.00 ; NA DMP, ADM Jr. !Reorganization: PC and others
   OG303      PG1    OG304     5   105.000000   402.500800   0.00000000         0.00 ; PPI1, PPI2, METP reorganization, kevo
   OG303      PG1    OG311     5   108.000000   402.500800   0.00000000         0.00 ; MP_1 reorganization, kevo
   OG304      PG1    OG304     5   107.500000   402.500800   0.00000000         0.00 ; METP reorganization, kevo
   OG304      PG1    OG311     5   111.000000   402.500800   0.00000000         0.00 ; PPI2 reorganization, kevo
   CG312      PG2    OG2P1     5    94.000000   827.595200   0.00000000         0.00 ; BDFD, Difuorobenzylphosphonate / re-optimize?
   CG321      PG2    OG2P1     5   103.000000   827.595200   0.00000000         0.00 ; BDFD, Benzylphosphonate / re-optimize?
  NG2R51      PG2    OG2P1     5   100.090000   799.897120   0.00000000         0.00 ; NEP, by ac_aa
   OG2P1      PG2    OG2P1     5   121.000000   870.272000   0.00000000         0.00 ; MP_2 reorganization, kevo
   OG2P1      PG2    OG303     5   111.000000   743.915200   0.00000000         0.00 ; MP_2 reorganization, kevo
   OG2P1      PG2    OG304     5   111.600000   743.915200   0.00000000         0.00 ; NA nad/ppi, jjp1/adm jr. 7/95 !Reorganization:PPI1, PPI2
   OG2P1      PG2    SG2P1     5   131.030000   627.600000   0.00000000         0.00 ; mono-thio S-P bond
   OG2S1      PG2    OG2S1     5   121.000000   870.272000   0.00000000         0.00 ; mono-thio S-P bond
   OG2S1      PG2    OG303     5   111.000000   743.915200   0.00000000         0.00 ; mono-thio S-P bond
   OG2S1      PG2    OG304     5   111.600000   743.915200   0.00000000         0.00 ; mono-thio S-P bond
   OG2S1      PG2    OG311     5   111.000000   743.915200   0.00000000         0.00 ; from OG2S1 PG2 OG303, penalty= 6.5 CSPP
   OG2S1      PG2    SG2P1     5   131.030000   627.600000   0.00000000         0.00 ; mono-thio S-P bond
   OG2S1      PG2    SG2P2     5   131.030000   627.600000   0.00000000         0.00 ; di-thio S-P bond
   OG303      PG2    SG2P1     5   111.000000   743.915200   0.00000000         0.00 ; mono-thio S-P bond
   OG303      PG2    SG2P2     5   111.000000   743.915200   0.00000000         0.00 ; di-thio S-P bond
   OG304      PG2    SG2P1     5   112.840000   810.022400   0.00000000         0.00 ; mono-thio S-P bond
   OG304      PG2    SG2P2     5   112.840000   810.022400   0.00000000         0.00 ; di-thio S-P bond
   OG311      PG2    SG2P1     5   111.000000   743.915200   0.00000000         0.00 ; from OG303 PG2 SG2P1, penalty= 6.5 CSPP
   SG2P2      PG2    SG2P2     5   128.470000   773.203200   0.00000000         0.00 ; di-thio S-P bond
   CG321    SG2P1      PG2     5    91.850000   333.548480   0.00000000         0.00 ; CSPP, by ac_aa
  CG2R51   SG2R50   CG2R51     5    95.000000   878.640000   0.00000000         0.00 ; THIP, thiophene
  CG2R51   SG2R50   CG2R53     5    97.000000   920.480000   0.00000000         0.00 ; THAZ, thiazole @@@@@ Kenno: 95 --> 97 @@@@@
  CG2R51   SG2R50   CG2RC0     5    99.500000   585.760000   0.00000000         0.00 ; ZTHP, benzothiophene, kevo
  CG2R51   SG2R50   NG2R50     5   103.000000  1255.200000   0.00000000         0.00 ; ISOT, isothiazole
  CG2R53   SG2R50   CG2RC0     5    97.000000   920.480000   0.00000000         0.00 ; ZTHZ, benzothiazole, kevo
   CG321    SG301    OG301     5   101.700000   431.035680   0.00000000         0.00 ; 2CO, by ac_aa
   CG321    SG301    OG311     5    99.370000   582.580160   0.00000000         0.00 ; CSO, by ac_aa
   CG321    SG301    OG312     5   104.890000   447.185920   0.00000000         0.00 ; CSX, by ac_aa
   CG321    SG301    SG301     5   103.300000   606.680000   0.00000000         0.00 ; PROT expt. dimethyldisulfide,    3/26/92 (FL)
   CG321    SG301    SG311     5   103.300000   606.680000   0.00000000         0.00 ; from CG321 SG301 SG301, penalty= 2 CSS
   CG321    SG301    SG3O1     5    94.970000   495.050880   0.00000000         0.00 ; CSU, by ac_aa
   CG331    SG301    SG301     5   103.300000   606.680000   0.00000000         0.00 ; PROT expt. dimethyldisulfide,    3/26/92 (FL)
   CG1N1    SG311    CG321     5    99.480000   523.000000   0.00000000         0.00 ; XCN, by ac_aa
  CG251O    SG311   CG2R53     5    92.000000   627.600000   0.00000000         0.00 ; MRDN, methylidene rhodanine, kevo & xxwy
  CG252O    SG311   CG2R53     5    92.000000   627.600000   0.00000000         0.00 ; MRDN, methylidene rhodanine, kevo & xxwy
  CG2D1O    SG311    CG331     5    98.050000   551.116480   0.00000000         0.00 ; FZN, by ac_aa
  CG2D1O    SG311   CG3C51     5    98.050000   551.116480   0.00000000         0.00 ; from CG2D1O SG311 CG331, FZN
  CG2D2O    SG311    CG331     5    98.050000   551.116480   0.00000000         0.00 ; FZN, by ac_aa
  CG2D2O    SG311   CG3C51     5    98.050000   551.116480   0.00000000         0.00 ; from CG2D1O SG311 CG331, FZN
   CG2N2    SG311    CG321     5    94.700000   493.712000   0.00000000         0.00 ; DH3T, transferred from MT2A , fylin
   CG2N2    SG311    CG331     5    94.700000   493.712000   0.00000000         0.00 ; MT2A, fylin
   CG2O2    SG311    CG321     5    96.000000   502.080000   0.00000000         0.00 ; CYG JJJ MCS, asbb, PC, 2020
   CG2O2    SG311    CG331     5    96.000000   502.080000   0.00000000         0.00 ; from CG2O6 SG311 CG331, penalty= 4.5 CYG
   CG2O6    SG311    CG321     5    96.000000   502.080000   0.00000000         0.00 ; from CG2O6 SG311 CG331, PENALTY= 0.9 QCS
   CG2O6    SG311    CG331     5    96.000000   502.080000   0.00000000         0.00 ; DMTT, dimethyl trithiocarbonate, kevo
  CG2R61    SG311   CG2R61     5   109.000000   418.400000   0.00000000         0.00 ; FETZ, phenothiazine, erh
  CG2R64    SG311    CG321     5    97.000000   384.928000   0.00000000         0.00 ; pesu, yxu, RNA
  CG2R64    SG311    CG331     5    91.000000   552.288000   0.00000000         0.00 ; 2SMPYR, 2-(methylthio)-pyrimidine; from CG2O6 SG311 CG331; isg (may need to be re-evaluated because yxu got "a QM value of 100.8" for RESI 2MSA)
   CG301    SG311    CG321     5    95.000000   284.512000   0.00000000         0.00 ; from CG321 SG311 CG321, PENALTY= 1.8 QPA
   CG301    SG311     HGP3     5    95.000000   324.678400   0.00000000         0.00 ; from CG321 SG311 HGP3, PENALTY= 1.8 LE1
   CG311    SG311    CG321     5    95.000000   284.512000   0.00000000         0.00 ; from CG321 SG311 CG321, penalty= 0.6 CGV CML HTI
   CG311    SG311    CG331     5    95.000000   284.512000   0.00000000         0.00 ; from CG321 SG311 CG331, penalty= 0.6 0TD HTI
   CG311    SG311     HGP3     5    95.000000   324.678400   0.00000000         0.00 ; from CG321 SG311 HGP3, PENALTY= 0.6 LA2
   CG312    SG311    CG321     5    95.200000   398.149440   0.00000000         0.00 ; 2FM, by ac_aa
   CG314    SG311    CG321     5    92.080000   301.666400   0.00000000         0.00 ; from CG331 SG311 CG314, AGT
   CG314    SG311    CG331     5    92.080000   301.666400   0.00000000         0.00 ; AGT, by ac_aa
   CG321    SG311    CG321     5    95.000000   284.512000   0.00000000         0.00 ; PROTNA sahc
   CG321    SG311    CG331     5    95.000000   284.512000   0.00000000         0.00 ; PROT expt. MeEtS,    3/26/92 (FL)
   CG321    SG311   CG3C51     5    95.000000   284.512000   0.00000000         0.00 ; from CG321 SG311 CG321, PENALTY= 10 143 5CS 6V1
   CG321    SG311    NG2D1     5    92.330000   551.534880   0.00000000         0.00 ; SNC, by ac_aa
   CG321    SG311     HGP3     5    95.000000   324.678400   0.00000000         0.00 ; PROT methanethiol pure solvent, adm jr., 6/22/92
   CG331    SG311     HGP3     5    95.000000   359.824000   0.00000000         0.00 ; PROT methanethiol pure solvent, adm jr., 6/22/92
  CG3C52    SG311   CG3C52     5    96.200000   378.233600   0.00000000         0.00 ; PRS, by ac_aa
   SG301    SG311     HGP3     5    99.090000   508.272320   0.00000000         0.00 ; CSS, by ac_aa
  CG2R61    SG3O1    OG2P1     5    98.000000   711.280000   0.00000000         0.00 ; benzene sulfonic acid anion, og
   CG321    SG3O1    OG2P1     5    99.000000   669.440000   0.00000000         0.00 ; ESNA, ethyl sulfonate, xhe
   CG331    SG3O1    OG2P1     5   100.000000   711.280000   0.00000000         0.00 ; MSNA, methyl sulfonate, xhe
   NG2S3    SG3O1    OG2P1     5    94.200000   277.817600   0.00000000         0.00 ; NMSM, N-methyl-sulfamate, my
   OG2P1    SG3O1    OG2P1     5   109.470000  1087.840000   0.24500000     29288.00 ; LIPID methylsulfate
   OG2P1    SG3O1    OG303     5    98.000000   711.280000   0.00000000         0.00 ; LIPID methylsulfate
   OG2P1    SG3O1    SG301     5    97.860000   635.716960   0.00000000         0.00 ; CSU, by ac_aa
  CG2R51    SG3O2    NG301     5    97.000000   418.400000   0.00000000         0.00 ; TSPD model for D3R, xxwy
  CG2R51    SG3O2    OG2P1     5   106.500000   585.760000   0.00000000         0.00 ; TSPD model for D3R, xxwy
  CG2R61    SG3O2    NG301     5    97.000000   418.400000   0.00000000         0.00 ; D3R set1 scaffold 2, xxwy
  CG2R61    SG3O2    NG311     5    97.000000   585.760000   0.00000000         0.00 ; MBSM, N-methylbenzenesulfonamide; PBSM, N-phenylbenzenesulfonamide; xxwy
  CG2R61    SG3O2    NG321     5    98.000000   502.080000   0.00000000         0.00 ; BSAM, benzenesulfonamide, xxwy
  CG2R61    SG3O2    OG2P1     5   101.000000   502.080000   0.00000000         0.00 ; BSAM, benzenesulfonamide, xxwy
   CG321    SG3O2    CG331     5   102.000000   669.440000   0.00000000         0.00 ; MESN, methyl ethyl sulfone, xhe
   CG321    SG3O2    NG311     5   101.000000   518.816000   0.00000000         0.00 ; EESM, N-ethylethanesulfonamide, xxwy
   CG321    SG3O2    OG2P1     5   107.500000   627.600000   0.00000000         0.00 ; EESM, N-ethylethanesulfonamide; MESN, methyl ethyl sulfone; xxwy & xhe
   CG321    SG3O2    OG303     5    96.000000   778.224000   0.00000000         0.00 ; from CG331 SG3O2 OG303, PENALTY= 0.9 SEB
   CG331    SG3O2    CG331     5   102.000000   669.440000   0.00000000         0.00 ; DMSN, dimethyl sulfone, xhe
   CG331    SG3O2    NG311     5   103.000000   610.864000   0.00000000         0.00 ; MMSM, N-methylmethanesulfonamide; PMSM, N-phenylmethanesulfonamide; xxwy
   CG331    SG3O2    NG321     5   101.000000   694.544000   0.00000000         0.00 ; MSAM, methanesulfonamide, xxwy
   CG331    SG3O2    OG2P1     5   108.500000   661.072000   0.00000000         0.00 ; DMSN, dimethyl sulfone; MSAM, methanesulfonamide and other sulfonamides; xxwy & xhe
   CG331    SG3O2    OG303     5    96.000000   778.224000   0.00000000         0.00 ; MMST, methyl methanesulfonate, xxwy
   NG301    SG3O2    OG2P1     5   108.500000   585.760000   0.00000000         0.00 ; TSPD model for D3R, xxwy
   NG311    SG3O2    NG311     5   102.300000   695.380800   0.00000000         0.00 ; MESI, N-methyl,N'-ethylsulfamide, rting
   NG311    SG3O2    OG2P1     5   110.500000   627.600000   0.00000000         0.00 ; MMSM, N-methylmethanesulfonamide and other sulfonamides, xxwy
   NG321    SG3O2    OG2P1     5   111.000000   669.440000   0.00000000         0.00 ; MSAM, methanesulfonamide; BSAM, benzenesulfonamide; xxwy
   NG321    SG3O2    OG303     5   102.000000   836.800000   0.00000000         0.00 ; MSMT, methyl sulfamate, & PSMT, xxwy
   OG2P1    SG3O2    OG2P1     5   121.000000   711.280000   0.00000000         0.00 ; DMSN, dimethyl sulfone; MSAM, methanesulfonamide and other sulfonamides; xxwy & xhe
   OG2P1    SG3O2    OG303     5   109.000000   753.120000   0.00000000         0.00 ; MMST, methyl methanesulfonate, xxwy
   CG321    SG3O3    CG331     5    95.000000   711.280000   0.00000000         0.00 ; MESO, methylethylsulfoxide, mnoon
   CG321    SG3O3    OG2P1     5   106.500000   543.920000   0.00000000         0.00 ; MESO, methylethylsulfoxide, mnoon
   CG331    SG3O3    CG331     5    95.000000   284.512000   0.00000000         0.00 ; DMSO, dimethylsulfoxide (ML Strader, et al.JPC2002_A106_1074), sz
   CG331    SG3O3    OG2P1     5   106.750000   661.072000   0.00000000         0.00 ; DMSO, dimethylsulfoxide (ML Strader, et al.JPC2002_A106_1074), sz
  CG2R61    BG201    OG2D2     5   133.000000   669.440000   0.00000000         0.00 ; BONB,BNNB Boronic acid, sr
  CG2R61    BG201    OG311     5   123.000000   334.720000   0.00000000         0.00 ; BORB,BONB Boronic acid, sr
  CG2RC0    BG201    OG2D2     5   126.000000   669.440000   0.00000000         0.00 ; BINB, Boronic acid, sr
  CG2RC0    BG201    OG311     5   120.900000   502.080000   0.00000000         0.00 ; BICB, Boronic acid, sr
  CG2RC0    BG201   OG3C51     5   108.900000   502.080000   0.00000000         0.00 ; BICB,BINB Boronic acid, sr
   CG321    BG201    OG2D2     5   133.000000   669.440000   0.00000000         0.00 ; BONE, Boronic acid, sr
   CG321    BG201    OG311     5   125.000000   334.720000   0.00000000         0.00 ; BORE,BONE,BNNE Boronic acid, sr
   CG331    BG201    OG2D2     5   133.000000   669.440000   0.00000000         0.00 ; BORN, Boronic acid, sr
   CG331    BG201    OG311     5   125.000000   334.720000   0.00000000         0.00 ; BORO, Boronic acid, sr
   OG2D2    BG201    OG2D2     5   148.000000  1255.200000   0.00000000         0.00 ; BONN,BNNB Boronic acid, sr
   OG2D2    BG201    OG311     5   135.000000   920.480000   0.00000000         0.00 ; BORN, Boronic acid, sr
   OG2D2    BG201   OG3C51     5   126.900000   920.480000   0.00000000         0.00 ; BINB, Boronic acid, sr
   OG311    BG201    OG311     5   120.000000  1255.200000   0.00000000         0.00 ; BORO,BORB Boronic acid, sr
   OG311    BG201   OG3C51     5   122.500000   920.480000   0.00000000         0.00 ; BICB, Boronic acid, sr
    FGP1     ALG1     FGP1     5   109.470000   192.464000   0.28185500     12552.00 ; aluminum tetrafluoride, ALF4, tetrahedral

; angle parameters from toppar_c36_jul22/par_all36_lipid.prm
;      i        j        k  func       theta0       ktheta          ub0          kub
     OBL       CL     CTL3     5   125.000000   585.760000   0.24420000     16736.00 ; methyl acetate
     OBL       CL     CTL2     5   125.000000   585.760000   0.24420000     16736.00 ; methyl acetate
     OBL       CL     CTL1     5   125.000000   585.760000   0.24420000     16736.00 ; methyl acetate
     OSL       CL      OBL     5   125.900000   753.120000   0.22576000    133888.00 ; acetic acid
      CL      OSL     CTL1     5   109.600000   334.720000   0.22651000     25104.00 ; methyl acetate
      CL      OSL     CTL2     5   109.600000   334.720000   0.22651000     25104.00 ; methyl acetate
      CL      OSL     CTL3     5   109.600000   334.720000   0.22651000     25104.00 ; methyl acetate
    HAL2     CTL2       CL     5   109.500000   276.144000   0.21630000     25104.00 ; methyl acetate
    HAL3     CTL3       CL     5   109.500000   276.144000   0.21630000     25104.00 ; methyl acetate
    CTL2     CTL2       CL     5   108.000000   435.136000   0.00000000         0.00 ; alkane
    CTL2     CTL1      CCL     5   108.000000   435.136000   0.00000000         0.00 ; for POPS
    CTL3     CTL2       CL     5   108.000000   435.136000   0.00000000         0.00 ; alkane
     OSL       CL     CTL3     5   109.000000   460.240000   0.23260000     16736.00 ; methyl acetate
     OSL       CL     CTL2     5   109.000000   460.240000   0.23260000     16736.00 ; methyl acetate
     OSL       CL     CTL1     5   109.000000   460.240000   0.23260000     16736.00 ; methyl acetate
     OHL       CL      OBL     5   123.000000   418.400000   0.22620000    175728.00 ; acetic acid
     OCL       CL     CTL2     5   118.000000   334.720000   0.23880000     41840.00 ; acetate
     OCL       CL     CTL3     5   118.000000   334.720000   0.23880000     41840.00 ; acetate
     OCL       CL      OCL     5   124.000000   836.800000   0.22250000     58576.00 ; acetate
     OCL      CCL      OCL     5   124.000000   836.800000   0.22250000     58576.00 ; for POPS
     OCL      CCL     CTL1     5   118.000000   334.720000   0.23880000     41840.00 ; for POPS
     OHL       CL     CTL3     5   110.500000   460.240000   0.00000000         0.00 ; acetic acid
     OHL       CL     CTL2     5   110.500000   460.240000   0.00000000         0.00 ; acetic acid
     HOL      OHL       CL     5   115.000000   460.240000   0.00000000         0.00 ; acetic acid
     OSL     CTL1     CTL1     5   110.100000   633.457600   0.00000000         0.00 ; acetic acid, PIP
     OSL     CTL1     CTL2     5   110.100000   633.457600   0.00000000         0.00 ; acetic acid
     OSL     CTL1     CTL3     5   110.100000   633.457600   0.00000000         0.00 ; acetic acid
     OSL     CTL2     CTL1     5   110.100000   633.457600   0.00000000         0.00 ; acetic acid
     OSL     CTL2     CTL2     5   110.100000   633.457600   0.00000000         0.00 ; acetic acid
     OSL     CTL2     CTL3     5   110.100000   633.457600   0.00000000         0.00 ; acetic acid
    OSLP     CTL1     CTL1     5   110.100000   633.457600   0.00000000         0.00 ; acetic acid, PIP
    OSLP     CTL1     CTL2     5   110.100000   633.457600   0.00000000         0.00 ; acetic acid
    OSLP     CTL1     CTL3     5   110.100000   633.457600   0.00000000         0.00 ; acetic acid
    OSLP     CTL2     CTL1     5   110.100000   633.457600   0.00000000         0.00 ; acetic acid
    OSLP     CTL2     CTL2     5   110.100000   633.457600   0.00000000         0.00 ; acetic acid
    OSLP     CTL2     CTL3     5   110.100000   633.457600   0.00000000         0.00 ; acetic acid
    HAL2     CTL2     HAL2     5   109.000000   297.064000   0.18020000      4518.72 ; alkane, 3/92
    HAL3     CTL3     HAL3     5   108.400000   297.064000   0.18020000      4518.72 ; alkane, 3/92
    HAL1     CTL1      OSL     5   109.500000   502.080000   0.00000000         0.00 ; phosphate
    HAL2     CTL2      OSL     5   109.500000   502.080000   0.00000000         0.00 ; phosphate
    HAL3     CTL3      OSL     5   109.500000   502.080000   0.00000000         0.00 ; phosphate
    HAL1     CTL1     OSLP     5   109.500000   502.080000   0.00000000         0.00 ; phosphate
    HAL2     CTL2     OSLP     5   109.500000   502.080000   0.00000000         0.00 ; phosphate
    HAL3     CTL3     OSLP     5   109.500000   502.080000   0.00000000         0.00 ; phosphate
    CTL1      OSL       PL     5   120.000000   167.360000   0.23300000     29288.00 ; phosphate, PIP
    CTL2      OSL       PL     5   120.000000   167.360000   0.23300000     29288.00 ; phosphate
    CTL3      OSL       PL     5   120.000000   167.360000   0.23300000     29288.00 ; phosphate
    CTL1     OSLP       PL     5   120.000000   167.360000   0.23300000     29288.00 ; phosphate, PIP
    CTL2     OSLP       PL     5   120.000000   167.360000   0.23300000     29288.00 ; phosphate
    CTL3     OSLP       PL     5   120.000000   167.360000   0.23300000     29288.00 ; phosphate
     HOL      OHL       PL     5   115.000000   251.040000   0.23000000     33472.00 ; phosphate
     OSL       PL      OSL     5   104.300000   669.440000   0.00000000         0.00 ; phosphate
     OSL       PL      O2L     5   111.600000   827.595200   0.00000000         0.00 ; phosphate
     OSL       PL      OHL     5   108.000000   402.500800   0.00000000         0.00 ; phosphate
    OSLP       PL     OSLP     5   104.300000   669.440000   0.00000000         0.00 ; phosphate
    OSLP       PL      O2L     5   111.600000   827.595200   0.00000000         0.00 ; phosphate
    OSLP       PL      OHL     5   108.000000   402.500800   0.00000000         0.00 ; phosphate
     O2L       PL      O2L     5   120.000000  1004.160000   0.00000000         0.00 ; phosphate
     O2L       PL      OHL     5   108.230000   827.595200   0.00000000         0.00 ; phosphate
     NTL     CTL2       HL     5   109.500000   334.720000   0.21300000     22593.60 ; tetramethylammonium
     NTL     CTL5       HL     5   109.500000   334.720000   0.21300000     22593.60 ; tetramethylammonium
      HL     CTL2       HL     5   109.500000   200.832000   0.17670000     23430.40 ; tetramethylammonium
      HL     CTL5       HL     5   109.500000   200.832000   0.17670000     23430.40 ; tetramethylammonium
    CTL2      NTL     CTL2     5   109.500000   502.080000   0.24660000     21756.80 ; tetraethylammonium, from CTL5 NTL  CTL2
    CTL5      NTL     CTL2     5   109.500000   502.080000   0.24660000     21756.80 ; tetramethylammonium
    CTL5      NTL     CTL5     5   109.500000   502.080000   0.24660000     21756.80 ; tetramethylammonium
      HL     CTL2     CTL2     5   110.100000   279.742240   0.21790000     18853.10 ; alkane
      HL     CTL2     CTL3     5   110.100000   279.742240   0.21790000     18853.10 ; alkane
    HAL1     CTL1     CTL1     5   110.100000   288.696000   0.21790000     18853.10 ; alkane, 3/92
    HAL1     CTL1     CTL2     5   110.100000   288.696000   0.21790000     18853.10 ; alkane, 3/92
    HAL1     CTL1     CTL3     5   110.100000   288.696000   0.21790000     18853.10 ; alkane, 3/92
    HAL2     CTL2     CTL1     5   110.100000   221.752000   0.21790000     18853.10 ; alkane, 4/98
    HAL2     CTL2     CTL2     5   110.100000   221.752000   0.21790000     18853.10 ; alkane, 4/98
    HAL2     CTL2     CTL3     5   110.100000   289.532800   0.21790000     18853.10 ; alkane, 4/98
    HAL3     CTL3     CTL1     5   110.100000   279.742240   0.21790000     18853.10 ; alkane, 4/98
    HAL3     CTL3     CTL2     5   110.100000   289.532800   0.21790000     18853.10 ; alkane, 4/98
    HAL3     CTL3     CTL3     5   110.100000   313.800000   0.21790000     18853.10 ; alkane, 4/98
     HBL     CTL1      CCL     5   109.500000   418.400000   0.00000000         0.00 ; for POPS
     HBL     CTL1     CTL2     5   111.000000   292.880000   0.00000000         0.00 ; for POPS
     NTL     CTL2     CTL2     5   115.000000   566.513600   0.00000000         0.00 ; tetramethylammonium
     NTL     CTL2     CTL3     5   115.000000   566.513600   0.00000000         0.00 ; tetramethylammonium
     HCL     NH3L     CTL2     5   109.500000   276.144000   0.20560000      3347.20 ; ethanolamine
     HCL     NH3L     CTL1     5   109.500000   251.040000   0.20740000     16736.00 ; for POPS
     HCL     NH3L      HCL     5   109.500000   343.088000   0.00000000         0.00 ; ethanolamine
    NH3L     CTL2     CTL2     5   110.000000   566.513600   0.00000000         0.00 ; ethanolamine
    NH3L     CTL2     HAL2     5   107.500000   376.560000   0.20836000     29288.00 ; ethanolamine
    CTL1     CTL1     CTL1     5   111.000000   446.432800   0.25610000      6694.40 ; alkane, 3/92
    NH3L     CTL1      CCL     5   110.000000   365.681600   0.00000000         0.00 ; for POPS
    NH3L     CTL1     CTL2     5   110.000000   566.513600   0.00000000         0.00 ; for POPS
    NH3L     CTL1      HBL     5   107.500000   430.952000   0.00000000         0.00 ; for POPS
    CTL1     CTL1     CTL2     5   113.500000   488.272800   0.25610000      9338.69 ; glycerol
    CTL1     CTL1     CTL3     5   108.500000   446.432800   0.25610000      6694.40 ; alkane, 3/92
    CTL1     CTL2     CTL1     5   113.500000   488.272800   0.25610000      9338.69 ; glycerol
    CTL1     CTL2     CTL2     5   113.500000   488.272800   0.25610000      9338.69 ; glycerol
    CTL1     CTL2     CTL3     5   113.500000   488.272800   0.25610000      9338.69 ; glycerol
    CTL2     CTL1     CTL2     5   113.500000   488.272800   0.25610000      9338.69 ; glycerol
    CTL2     CTL1     CTL3     5   113.500000   488.272800   0.25610000      9338.69 ; glycerol
    CTL2     CTL2     CTL2     5   113.600000   488.272800   0.25610000      9338.69 ; alkane, 3/92
    CTL2     CTL2     CTL3     5   115.000000   485.344000   0.25610000      6694.40 ; alkane, 3/92
    CTL3     CTL1     CTL3     5   113.500000   488.272800   0.25610000      9338.69 ; glycerol
     HOL      OHL     CTL1     5   106.000000   481.160000   0.00000000         0.00 ; glycerol
     HOL      OHL     CTL2     5   106.000000   481.160000   0.00000000         0.00 ; glycerol
     HOL      OHL     CTL3     5   106.000000   481.160000   0.00000000         0.00 ; glycerol
     OHL     CTL1     CTL1     5   110.100000   633.457600   0.00000000         0.00 ; glycerol, PIP
     OHL     CTL1     CTL2     5   110.100000   633.457600   0.00000000         0.00 ; glycerol
     OHL     CTL2     CTL1     5   110.100000   633.457600   0.00000000         0.00 ; glycerol
     OHL     CTL2     CTL2     5   110.100000   633.457600   0.00000000         0.00 ; glycerol
     OHL     CTL2     CTL3     5   110.100000   633.457600   0.00000000         0.00 ; glycerol
     OHL     CTL1     HAL1     5   108.890000   384.091200   0.00000000         0.00 ; glycerol
     OHL     CTL2     HAL2     5   108.890000   384.091200   0.00000000         0.00 ; glycerol
     OHL     CTL3     HAL3     5   108.890000   384.091200   0.00000000         0.00 ; glycerol
     O2L       SL      O2L     5   109.470000  1087.840000   0.24500000     29288.00 ; methylsulfate
     O2L       SL      OSL     5    98.000000   711.280000   0.00000000         0.00 ; methylsulfate
    CTL2      OSL       SL     5   109.000000   125.520000   0.19000000     22593.60 ; methylsulfate
    CTL3      OSL       SL     5   109.000000   125.520000   0.19000000     22593.60 ; methylsulfate
    CEL1     CEL1     CTL2     5   123.500000   401.664000   0.00000000         0.00 ; from 2-butene, yin,adm jr., 12/95
    CEL1     CEL1     CTL3     5   123.500000   401.664000   0.00000000         0.00 ; 2-butene, yin,adm jr., 12/95
    CEL2     CEL1     CTL2     5   126.000000   401.664000   0.00000000         0.00 ; 1-butene; from propene, yin,adm jr., 12/95
    CEL2     CEL1     CTL3     5   125.200000   393.296000   0.00000000         0.00 ; propene, yin,adm jr., 12/95
    HEL1     CEL1     CEL1     5   119.500000   435.136000   0.00000000         0.00 ; 2-butene, yin,adm jr., 12/95
    HEL1     CEL1     CEL2     5   118.000000   351.456000   0.00000000         0.00 ; propene, yin,adm jr., 12/95
    HEL1     CEL1     CTL2     5   116.000000   334.720000   0.00000000         0.00 ; 1-butene; from propene, yin,adm jr., 12/95
    HEL1     CEL1     CTL3     5   117.000000   184.096000   0.00000000         0.00 ; propene, yin,adm jr., 12/95
    HEL2     CEL2     CEL1     5   120.500000   376.560000   0.00000000         0.00 ; propene, yin,adm jr., 12/95
    HEL2     CEL2     CEL2     5   120.500000   464.424000   0.00000000         0.00 ; ethene, yin,adm jr., 12/95
    HEL2     CEL2     HEL2     5   119.000000   158.992000   0.00000000         0.00 ; propene, yin,adm jr., 12/95
    CEL1     CTL2     CTL2     5   112.200000   267.776000   0.00000000         0.00 ; 1-butene; from propene, yin,adm jr., 12/95
    CEL1     CTL2     CTL3     5   112.200000   267.776000   0.00000000         0.00 ; 1-butene; from propene, yin,adm jr., 12/95
    HAL2     CTL2     CEL1     5   111.500000   376.560000   0.00000000         0.00 ; 1-butene; from propene, yin,adm jr., 12/95
    HAL3     CTL3     CEL1     5   111.500000   351.456000   0.00000000         0.00 ; 2-butene, yin,adm jr., 12/95
    CEL1     CTL2     CEL1     5   114.000000   251.040000   0.00000000         0.00 ; 1,4-dipentene, adm jr., 2/00

; angle parameters from toppar_c36_jul22/par_all36_na.prm
;      i        j        k  func       theta0       ktheta          ub0          kub
     CN7      CN8      CN8     5   113.600000   488.272800   0.25610000      9338.69 ; alkane
     CN8      CN7      CN8     5   113.600000   488.272800   0.25610000      9338.69 ; alkane
     CN8      CN8      CN8     5   113.600000   488.272800   0.25610000      9338.69 ; alkane
     HN1      NN6      CN8     5   109.500000   251.040000   0.20740000     16736.00 ; methylammonium
     NN6      CN8      HN8     5   107.500000   376.560000   0.21010000     29288.00 ; methylammonium
     CN7      CN8      ON2     5   109.700000   962.320000   0.00000000         0.00 ; DNA exocyclic angles
     NN6      CN8      CN8     5   110.000000   566.513600   0.00000000         0.00 ; methylammonium
     HN1      NN6      HN1     5   109.500000   368.192000   0.00000000         0.00 ; methylammonium
     ON2      CN8      CN8     5   109.700000   962.320000   0.00000000         0.00 ; DNA exocyclic angles
     CN7      ON6     CN8B     5   109.000000   920.480000   0.00000000         0.00 ; 
     ON6     CN8B      CN8     5   106.000000   753.120000   0.00000000         0.00 ; 
    CN8B      CN8      CN7     5   106.000000   669.440000   0.00000000         0.00 ; 
     ON6     CN8B      HN8     5   107.240000   378.233600   0.00000000         0.00 ; 
     HN8     CN8B      CN8     5   110.100000   288.947040   0.21790000     18853.10 ; alkane
     HN8      CN8     CN8B     5   110.100000   288.947040   0.21790000     18853.10 ; alkane
     CN2     NN3A      CN4     5   117.800000   753.120000   0.00000000         0.00 ; 6R) adm jr. 11/97
    NN3A      CN4     NN3A     5   133.000000   502.080000   0.00000000         0.00 ; 6R)
     CN4     NN3A      CN5     5   110.100000   753.120000   0.00000000         0.00 ; 6R)
     CN5      CN5     NN3A     5   127.400000   502.080000   0.00000000         0.00 ; 6R) bridgeC4
     CN2      CN5      CN5     5   121.000000   502.080000   0.00000000         0.00 ; 6R) bridgeC5
     CN5      CN2     NN3A     5   110.700000   502.080000   0.00000000         0.00 ; 6R)
     CN5      CN5      NN2     5   105.700000   836.800000   0.00000000         0.00 ; 5R) bridgeC4
     CN5      CN5      NN4     5   110.000000   836.800000   0.00000000         0.00 ; 5R) bridgeC5
     CN4      NN4      CN5     5   104.600000  1004.160000   0.00000000         0.00 ; 5R)
     NN2      CN4      NN4     5   113.400000   836.800000   0.00000000         0.00 ; 5R)
     CN4      NN2      CN5     5   106.300000   836.800000   0.00000000         0.00 ; 5R)
     NN2      CN5     NN3A     5   126.900000   836.800000   0.00000000         0.00 ; bridgeC4
     CN2      CN5      NN4     5   129.000000   836.800000   0.00000000         0.00 ; bridgeC5
     HN3      CN4     NN3A     5   113.500000   317.984000   0.00000000         0.00 ; h2
    NN3A      CN2      NN1     5   130.700000   418.400000   0.00000000         0.00 ; n6
     CN5      CN2      NN1     5   118.600000   418.400000   0.00000000         0.00 ; 
     CN2      NN1      HN1     5   121.500000   334.720000   0.00000000         0.00 ; h61,h62, C,A,G
     HN1      NN1      HN1     5   117.000000   259.408000   0.00000000         0.00 ; C,A,G
     NN4      CN4      HN3     5   124.800000   326.352000   0.00000000         0.00 ; h8, G,A
     NN2      CN4      HN3     5   121.800000   326.352000   0.00000000         0.00 ; 
     CN5      NN2      HN2     5   129.400000   251.040000   0.00000000         0.00 ; h9
     CN4      NN2      HN2     5   125.000000   251.040000   0.00000000         0.00 ; 
     CN1     NN2G      CN2     5   131.100000   585.760000   0.00000000         0.00 ; 6R)G, adm jr. 11/97
    NN2G      CN2     NN3G     5   122.200000   585.760000   0.00000000         0.00 ; 6R)
     CN2     NN3G      CN5     5   109.400000   753.120000   0.00000000         0.00 ; 6R)
    CN5G      CN5     NN3G     5   129.900000   585.760000   0.00000000         0.00 ; 6R) bridgeC4
     CN1     CN5G      CN5     5   119.600000   585.760000   0.00000000         0.00 ; 6R) bridgeC5
    CN5G      CN1     NN2G     5   107.800000   585.760000   0.00000000         0.00 ; 6R)
    CN5G      CN5     NN2B     5   104.600000   836.800000   0.00000000         0.00 ; 5R) bridgeC4
     CN5     CN5G      NN4     5   111.400000   836.800000   0.00000000         0.00 ; 5R) bridgeC5
     CN4      NN4     CN5G     5   103.800000  1004.160000   0.00000000         0.00 ; 5R)
    NN2B      CN4      NN4     5   113.000000   836.800000   0.00000000         0.00 ; 5R)
     CN4     NN2B      CN5     5   107.200000   836.800000   0.00000000         0.00 ; 5R)
    NN2B      CN5     NN3G     5   125.500000  1171.520000   0.00000000         0.00 ; bridgeC4
     CN1     CN5G      NN4     5   129.000000  1046.000000   0.00000000         0.00 ; bridgeC5
     CN1     NN2G      HN2     5   113.300000   376.560000   0.00000000         0.00 ; h1
     CN2     NN2G      HN2     5   115.600000   376.560000   0.00000000         0.00 ; 
     NN1      CN2     NN2G     5   115.400000   794.960000   0.00000000         0.00 ; n2
     NN1      CN2     NN3G     5   122.400000   794.960000   0.00000000         0.00 ; 
    NN2G      CN1      ON1     5   127.500000   418.400000   0.00000000         0.00 ; o6
    CN5G      CN1      ON1     5   124.700000   418.400000   0.00000000         0.00 ; 
     HN3      CN4     NN2B     5   122.200000   334.720000   0.00000000         0.00 ; h8 (NN4 CN4 HN3 124.8)
     CN4     NN2B      HN2     5   124.600000   251.040000   0.00000000         0.00 ; h9
     CN5     NN2B      HN2     5   129.300000   251.040000   0.00000000         0.00 ; 
     CN1      NN2      CN3     5   124.100000   418.400000   0.00000000         0.00 ; C, adm jr. 11/97
     NN2      CN1      NN3     5   116.800000   418.400000   0.00000000         0.00 ; C
     CN1      NN3      CN2     5   119.100000   711.280000   0.00000000         0.00 ; C
     CN3      CN2      NN3     5   119.300000   711.280000   0.00000000         0.00 ; C
     CN2      CN3      CN3     5   117.800000   711.280000   0.00000000         0.00 ; C
     CN3      CN3      NN2     5   122.900000   711.280000   0.00000000         0.00 ; C
     CN1      NN2      HN2     5   121.200000   309.616000   0.00000000         0.00 ; C, h1
     CN3      NN2      HN2     5   114.700000   309.616000   0.00000000         0.00 ; C
     NN2      CN1     ON1C     5   119.400000  1087.840000   0.00000000         0.00 ; C, o2
     NN3      CN1     ON1C     5   123.800000  1087.840000   0.00000000         0.00 ; C
     NN3      CN2      NN1     5   122.300000   677.808000   0.00000000         0.00 ; C, n4
     CN3      CN2      NN1     5   118.400000   677.808000   0.00000000         0.00 ; C
     CN2      CN3      HN3     5   120.100000   317.984000   0.00000000         0.00 ; C h5
     CN3      CN3      HN3     5   122.100000   317.984000   0.00000000         0.00 ; C,U
     HN3      CN3      NN2     5   115.000000   368.192000   0.00000000         0.00 ; C, h6
    CN1T     NN2B      CN3     5   122.000000   585.760000   0.00000000         0.00 ; U, adm jr. 11/97
    NN2B     CN1T     NN2U     5   114.000000   418.400000   0.00000000         0.00 ; U
    CN1T     NN2U      CN1     5   130.200000   418.400000   0.00000000         0.00 ; U
    NN2U      CN1      CN3     5   112.600000   585.760000   0.00000000         0.00 ; U
     CN1      CN3      CN3     5   117.600000   836.800000   0.00000000         0.00 ; U
     CN3      CN3     NN2B     5   123.600000   836.800000   0.00000000         0.00 ; U
    CN1T     NN2B      HN2     5   122.000000   338.904000   0.00000000         0.00 ; U, h1
     CN3     NN2B      HN2     5   116.000000   267.776000   0.00000000         0.00 ; U
    NN2B     CN1T      ON1     5   121.600000   836.800000   0.00000000         0.00 ; U, o2
    NN2U     CN1T      ON1     5   124.400000   836.800000   0.00000000         0.00 ; U
    CN1T     NN2U      HN2     5   114.400000   338.904000   0.00000000         0.00 ; U, h3
     CN1     NN2U      HN2     5   115.400000   338.904000   0.00000000         0.00 ; U
    NN2U      CN1      ON1     5   121.900000   836.800000   0.00000000         0.00 ; U, o4
     CN3      CN1      ON1     5   125.500000   836.800000   0.00000000         0.00 ; U,
     CN1      CN3      HN3     5   120.300000   251.040000   0.00000000         0.00 ; U, h5
     HN3      CN3     NN2B     5   114.300000   251.040000   0.00000000         0.00 ; U, h6
    CN3T      CN1     NN2U     5   113.500000   585.760000   0.00000000         0.00 ; T, adm jr. 11/97
     CN1     CN3T      CN3     5   116.700000  1004.160000   0.00000000         0.00 ; T
    CN3T      CN3     NN2B     5   123.600000  1004.160000   0.00000000         0.00 ; 125.3  !T
    CN3T      CN1      ON1     5   124.600000   836.800000   0.00000000         0.00 ; T, o4
     CN1     CN3T      CN9     5   118.700000   317.984000   0.00000000         0.00 ; T, c5 methyl
     CN3     CN3T      CN9     5   124.600000   317.984000   0.00000000         0.00 ; T
    CN3T      CN3      HN3     5   122.100000   251.040000   0.00000000         0.00 ; T, h6
    CN1T     NN2B      CN9     5   116.000000   585.760000   0.00000000         0.00 ; 1-M-T/U, adm jr.
     CN3     NN2B      CN9     5   122.000000   585.760000   0.00000000         0.00 ; 1-M-T/U, adm jr. 7/24/91
     CN1      NN2      CN9     5   115.400000   585.760000   0.00000000         0.00 ; 1-M-C, adm jr.
     CN3      NN2      CN9     5   120.500000   585.760000   0.00000000         0.00 ; 1-M-C, adm jr. 7/24/91
     CN5      NN2      CN9     5   125.900000   585.760000   0.00000000         0.00 ; 9-M-A, adm jr.
     CN4      NN2      CN9     5   127.800000   585.760000   0.00000000         0.00 ; 9-M-A, adm jr.
     CN5     NN2B      CN9     5   125.900000   585.760000   0.00000000         0.00 ; 9-M-G, adm jr.
     CN4     NN2B      CN9     5   126.900000   585.760000   0.00000000         0.00 ; 9-M-G, adm jr.
     CN5     NN2B      CN8     5   125.900000   585.760000   0.00000000         0.00 ; 9-E-G, adm jr.
     CN4     NN2B      CN8     5   126.900000   585.760000   0.00000000         0.00 ; 9-E-G, adm jr.
    NN2B      CN8      CN9     5   113.700000   585.760000   0.00000000         0.00 ; 9-E-G, adm jr.
    CN1T     NN2B     CN7B     5   118.400000   376.560000   0.00000000         0.00 ; U/T, FC from A
     CN3     NN2B     CN7B     5   119.600000   376.560000   0.00000000         0.00 ; U/T
     CN1      NN2     CN7B     5   120.000000   376.560000   0.00000000         0.00 ; C, FC from A
     CN3      NN2     CN7B     5   115.900000   376.560000   0.00000000         0.00 ; C
     CN5      NN2     CN7B     5   126.100000   376.560000   0.00000000         0.00 ; A
     CN4      NN2     CN7B     5   127.600000   376.560000   0.00000000         0.00 ; A
     CN5     NN2B     CN7B     5   126.500000   376.560000   0.00000000         0.00 ; G
     CN4     NN2B     CN7B     5   126.300000   376.560000   0.00000000         0.00 ; G
     ON6     CN7B      NN2     5   108.000000   920.480000   0.00000000         0.00 ; C/A DNA
    ON6B     CN7B      NN2     5   112.000000   920.480000   0.00000000         0.00 ; C/A RNA
     CN8     CN7B      NN2     5   113.700000   920.480000   0.00000000         0.00 ; C/A
    CN7B     CN7B      NN2     5   111.000000   920.480000   0.00000000         0.00 ; C/A, RNA
     ON6     CN7B     NN2B     5   108.000000   920.480000   0.00000000         0.00 ; T/U/G (DNA) FC from A
    ON6B     CN7B     NN2B     5   112.000000   920.480000   0.00000000         0.00 ; T/U/G (RNA) FC from A
     CN8     CN7B     NN2B     5   113.700000   920.480000   0.00000000         0.00 ; T/U/G
    CN7B     CN7B     NN2B     5   111.000000   920.480000   0.00000000         0.00 ; T/U/G, RNA
     HN7     CN7B      NN2     5   111.000000   359.824000   0.00000000         0.00 ; 
     HN7     CN7B     NN2B     5   111.000000   359.824000   0.00000000         0.00 ; From HN7  CN7B NN2
     CN9      CN8      HN8     5   110.100000   289.532800   0.21790000     18853.10 ; Alkanes, sacred
     CN9      CN7      HN7     5   110.100000   289.532800   0.21790000     18853.10 ; Alkanes, sacred
     HN8      CN8      NN2     5   110.100000   279.742240   0.00000000         0.00 ; FOR 9-M-ADE(THY), ADM
     HN8      CN8      ON5     5   108.890000   384.091200   0.00000000         0.00 ; RIBOSE, Adm Jr. MeOH
     CN3      CN9      HN9     5   110.100000   279.742240   0.21790000     18853.10 ; Alkanes, sacred
    CN3T      CN9      HN9     5   110.100000   279.742240   0.21790000     18853.10 ; Alkanes, sacred
     CN8      CN9      HN9     5   110.100000   289.532800   0.21790000     18853.10 ; Alkanes, sacred
     HN9      CN9      CN7     5   110.100000   279.742240   0.21790000     18853.10 ; Alkanes, sacred
     HN9      CN9      NN2     5   110.100000   279.742240   0.00000000         0.00 ; FOR 9-M-A(T), adm jr.
     HN9      CN9     NN2B     5   110.100000   279.742240   0.00000000         0.00 ; FOR 9-M-G(C), adm jr.
     HN8      CN8     NN2B     5   110.100000   279.742240   0.00000000         0.00 ; FOR 9-E-G, adm jr.
     HN9      CN9      ON2     5   109.500000   502.080000   0.00000000         0.00 ; DMP, ADM Jr.
     CN9      ON2        P     5   120.000000   167.360000   0.23300000     29288.00 ; DMP, ADM Jr.
     HN4      ON4        P     5   115.000000   251.040000   0.23500000     33472.00 ; MP_1, ADM Jr.
     HN4      ON4       P2     5   115.000000   251.040000   0.23500000     33472.00 ; MP_1, ADM Jr. , adm, 2011 DNA update
     HN5      ON5      CN8     5   106.000000   481.160000   0.00000000         0.00 ; RIBOSE, Adm Jr. MeOH
     HN5      ON5      CN9     5   106.000000   481.160000   0.00000000         0.00 ; RIBOSE, Adm Jr. MeOH
     ON2        P      ON2     5   104.300000   669.440000   0.00000000         0.00 ; DMP, ADM Jr.
     ON2       P2      ON2     5   104.300000   669.440000   0.00000000         0.00 ; DMP, ADM Jr., adm, 2011 DNA update
     ON2        P      ON4     5   108.000000   402.500800   0.00000000         0.00 ; MP_1, ADM Jr.
     ON2       P2      ON4     5   108.000000   402.500800   0.00000000         0.00 ; MP_1, ADM Jr., adm, 2011 DNA update
     ON3        P      ON4     5   108.230000   827.595200   0.00000000         0.00 ; MP_1, ADM Jr.
     ON3       P2      ON4     5   108.230000   827.595200   0.00000000         0.00 ; MP_1, ADM Jr., adm, 2011 DNA update
     ON4        P      ON4     5   104.000000   827.595200   0.00000000         0.00 ; MP_0, ADM Jr.
     ON4       P2      ON4     5   104.000000   827.595200   0.00000000         0.00 ; MP_0, ADM Jr., adm, 2011 DNA update
     CN7      CN8      ON5     5   110.100000   633.457600   0.00000000         0.00 ; RIBOSE, adm jr. MeOH
     HN9      CN9      HN9     5   108.400000   297.064000   0.18020000      4518.72 ; alkane update, adm jr. 3/2/92
     CN7      ON6     CN7B     5   108.000000   920.480000   0.00000000         0.00 ; NF, 11/97, C4'O4'C1'
     ON6     CN7B      CN8     5   102.000000   753.120000   0.00000000         0.00 ; NF, 11/97, C4'O4'C1'
    CN7B      CN8      CN7     5   100.000000   669.440000   0.00000000         0.00 ; NF, 11/97, C1'C2'C3'
     CN8      CN7      CN7     5   102.000000   502.080000   0.25610000      6694.40 ; NF, 11/97, C2'C3'C4'
     CN9      CN7      CN7     5   102.000000   502.080000   0.25610000      6694.40 ; for 5MET, adm jr.
     CN7      CN7      ON6     5   104.000000   836.800000   0.00000000         0.00 ; NF, 11/97, C3'C4'O4'
     HN7      CN7      ON6     5   107.240000   378.233600   0.00000000         0.00 ; 
     HN7     CN7B      ON6     5   107.240000   378.233600   0.00000000         0.00 ; 
     HN7      CN7      CN7     5   108.000000   334.720000   0.00000000         0.00 ; 
    CN7B      CN8      HN8     5   110.100000   279.491200   0.21790000     18853.10 ; following terms directly
     CN8     CN7B      HN7     5   110.100000   279.491200   0.21790000     18853.10 ; from alkanes
     HN7      CN7      CN8     5   110.100000   288.696000   0.21790000     18853.10 ; 
     HN8      CN8      CN7     5   110.100000   288.947040   0.21790000     18853.10 ; 
     HN8      CN8      CN8     5   110.100000   288.947040   0.21790000     18853.10 ; 
     HN8      CN8      HN8     5   109.000000   297.064000   0.18020000      4518.72 ; 
     HN7      CN7      HN7     5   109.000000   297.064000   0.18020000      4518.72 ; 
     CN7     ON6B     CN7B     5   115.000000   920.480000   0.00000000         0.00 ; From CN7  ON6  CN7B
     CN7      CN7     ON6B     5   110.000000   836.800000   0.00000000         0.00 ; From CN7  CN7  ON6
    ON6B     CN7B     CN7B     5   106.000000   753.120000   0.00000000         0.00 ; 030998
    CN7B     CN7B      CN7     5    96.000000   920.480000   0.00000000         0.00 ; 
    CN7B      CN7      CN7     5   100.000000   502.080000   0.25610000      6694.40 ; NF, 11/97, C2'C3'C4'
     HN7      CN7     ON6B     5   107.240000   378.233600   0.00000000         0.00 ; 
     HN7     CN7B     ON6B     5   107.240000   378.233600   0.00000000         0.00 ; 
    CN7B     CN7B      HN7     5   110.100000   279.491200   0.21790000     18853.10 ; following terms directly
     HN7     CN7B      HN7     5   109.000000   297.064000   0.18020000      4518.72 ; 
     ON6      CN7     CN8B     5   108.200000   753.120000   0.00000000         0.00 ; NF, 11/97, O4'C4'C5'
     ON6      CN7      CN9     5   108.200000   753.120000   0.00000000         0.00 ; for 5MET, adm jr.
     CN7      CN7     CN8B     5   110.000000   376.560000   0.00000000         0.00 ; NF, 11/97, C3'C4'C5'
     CN8      CN7     CN8B     5   113.600000   488.272800   0.25610000      9338.69 ; from alkane, 25P1
     CN7     CN8B      ON2     5   108.400000   585.760000   0.00000000         0.00 ; NF, 11/97, C4'C5'O5'
     CN7      CN7      ON2     5   109.700000   962.320000   0.00000000         0.00 ; NF, 11/97, C4'C3'O3'
    CN7B     CN7B      ON2     5   109.700000   962.320000   0.00000000         0.00 ; NF, 11/97, C4'C3'O3' for NADPH and bkbmod
     CN8      CN7      ON2     5   109.700000   962.320000   0.00000000         0.00 ; NF, 11/97, C2'C3'O3'
    CN8B      ON2        P     5   120.000000   167.360000   0.23300000     29288.00 ; NF, 11/97, C5'O5'P
    CN8B      ON2       P2     5   120.000000   167.360000   0.23300000     29288.00 ; NF, 11/97, C5'O5'P, adm, 2011 DNA update
     CN7      ON2        P     5   120.000000   167.360000   0.23300000     29288.00 ; NF, 11/97, C3'O3'P
     CN7      ON2       P2     5   120.000000   167.360000   0.23300000     29288.00 ; NF, 11/97, C3'O3'P, adm, 2011 DNA update
    CN7B      ON2        P     5   120.000000   167.360000   0.23300000     29288.00 ; NF, 11/97, C3'O3'P, for NADPH and bkbmod
    CN7B      ON2       P2     5   120.000000   167.360000   0.23300000     29288.00 ; NF, 11/97, C3'O3'P, for NADPH and bkbmod, adm, 2011 DNA update
     HN7      CN7     CN8B     5   110.100000   288.696000   0.21790000     18853.10 ; From HN7  CN7  CN8
     HN8     CN8B      ON2     5   109.500000   502.080000   0.00000000         0.00 ; From HN7  CN8  ON2
     HN5      ON5     CN8B     5   106.000000   481.160000   0.00000000         0.00 ; From HN5  ON5  CN8
     HN8     CN8B      HN8     5   109.000000   297.064000   0.18020000      4518.72 ; Alkanes, sacred
     HN8     CN8B      CN7     5   110.100000   288.947040   0.21790000     18853.10 ; Alkanes, sacred
     HN7      CN7      ON2     5   109.500000   502.080000   0.00000000         0.00 ; DMP, adm jr. from HN7  CN8  ON2
     HN7     CN7B      ON2     5   109.500000   502.080000   0.00000000         0.00 ; DMP, adm jr. from HN7  CN8  ON2, for NADPH and bkbmod
     CN7     CN8B      ON5     5   110.100000   633.457600   0.00000000         0.00 ; From CN7  CN8B  ON5
    CN8B      CN7      ON5     5   108.200000   753.120000   0.00000000         0.00 ; phosphoramidate, carbocyclic
     HN8     CN8B      ON5     5   108.890000   384.091200   0.00000000         0.00 ; From HN7  CN8  ON5
     ON5      CN7      CN8     5   110.000000   633.457600   0.00000000         0.00 ; from CHARMM22
     ON5      CN7      CN7     5   110.100000   633.457600   0.00000000         0.00 ; 
     HN7      CN7      ON5     5   109.500000   502.080000   0.00000000         0.00 ; 
     HN5      ON5      CN7     5   109.000000   481.160000   0.00000000         0.00 ; 
    ON6B      CN7     CN8B     5   108.200000   753.120000   0.00000000         0.00 ; 
    ON6B      CN7      CN9     5   108.200000   753.120000   0.00000000         0.00 ; for 5MET patch, adm jr.
     ON2      CN7     CN7B     5   110.000000   753.120000   0.00000000         0.00 ; 
     ON5      CN7     CN7B     5   110.000000   753.120000   0.00000000         0.00 ; From ON5  CN7  CN8
     ON5     CN7B     CN7B     5   108.400000   669.440000   0.00000000         0.00 ; 
     ON5     CN7B      CN7     5   108.000000   753.120000   0.00000000         0.00 ; 
     HN7     CN7B      ON5     5   109.500000   502.080000   0.00000000         0.00 ; 
     HN5      ON5     CN7B     5   109.000000   481.160000   0.00000000         0.00 ; 
     HN7     CN7B      CN7     5   110.100000   288.947040   0.21790000     18853.10 ; 
     HN7      CN7     CN7B     5   110.100000   288.947040   0.21790000     18853.10 ; 
     CN8      ON2        P     5   120.000000   167.360000   0.23300000     29288.00 ; DMP, adm jr.
     CN8      ON2       P2     5   120.000000   167.360000   0.23300000     29288.00 ; DMP, adm jr., adm 2011 DNA update
     ON2        P      ON3     5   111.600000   827.595200   0.00000000         0.00 ; DMP, adm jr.
     ON2       P2      ON3     5   111.600000   827.595200   0.00000000         0.00 ; DMP, adm jr., adm, 2011 DNA update
     ON3        P      ON3     5   120.000000  1004.160000   0.00000000         0.00 ; DMP, adm jr.
     ON3       P2      ON3     5   120.000000  1004.160000   0.00000000         0.00 ; DMP, adm jr., adm, 2011 DNA update
     HN8      CN8      ON2     5   109.500000   502.080000   0.00000000         0.00 ; DMP, adm jr.
     ON5        P      ON3     5   111.600000   827.595200   0.00000000         0.00 ; From ON2 P ON3
     ON6     CN7B      CN7     5   106.250000  1004.160000   0.00000000         0.00 ; 
    CN7B      CN7      CN8     5   113.600000   488.272800   0.25610000      9338.69 ; 
       P      ON2        P     5   140.000000   125.520000   0.28000000    -33472.00 ; nad/ppi, jjp1/adm jr. 7/95
     CN9      ON2       P3     5   120.000000   167.360000   0.23300000     29288.00 ; nad/ppi, jjp1/adm jr. 7/95
      P3      ON2        P     5   140.000000   125.520000   0.28000000    -33472.00 ; nad/ppi, jjp1/adm jr. 7/95
      P4      ON2        P     5   140.000000   376.560000   0.31500000     33472.00 ; PPI2, from nad/ppi, adm jr., 7/01
      P3      ON2       P3     5   140.000000   125.520000   0.28000000    -33472.00 ; nad/ppi, jjp1/adm jr. 7/95
     HN4      ON4       P4     5   120.000000   251.040000   0.23500000     33472.00 ; PPI2, from MP_1, adm jr., 7/01
     ON2       P4      ON4     5   100.000000   402.500800   0.00000000         0.00 ; PPI2, from MP_1, adm jr., 7/01
     ON3       P4      ON4     5   108.230000   827.595200   0.00000000         0.00 ; PPI2, from MP_1, adm jr., 7/01
     ON2       P3      ON2     5   104.300000   669.440000   0.00000000         0.00 ; nad/ppi, jjp1/adm jr. 7/95
     ON2       P3      ON3     5   111.600000   743.915200   0.00000000         0.00 ; nad/ppi, jjp1/adm jr. 7/95
     ON2       P4      ON3     5   105.000000   743.915200   0.00000000         0.00 ; PPI2, from nad/ppi, adm jr., 7/01
     ON3       P3      ON3     5   120.000000   870.272000   0.00000000         0.00 ; nad/ppi, jjp1/adm jr. 7/95
     ON3       P4      ON3     5   120.000000   870.272000   0.00000000         0.00 ; PPI2, from nad/ppi, adm jr., 7/01

; angle parameters from toppar_c36_jul22/par_all36m_prot.prm
;      i        j        k  func       theta0       ktheta          ub0          kub
       H      NH2      CT1     5   111.000000   418.400000   0.00000000         0.00 ; From LSN HC-NH2-CT2
       H      NH2      CT2     5   111.000000   418.400000   0.00000000         0.00 ; From LSN HC-NH2-CT2, Neutral Gly Nterminus
     NH2      CT1      CT1     5   110.000000   566.513600   0.00000000         0.00 ; From LSN NH2-CT2-CT2
     NH2      CT1      CT2     5   110.000000   566.513600   0.00000000         0.00 ; From LSN NH2-CT2-CT2
     NH2      CT1     CT2A     5   110.000000   566.513600   0.00000000         0.00 ; From LSN NH2-CT2-CT2
     NH2      CT1      CT3     5   110.000000   566.513600   0.00000000         0.00 ; From LSN NH2-CT2-CT2
     CT1       CD      OH1     5   110.500000   460.240000   0.00000000         0.00 ; From ASPP CT2-CD-OH1
     CT3      CT1       CD     5   108.000000   435.136000   0.00000000         0.00 ; Ala cter
     NH2      CT1      HB1     5   109.500000   317.984000   0.21400000     41840.00 ; From LSN NH2-CT2-HA
     NH2      CT1        C     5   107.000000   418.400000   0.00000000         0.00 ; From ALA Dipep. NH1-CT2-C
     NH2      CT1       CC     5   107.000000   418.400000   0.00000000         0.00 ; From ALA Dipep. NH1-CT2-C, for nsam
     NH2      CT1       CD     5   107.000000   418.400000   0.00000000         0.00 ; From ALA Dipep. NH1-CT2-C
     NH2      CT2        C     5   107.000000   418.400000   0.00000000         0.00 ; From ALA Dipep. NH1-CT2-C, Neutral Gly Nterminus
     HB2      CT1      HB2     5   115.000000   301.248000   0.00000000         0.00 ; from HB2  CT2  HB2
     HB2      CT1       CD     5   109.500000   418.400000   0.00000000         0.00 ; from HB2  CT2  CD
     NH1      CT1      HB2     5   108.000000   401.664000   0.00000000         0.00 ; from NH1  CT2  HB2
     CAI      CAI       CA     5   120.000000   334.720000   0.24162000     29288.00 ; from CA CA CA
     CAI       CA       CA     5   120.000000   334.720000   0.24162000     29288.00 ; from CA CA CA
     CPT       CA       CA     5   113.200000   418.400000   0.00000000         0.00 ; atm, methylindole, 1/17/04
     CPT      CPT       CA     5   110.000000   418.400000   0.00000000         0.00 ; atm, methylindole, 1/17/04
     CPT      CAI       CA     5   113.200000   418.400000   0.00000000         0.00 ; atm, methylindole, 1/17/04
     CPT      CPT      CAI     5   110.000000   418.400000   0.00000000         0.00 ; atm, methylindole, 1/17/04
     CPT       CY       CA     5   106.400000   711.280000   0.22610000     20920.00 ; atm, methylindole, 1/17/04
     CPT       NY       CA     5   112.000000   711.280000   0.00000000         0.00 ; atm, methylindole, 1/17/04
     CT2       CY       CA     5   127.000000   251.040000   0.00000000         0.00 ; atm, methylindole, CT3  CY   CA
     CT2       CY      CPT     5   126.700000   251.040000   0.00000000         0.00 ; atm, methylindole, 1/17/04
     CT3       CY       CA     5   127.000000   251.040000   0.00000000         0.00 ; atm, methylindole, CT3  CY   CA
     CT3       CY      CPT     5   126.700000   251.040000   0.00000000         0.00 ; atm, methylindole, 1/17/04
      CY      CPT       CA     5   133.500000  1087.840000   0.00000000         0.00 ; atm, methylindole, 1/17/04
      CY      CPT      CAI     5   133.500000  1087.840000   0.00000000         0.00 ; atm, methylindole, 1/17/04
      CY      CPT      CPT     5   108.000000   711.280000   0.00000000         0.00 ; atm, methylindole, 1/17/04
      CY      CT2      CT1     5   114.000000   488.272800   0.00000000         0.00 ; from TRP crystal, JWK
      CY      CT2      CT3     5   114.000000   488.272800   0.00000000         0.00 ; from TRP crystal, JWK
       H       NY       CA     5   126.000000   234.304000   0.00000000         0.00 ; trp, adm jr., 12/30/91
       H       NY      CAI     5   126.000000   234.304000   0.00000000         0.00 ; trp, adm jr., 12/30/91
       H       NY      CPT     5   126.000000   234.304000   0.00000000         0.00 ; trp, adm jr., 12/30/91
     HA2      CT2       CY     5   109.500000   460.240000   0.00000000         0.00 ; atm, methylindole, 1/17/04
     HA3      CT3       CY     5   109.500000   460.240000   0.00000000         0.00 ; atm, methylindole, 1/17/04
      HP       CA      CAI     5   120.000000   251.040000   0.21525000     18409.60 ; from HP CA CA
      HP      CAI       CA     5   120.000000   251.040000   0.21525000     18409.60 ; from HP CA CA
      HP       CA      CPT     5   122.000000   251.040000   0.21460000     18409.60 ; trp, adm jr., 12/30/91
      HP      CAI      CPT     5   122.000000   251.040000   0.21460000     18409.60 ; from HP CA CPT
      HP       CA       CY     5   125.000000   267.776000   0.21730000     20920.00 ; JWK 05/14/91 new theta0 and r0UB from indole
      HP       CY       CA     5   126.400000   267.776000   0.21860000     20920.00 ; trp, adm jr., 12/30/91
      HP       CY      CPT     5   126.400000   267.776000   0.22550000     20920.00 ; JWK 05/14/91 new theta0 and r0UB from indole
      NY       CA       CY     5   110.500000   711.280000   0.22400000     20920.00 ; trp, adm jr., 12/30/91
      NY       CA       HP     5   125.000000   267.776000   0.21770000     20920.00 ; JWK 05/14/91 new theta0 and r0UB from indole
      NY      CPT       CA     5   129.500000  1087.840000   0.00000000         0.00 ; atm, methylindole, 1/17/04
      NY      CPT      CAI     5   129.500000  1087.840000   0.00000000         0.00 ; atm, methylindole, 1/17/04
      NY      CPT      CPT     5   107.400000   794.960000   0.00000000         0.00 ; atm, methylindole, 1/17/04
      CA       CA       CA     5   120.000000   334.720000   0.24162000     29288.00 ; ALLOW   ARO
     CE1      CE1      CT2     5   123.500000   401.664000   0.00000000         0.00 ; 
     CE1      CE1      CT3     5   123.500000   401.664000   0.00000000         0.00 ; 
     CE1      CT2      CT3     5   112.200000   267.776000   0.00000000         0.00 ; 
     CE2      CE1      CT2     5   126.000000   401.664000   0.00000000         0.00 ; 
     CE2      CE1      CT3     5   125.200000   393.296000   0.00000000         0.00 ; 
     CP1        N        C     5   117.000000   502.080000   0.00000000         0.00 ; ALLOW PRO
     CP2      CP1        C     5   112.300000   435.136000   0.00000000         0.00 ; ALLOW PRO
     CP2      CP1       CC     5   112.300000   435.136000   0.00000000         0.00 ; ALLOW PRO
     CP2      CP1       CD     5   112.300000   418.400000   0.00000000         0.00 ; ALLOW PRO PEP
     CP2      CP2      CP1     5   108.500000   585.760000   0.00000000         0.00 ; ALLOW PRO
     CP3      CP2      CP2     5   108.500000   585.760000   0.00000000         0.00 ; ALLOW PRO
     CP3        N        C     5   117.000000   502.080000   0.00000000         0.00 ; ALLOW PRO
     CP3        N      CP1     5   114.200000   836.800000   0.00000000         0.00 ; ALLOW PRO
     CP3       NP      CP1     5   111.000000   836.800000   0.00000000         0.00 ; ALLOW PRO
    CPH2      NR1     CPH1     5   107.500000  1087.840000   0.00000000         0.00 ; ALLOW ARO
    CPH2      NR2     CPH1     5   104.000000  1087.840000   0.00000000         0.00 ; ALLOW ARO
    CPH2      NR3     CPH1     5   108.000000  1213.360000   0.00000000         0.00 ; ALLOW ARO
     CT1      CT1        C     5   108.000000   435.136000   0.00000000         0.00 ; ALLOW   ALI PEP POL ARO
     CT1      CT1       CC     5   108.000000   435.136000   0.00000000         0.00 ; ALLOW   ALI PEP POL ARO
     CT1      CT1       CD     5   108.000000   435.136000   0.00000000         0.00 ; ALLOW   ALI PEP POL ARO
     CT1      CT1      CT1     5   111.000000   446.432800   0.25610000      6694.40 ; ALLOW ALI
     CT1      CT2       CA     5   107.500000   433.462400   0.00000000         0.00 ; ALLOW   ALI ARO
     CT1      CT2       CC     5   108.000000   435.136000   0.00000000         0.00 ; ALLOW   ALI PEP POL ARO
     CT1      CT2       CD     5   108.000000   435.136000   0.00000000         0.00 ; ALLOW   ALI PEP POL ARO
     CT1      CT2     CPH1     5   113.000000   488.272800   0.00000000         0.00 ; ALLOW ARO
     CT1      CT2      CT1     5   113.500000   488.272800   0.25610000      9338.69 ; ALLOW   ALI
     CT1      NH1        C     5   120.000000   418.400000   0.00000000         0.00 ; ALLOW   ALI PEP POL ARO
     CT2       CA       CA     5   122.300000   383.254400   0.00000000         0.00 ; ALLOW   ALI ARO
     CT2     CPH1     CPH1     5   130.000000   383.254400   0.00000000         0.00 ; ALLOW ARO
     CT2      CT1        C     5   108.000000   435.136000   0.00000000         0.00 ; ALLOW   ALI PEP POL ARO
     CT2      CT1       CC     5   108.000000   435.136000   0.00000000         0.00 ; ALLOW   ALI PEP POL ARO
    CT2A      CT1       CC     5   108.000000   435.136000   0.00000000         0.00 ; ALLOW   ALI PEP POL ARO
     CT2      CT1       CD     5   108.000000   435.136000   0.00000000         0.00 ; ALLOW   ALI PEP POL ARO
     CT2      CT1      CT1     5   111.000000   446.432800   0.25610000      6694.40 ; ALLOW   ALI
     CT2      CT2        C     5   108.000000   435.136000   0.00000000         0.00 ; ALLOW   ALI PEP POL ARO
     CT2      CT2       CC     5   108.000000   435.136000   0.00000000         0.00 ; ALLOW   ALI PEP POL ARO
     CT3      CT2       CC     5   108.000000   435.136000   0.00000000         0.00 ; ALLOW   ALI PEP POL ARO
     CT2      CT2       CD     5   108.000000   435.136000   0.00000000         0.00 ; ALLOW   ALI PEP POL ARO
    CT2A      CT2       CD     5   108.000000   435.136000   0.00000000         0.00 ; for GLUP, ZHU
     CT2      CT2      CT1     5   113.500000   488.272800   0.25610000      9338.69 ; ALLOW   ALI
     CT2      CT2      CT2     5   113.600000   488.272800   0.25610000      9338.69 ; ALLOW   ALI
     CT2      CT3      CT1     5   113.500000   488.272800   0.25610000      9338.69 ; ALLOW   ALI
     CT2      NC2        C     5   120.000000   521.326400   0.00000000         0.00 ; ALLOW   ALI POL PEP ARO
     CT2      NH1        C     5   120.000000   418.400000   0.00000000         0.00 ; ALLOW   ALI PEP POL ARO
     CT2       OS       CD     5   109.600000   334.720000   0.22651000     25104.00 ; ALLOW  POL PEP
     CT3       CA       CA     5   122.300000   383.254400   0.00000000         0.00 ; ALLOW   ALI ARO
     CT3     CPH1     CPH1     5   130.000000   383.254400   0.00000000         0.00 ; ALLOW ARO
     CT3      CT1        C     5   108.000000   435.136000   0.00000000         0.00 ; ALLOW   ALI PEP POL ARO
     CT3      CT1       CC     5   108.000000   435.136000   0.00000000         0.00 ; ALLOW   ALI PEP POL ARO
     CT3      CT1      CT1     5   108.500000   446.432800   0.25610000      6694.40 ; ALLOW   ALI
     CT3      CT1      CT2     5   114.000000   446.432800   0.25610000      6694.40 ; ALLOW   ALI
     CT3      CT1      CT3     5   114.000000   446.432800   0.25610000      6694.40 ; ALLOW   ALI
     CT3      CT2       CA     5   107.500000   433.462400   0.00000000         0.00 ; ALLOW   ALI ARO
     CT3      CT2     CPH1     5   113.000000   488.272800   0.00000000         0.00 ; ALLOW ARO
     CT3      CT2      CT1     5   113.500000   488.272800   0.25610000      9338.69 ; ALLOW   ALI
     CT3      CT2      CT2     5   115.000000   485.344000   0.25610000      6694.40 ; ALLOW   ALI
     CT3      CT2      CT3     5   114.000000   446.432800   0.25610000      6694.40 ; ALLOW   ALI
     CT3      NC2        C     5   120.000000   521.326400   0.00000000         0.00 ; ALLOW   ALI POL PEP ARO
     CT3      NH1        C     5   120.000000   418.400000   0.00000000         0.00 ; ALLOW   ALI PEP POL ARO
     CT3       OS       CD     5   109.600000   334.720000   0.22651000     25104.00 ; ALLOW  POL PEP
     CT3        S      CT2     5    95.000000   284.512000   0.00000000         0.00 ; ALLOW   ALI SUL ION
       H      NH1        C     5   123.000000   284.512000   0.00000000         0.00 ; ALLOW   PEP POL ARO
       H      NH1      CT1     5   117.000000   292.880000   0.00000000         0.00 ; ALLOW   PEP POL ARO ALI
       H      NH1      CT2     5   117.000000   292.880000   0.00000000         0.00 ; ALLOW   PEP POL ARO ALI
       H      NH1      CT3     5   117.000000   292.880000   0.00000000         0.00 ; ALLOW   PEP POL ARO ALI
       H      NH2       CC     5   120.000000   418.400000   0.00000000         0.00 ; ALLOW   POL PEP ARO
       H      NH2        H     5   120.000000   192.464000   0.00000000         0.00 ; ALLOW   POL
       H      NR1     CPH1     5   125.500000   251.040000   0.21500000     16736.00 ; ALLOW ARO
       H      NR1     CPH2     5   127.000000   251.040000   0.21400000     16736.00 ; ALLOW ARO
       H      NR3     CPH1     5   126.000000   209.200000   0.21300000     12552.00 ; ALLOW ARO
       H      NR3     CPH2     5   126.000000   209.200000   0.20900000     12552.00 ; ALLOW ARO
       H      OH1       CA     5   108.000000   543.920000   0.00000000         0.00 ; ALLOW   ALC ARO
       H      OH1       CD     5   115.000000   460.240000   0.00000000         0.00 ; ALLOW   ALC ARO PEP POL
       H      OH1      CT1     5   106.000000   481.160000   0.00000000         0.00 ; ALLOW   ALC ARO ALI
       H      OH1      CT2     5   106.000000   481.160000   0.00000000         0.00 ; ALLOW   ALC ARO ALI
       H      OH1      CT3     5   106.000000   481.160000   0.00000000         0.00 ; ALLOW   ALC ARO ALI
     HA2      CP2      CP1     5   110.100000   279.742240   0.21790000     18853.10 ; ALLOW ALI PRO
     HA2      CP2      CP2     5   110.100000   221.752000   0.21790000     18853.10 ; ALLOW ALI PRO
     HA2      CP2      CP3     5   110.100000   221.752000   0.21790000     18853.10 ; ALLOW ALI PRO
     HA2      CP2      HA2     5   109.000000   297.064000   0.18020000      4518.72 ; ALLOW ALI PRO
     HA2      CP3      CP2     5   110.100000   221.752000   0.21790000     18853.10 ; ALLOW ALI PRO
     HA2      CP3      HA2     5   109.000000   297.064000   0.18020000      4518.72 ; ALLOW ALI PRO
     HA2       CS      CT3     5   110.100000   289.532800   0.21790000     18853.10 ; ALLOW SUL
     HA2       CS      HA2     5   108.400000   297.064000   0.17750000     11715.20 ; ALLOW SUL
     HA3       CS      HA3     5   108.400000   297.064000   0.17750000     11715.20 ; ALLOW SUL
     HA1      CT1        C     5   109.500000   276.144000   0.21630000     25104.00 ; ALLOW   ALI PEP POL ARO
     HA1      CT1       CD     5   109.500000   276.144000   0.21630000     25104.00 ; ALLOW   ALI PEP POL ARO
     HA1      CT1      CT1     5   110.100000   288.696000   0.21790000     18853.10 ; ALLOW   ALI
     HA1      CT1      CT2     5   110.100000   288.696000   0.21790000     18853.10 ; ALLOW   ALI
     HA1      CT1      CT3     5   110.100000   288.696000   0.21790000     18853.10 ; ALLOW   ALI
     HA1      CT1      HA1     5   109.000000   297.064000   0.18020000      4518.72 ; TEST for test cpd
     HA2      CT2        C     5   109.500000   276.144000   0.21630000     25104.00 ; ALLOW   ALI PEP POL ARO
     HA2      CT2       CA     5   107.500000   412.542400   0.00000000         0.00 ; ALLOW   ALI ARO
     HA2      CT2       CC     5   109.500000   276.144000   0.21630000     25104.00 ; ALLOW   ALI PEP POL ARO
     HA2      CT2       CD     5   109.500000   276.144000   0.21630000     25104.00 ; ALLOW   ALI PEP POL ARO
     HA2      CT2      CE1     5   111.500000   376.560000   0.00000000         0.00 ; 
     HA2      CT2     CPH1     5   109.500000   279.742240   0.00000000         0.00 ; ALLOW ARO
     HA2      CT2      CT1     5   110.100000   221.752000   0.21790000     18853.10 ; ALLOW   ALI
     HA2      CT2      CT2     5   110.100000   221.752000   0.21790000     18853.10 ; ALLOW   ALI
     HA2      CT2      CT3     5   110.100000   289.532800   0.21790000     18853.10 ; ALLOW   ALI
     HA2      CT2      HA2     5   109.000000   297.064000   0.18020000      4518.72 ; ALLOW   ALI
     HA3      CT3        C     5   109.500000   276.144000   0.21630000     25104.00 ; ALLOW   ALI PEP POL ARO
     HA3      CT3       CA     5   107.500000   412.542400   0.00000000         0.00 ; ALLOW   ALI ARO
     HA3      CT3       CC     5   109.500000   276.144000   0.21630000     25104.00 ; ALLOW   ALI PEP POL ARO
     HA3      CT3       CD     5   109.500000   276.144000   0.21630000     25104.00 ; ALLOW   ALI PEP POL ARO
     HA3      CT3      CE1     5   111.500000   351.456000   0.00000000         0.00 ; 
     HA3      CT3     CPH1     5   109.500000   279.742240   0.00000000         0.00 ; ALLOW ARO
     HA3      CT3       CS     5   110.100000   289.532800   0.21790000     18853.10 ; ALLOW SUL
     HA3      CT3      CT1     5   110.100000   279.742240   0.21790000     18853.10 ; ALLOW   ALI
     HA3      CT3      CT2     5   110.100000   289.532800   0.21790000     18853.10 ; ALLOW   ALI
     HA3      CT3      CT3     5   110.100000   313.800000   0.21790000     18853.10 ; ALLOW   ALI
     HA3      CT3      HA3     5   108.400000   297.064000   0.18020000      4518.72 ; ALLOW   ALI
     HE1      CE1      CE1     5   119.500000   435.136000   0.00000000         0.00 ; 
     HE1      CE1      CE2     5   118.000000   351.456000   0.00000000         0.00 ; 
     HE1      CE1      CT2     5   116.000000   334.720000   0.00000000         0.00 ; 
     HE1      CE1      CT3     5   117.000000   184.096000   0.00000000         0.00 ; 
     HE2      CE2      CE1     5   120.500000   376.560000   0.00000000         0.00 ; 
     HE2      CE2      CE2     5   120.500000   464.424000   0.00000000         0.00 ; 
     HE2      CE2      HE2     5   119.000000   158.992000   0.00000000         0.00 ; 
     HB1      CP1        C     5   112.000000   418.400000   0.00000000         0.00 ; ALLOW PEP PRO
     HB1      CP1       CC     5   112.000000   418.400000   0.00000000         0.00 ; ALLOW PEP PRO
     HB1      CP1       CD     5   112.000000   418.400000   0.00000000         0.00 ; ALLOW PEP POL PRO
     HB1      CP1      CP2     5   118.000000   292.880000   0.00000000         0.00 ; ALLOW PEP PRO
     HB1      CT1        C     5   109.500000   418.400000   0.00000000         0.00 ; ALLOW  PEP
     HB1      CT1       CC     5   109.500000   418.400000   0.00000000         0.00 ; ALLOW  PEP POL
     HB1      CT1       CD     5   109.500000   418.400000   0.00000000         0.00 ; ALLOW  PEP POL
     HB1      CT1      CT1     5   111.000000   292.880000   0.00000000         0.00 ; ALLOW  PEP
     HB1      CT1      CT2     5   111.000000   292.880000   0.00000000         0.00 ; ALLOW  PEP
     HB1      CT1      CT3     5   111.000000   292.880000   0.00000000         0.00 ; ALLOW  PEP
     HB2      CT2        C     5   109.500000   418.400000   0.00000000         0.00 ; ALLOW  PEP
     HB2      CT2       CC     5   109.500000   418.400000   0.00000000         0.00 ; ALLOW  PEP POL
     HB2      CT2       CD     5   109.500000   418.400000   0.00000000         0.00 ; ALLOW  PEP POL
     HB2      CT2      HB2     5   115.000000   301.248000   0.00000000         0.00 ; ALLOW   PEP
      HC      NC2        C     5   120.000000   410.032000   0.00000000         0.00 ; ALLOW   POL PEP ARO
      HC      NC2      CT2     5   120.000000   338.067200   0.00000000         0.00 ; ALLOW   POL ALI
      HC      NC2      CT3     5   120.000000   338.067200   0.00000000         0.00 ; ALLOW   POL ALI
      HC      NC2       HC     5   120.000000   209.200000   0.00000000         0.00 ; ALLOW   POL
      HC      NH2      CT2     5   111.000000   418.400000   0.00000000         0.00 ; ALLOW   POL
      HC      NH2      CT3     5   111.000000   418.400000   0.00000000         0.00 ; ALLOW   POL
      HC      NH2       HC     5   106.500000   326.352000   0.00000000         0.00 ; ALLOW   POL
      HC      NH3      CT1     5   109.500000   251.040000   0.20740000     16736.00 ; ALLOW   POL ALI
      HC      NH3      CT2     5   109.500000   251.040000   0.20740000     16736.00 ; ALLOW   POL ALI
      HC      NH3      CT3     5   109.500000   251.040000   0.20740000     16736.00 ; ALLOW   POL ALI
      HC      NH3       HC     5   109.500000   368.192000   0.00000000         0.00 ; ALLOW   POL
      HC       NP      CP1     5   109.500000   276.144000   0.20560000      3347.20 ; ALLOW POL ALI PRO
      HC       NP      CP3     5   109.500000   276.144000   0.20560000      3347.20 ; ALLOW POL ALI PRO
      HC       NP       HC     5   107.500000   426.768000   0.00000000         0.00 ; ALLOW PRO
      HP       CA       CA     5   120.000000   251.040000   0.21525000     18409.60 ; ALLOW   ARO
     HR1     CPH1     CPH1     5   130.000000   184.096000   0.22150000     12552.00 ; ALLOW ARO
     HR3     CPH1     CPH1     5   130.000000   209.200000   0.22000000     16736.00 ; ALLOW ARO
      HS        S      CT2     5    95.000000   324.678400   0.00000000         0.00 ; ALLOW   SUL ION ALI
      HS        S      CT3     5    95.000000   359.824000   0.00000000         0.00 ; ALLOW   SUL ION ALI
       N        C      CP1     5   112.500000   167.360000   0.00000000         0.00 ; ALLOW PRO
       N        C      CT1     5   112.500000   167.360000   0.00000000         0.00 ; ALLOW ALI PEP POL ARO PRO
       N        C      CT2     5   112.500000   167.360000   0.00000000         0.00 ; ALLOW ALI PEP POL ARO PRO
       N        C      CT3     5   112.500000   167.360000   0.00000000         0.00 ; ALLOW ALI PEP POL ARO PRO
       N      CP1        C     5   108.200000   418.400000   0.00000000         0.00 ; ALLOW PRO
       N      CP1       CC     5   108.200000   418.400000   0.00000000         0.00 ; ALLOW PRO
       N      CP1       CD     5   108.200000   418.400000   0.00000000         0.00 ; ALLOW PRO PEP
       N      CP1      CP2     5   110.800000   585.760000   0.00000000         0.00 ; ALLOW PRO
       N      CP1      HB1     5   112.000000   401.664000   0.00000000         0.00 ; ALLOW PEP PRO
       N      CP3      CP2     5   110.500000   585.760000   0.00000000         0.00 ; ALLOW PRO
       N      CP3      HA2     5   108.000000   401.664000   0.00000000         0.00 ; ALLOW PEP PRO
     NC2        C      NC2     5   120.000000   334.720000   0.23100000     58576.00 ; 
     NC2      CT2      CT2     5   107.500000   566.513600   0.00000000         0.00 ; ALLOW   ALI POL
     NC2      CT2      HA2     5   107.500000   472.792000   0.00000000         0.00 ; ALLOW   ALI POL
     NC2      CT3      HA3     5   107.500000   472.792000   0.00000000         0.00 ; ALLOW   ALI POL
     NH1        C      CP1     5   116.500000   669.440000   0.00000000         0.00 ; ALLOW PEP PRO
     NH1        C      CT1     5   116.500000   669.440000   0.00000000         0.00 ; ALLOW   ALI PEP POL ARO
     NH1        C      CT2     5   116.500000   669.440000   0.00000000         0.00 ; ALLOW   ALI PEP POL ARO
     NH1        C      CT3     5   116.500000   669.440000   0.00000000         0.00 ; ALLOW   ALI PEP POL ARO
     NH1      CT1        C     5   107.000000   418.400000   0.00000000         0.00 ; ALLOW   PEP POL ARO ALI
     NH1      CT1       CC     5   107.000000   418.400000   0.00000000         0.00 ; ALLOW   PEP POL ARO ALI
     NH1      CT1       CD     5   107.000000   418.400000   0.00000000         0.00 ; ALLOW   PEP POL ARO ALI
     NH1      CT1      CT1     5   113.500000   585.760000   0.00000000         0.00 ; ALLOW   ALI PEP POL ARO
     NH1      CT1      CT2     5   113.500000   585.760000   0.00000000         0.00 ; ALLOW   ALI PEP POL ARO
     NH1      CT1      CT3     5   113.500000   585.760000   0.00000000         0.00 ; ALLOW   ALI PEP POL ARO
     NH1      CT1      HB1     5   108.000000   401.664000   0.00000000         0.00 ; ALLOW PEP
     NH1      CT2        C     5   107.000000   418.400000   0.00000000         0.00 ; ALLOW   PEP POL ARO ALI
     NH1      CT2       CC     5   107.000000   418.400000   0.00000000         0.00 ; ALLOW   PEP POL ARO ALI
     NH1      CT2       CD     5   107.000000   418.400000   0.00000000         0.00 ; ALLOW   PEP POL ARO ALI
     NH1      CT2      CT2     5   113.500000   585.760000   0.00000000         0.00 ; ALLOW   ALI PEP POL ARO
     NH1      CT2      HA2     5   109.500000   430.952000   0.00000000         0.00 ; ALLOW   ALI PEP POL ARO
     NH1      CT2      HB2     5   108.000000   401.664000   0.00000000         0.00 ; ALLOW PEP
     NH1      CT3      HA3     5   109.500000   430.952000   0.00000000         0.00 ; ALLOW   ALI PEP POL ARO
     NH2       CC      CP1     5   112.500000   669.440000   0.00000000         0.00 ; ALLOW ALI PEP POL ARO PRO
     NH2       CC      CT1     5   116.500000   418.400000   0.24500000     41840.00 ; ALLOW   ALI PEP POL ARO
     NH2       CC      CT2     5   116.500000   418.400000   0.24500000     41840.00 ; ALLOW   ALI PEP POL ARO
     NH2       CC      CT3     5   116.500000   418.400000   0.24500000     41840.00 ; ALLOW   ALI PEP POL ARO
     NH2       CC      HA1     5   111.000000   368.192000   0.19800000     41840.00 ; ALLOW POL
     NH2      CT2      HB2     5   109.500000   317.984000   0.21400000     41840.00 ; 
     NH2      CT2       CD     5   108.000000   435.136000   0.00000000         0.00 ; 
     NH2      CT2      CT2     5   110.000000   566.513600   0.00000000         0.00 ; ALLOW   ALI POL
     NH2      CT2      HA2     5   109.500000   317.984000   0.21400000     41840.00 ; 
     NH2      CT3      HA3     5   109.500000   317.984000   0.21400000     41840.00 ; ALLOW POL
     NH3      CT1        C     5   110.000000   365.681600   0.00000000         0.00 ; ALLOW   PEP POL ARO ALI
     NH3      CT1       CC     5   110.000000   365.681600   0.00000000         0.00 ; ALLOW   PEP POL ARO ALI
     NH3      CT1      CT1     5   110.000000   566.513600   0.00000000         0.00 ; ALLOW   ALI POL
     NH3      CT1      CT2     5   110.000000   566.513600   0.00000000         0.00 ; ALLOW   ALI POL
     NH3      CT1      CT3     5   110.000000   566.513600   0.00000000         0.00 ; ALLOW   ALI POL
     NH3      CT1      HB1     5   107.500000   430.952000   0.00000000         0.00 ; ALLOW   ALI POL PEP
     NH3      CT2        C     5   110.000000   365.681600   0.00000000         0.00 ; ALLOW   PEP POL ARO ALI
     NH3      CT2       CC     5   110.000000   365.681600   0.00000000         0.00 ; ALLOW   PEP POL ARO ALI
     NH3      CT2       CD     5   110.000000   365.681600   0.00000000         0.00 ; ALLOW   PEP POL ARO ALI
     NH3      CT2      CT2     5   110.000000   566.513600   0.00000000         0.00 ; ALLOW   ALI POL
     NH3      CT2      CT3     5   110.000000   566.513600   0.00000000         0.00 ; ALLOW   ALI POL
     NH3      CT2      HA2     5   107.500000   376.560000   0.21010000     29288.00 ; ALLOW   ALI POL
     NH3      CT2      HB2     5   107.500000   430.952000   0.00000000         0.00 ; ALLOW   ALI POL PEP
     NH3      CT3      HA3     5   107.500000   376.560000   0.21010000     29288.00 ; ALLOW   ALI POL
      NP      CP1        C     5   106.000000   418.400000   0.00000000         0.00 ; ALLOW PRO
      NP      CP1       CC     5   106.000000   418.400000   0.00000000         0.00 ; ALLOW PRO
      NP      CP1       CD     5   106.000000   418.400000   0.00000000         0.00 ; ALLOW PRO PEP
      NP      CP1      CP2     5   108.500000   585.760000   0.00000000         0.00 ; ALLOW PRO
      NP      CP1      HB1     5   107.500000   430.952000   0.00000000         0.00 ; ALLOW ALI POL PEP PRO
      NP      CP3      CP2     5   108.500000   585.760000   0.00000000         0.00 ; ALLOW PRO
      NP      CP3      HA2     5   109.150000   430.952000   0.00000000         0.00 ; ALLOW PEP PRO
     NR1     CPH1     CPH1     5   106.000000  1087.840000   0.00000000         0.00 ; ALLOW ARO
     NR1     CPH1      CT2     5   124.000000   383.254400   0.00000000         0.00 ; ALLOW ARO
     NR1     CPH1      CT3     5   124.000000   383.254400   0.00000000         0.00 ; ALLOW ARO
     NR1     CPH1      HR3     5   124.000000   209.200000   0.21400000     16736.00 ; ALLOW ARO
     NR1     CPH2      HR1     5   122.500000   209.200000   0.21400000     16736.00 ; ALLOW ARO
     NR2     CPH1     CPH1     5   110.000000  1087.840000   0.00000000         0.00 ; ALLOW ARO
     NR2     CPH1      CT2     5   120.000000   383.254400   0.00000000         0.00 ; ALLOW ARO
     NR2     CPH1      HR3     5   120.000000   209.200000   0.21400000     16736.00 ; ALLOW ARO
     NR2     CPH2      HR1     5   125.000000   209.200000   0.21200000     16736.00 ; ALLOW ARO
     NR2     CPH2      NR1     5   112.500000  1087.840000   0.00000000         0.00 ; ALLOW ARO
     NR3     CPH1     CPH1     5   108.000000  1213.360000   0.00000000         0.00 ; ALLOW ARO
     NR3     CPH1      CT2     5   122.000000   383.254400   0.00000000         0.00 ; ALLOW ARO
     NR3     CPH1      HR1     5   122.000000   184.096000   0.21800000     12552.00 ; ALLOW ARO
     NR3     CPH2      HR2     5   126.000000   267.776000   0.21400000     20920.00 ; ALLOW ARO
     NR3     CPH2      NR3     5   108.000000  1213.360000   0.00000000         0.00 ; ALLOW ARO
       O        C      CP1     5   118.000000   669.440000   0.00000000         0.00 ; ALLOW PEP PRO
       O        C      CT1     5   121.000000   669.440000   0.00000000         0.00 ; ALLOW   ALI PEP POL ARO
       O        C      CT2     5   121.000000   669.440000   0.00000000         0.00 ; ALLOW   ALI PEP POL ARO
       O        C      CT3     5   121.000000   669.440000   0.00000000         0.00 ; ALLOW   ALI PEP POL ARO
       O        C        H     5   121.700000   418.400000   0.00000000         0.00 ; ALLOW   PEP POL ARO
       O        C        N     5   122.500000   669.440000   0.00000000         0.00 ; ALLOW PRO PEP POL ARO
       O        C      NH1     5   122.500000   669.440000   0.00000000         0.00 ; ALLOW   PEP POL ARO
       O       CC      CP1     5   118.000000   669.440000   0.00000000         0.00 ; ALLOW ALI PEP POL ARO PRO
       O       CC      CT1     5   121.000000   125.520000   0.24400000     41840.00 ; ALLOW   ALI PEP POL ARO
       O       CC      CT2     5   121.000000   125.520000   0.24400000     41840.00 ; ALLOW   ALI PEP POL ARO
       O       CC      CT3     5   121.000000   125.520000   0.24400000     41840.00 ; ALLOW   ALI PEP POL ARO
       O       CC      HA1     5   122.000000   368.192000   0.00000000         0.00 ; ALLOW POL
       O       CC      NH2     5   122.500000   627.600000   0.23700000     41840.00 ; ALLOW   POL PEP ARO
      OB       CD      CP1     5   125.000000   585.760000   0.24420000     16736.00 ; ALLOW ALI PEP POL ARO PRO
      OB       CD      CT1     5   125.000000   585.760000   0.24420000     16736.00 ; ALLOW   ALI PEP POL ARO
      OB       CD      CT2     5   125.000000   585.760000   0.24420000     16736.00 ; ALLOW   ALI PEP POL ARO
      OB       CD      CT3     5   125.000000   585.760000   0.24420000     16736.00 ; ALLOW   ALI PEP POL ARO
      OC       CA       CA     5   120.000000   334.720000   0.00000000         0.00 ; ALLOW  POL ARO
      OC       CC      CP1     5   118.000000   334.720000   0.23880000     41840.00 ; ALLOW ALI PEP POL ARO ION PRO
      OC       CC      CT1     5   118.000000   334.720000   0.23880000     41840.00 ; ALLOW   ALI PEP POL ARO ION
      OC       CC      CT2     5   118.000000   334.720000   0.23880000     41840.00 ; ALLOW   ALI PEP POL ARO ION
      OC       CC      CT3     5   118.000000   334.720000   0.23880000     41840.00 ; ALLOW   ALI PEP POL ARO ION
      OC       CC       OC     5   124.000000   836.800000   0.22250000     58576.00 ; ALLOW   POL ION PEP ARO
      OC      CT2      CT3     5   122.000000   543.920000   0.00000000         0.00 ; ALLOW  ALC
      OC      CT2      HA2     5   118.300000   543.920000   0.00000000         0.00 ; ALLOW  ALC
      OC      CT3      HA3     5   118.300000   543.920000   0.00000000         0.00 ; ALLOW  ALC
     OH1       CA       CA     5   120.000000   378.233600   0.00000000         0.00 ; ALLOW   ARO ALC
     OH1       CD      CT2     5   110.500000   460.240000   0.00000000         0.00 ; ALLOW   ALI PEP POL ARO ALC
     OH1       CD      CT3     5   110.500000   460.240000   0.00000000         0.00 ; ALLOW   ALI PEP POL ARO ALC
     OH1       CD       OB     5   123.000000   418.400000   0.22620000    175728.00 ; ALLOW   PEP POL ARO ALC
     OH1      CT1      CT1     5   110.100000   633.457600   0.00000000         0.00 ; ALLOW   ALI ALC ARO
     OH1      CT1      CT3     5   110.100000   633.457600   0.00000000         0.00 ; ALLOW   ALI ALC ARO
     OH1      CT1      HA1     5   108.890000   384.091200   0.00000000         0.00 ; ALLOW   ALI ALC ARO
     OH1      CT2      CT1     5   110.100000   633.457600   0.00000000         0.00 ; ALLOW   ALI ALC ARO
     OH1      CT2      CT2     5   110.100000   633.457600   0.00000000         0.00 ; ALLOW   ALI ALC ARO
     OH1      CT2      CT3     5   110.100000   633.457600   0.00000000         0.00 ; ALLOW   ALI ALC ARO
     OH1      CT2      HA2     5   108.890000   384.091200   0.00000000         0.00 ; ALLOW   ALI ALC ARO
     OH1      CT3      HA3     5   108.890000   384.091200   0.00000000         0.00 ; ALLOW   ALI ALC ARO
      OS       CD      CP1     5   109.000000   460.240000   0.23260000     16736.00 ; ALLOW POL PEP PRO
      OS       CD      CT1     5   109.000000   460.240000   0.23260000     16736.00 ; ALLOW POL PEP
      OS       CD      CT2     5   109.000000   460.240000   0.23260000     16736.00 ; ALLOW POL PEP
      OS       CD      CT3     5   109.000000   460.240000   0.23260000     16736.00 ; ALLOW POL PEP
      OS       CD       OB     5   125.900000   753.120000   0.22576000    133888.00 ; ALLOW  PEP POL
      OS      CT2      HA2     5   109.500000   502.080000   0.00000000         0.00 ; ALLOW PEP POL
      OS      CT3      HA3     5   109.500000   502.080000   0.00000000         0.00 ; ALLOW PEP POL
       S      CT2      CT1     5   112.500000   485.344000   0.00000000         0.00 ; ALLOW   ALI SUL ION
       S      CT2      CT2     5   114.500000   485.344000   0.00000000         0.00 ; ALLOW   ALI SUL ION
       S      CT2      CT3     5   114.500000   485.344000   0.00000000         0.00 ; ALLOW   ALI SUL ION
       S      CT2      HA2     5   111.300000   385.764800   0.00000000         0.00 ; ALLOW   ALI SUL ION
       S      CT3      HA3     5   111.300000   385.764800   0.00000000         0.00 ; ALLOW   ALI SUL ION
      SM      CT2      CT1     5   112.500000   485.344000   0.00000000         0.00 ; ALLOW   ALI SUL ION
      SM      CT2      CT3     5   112.500000   485.344000   0.00000000         0.00 ; ALLOW   ALI SUL ION
      SM      CT2      HA2     5   111.000000   317.984000   0.00000000         0.00 ; ALLOW   ALI SUL ION
      SM      CT3      HA3     5   111.000000   317.984000   0.00000000         0.00 ; ALLOW   ALI SUL ION
      SM       SM      CT2     5   103.300000   606.680000   0.00000000         0.00 ; ALLOW   ALI SUL ION
      SM       SM      CT3     5   103.300000   606.680000   0.00000000         0.00 ; ALLOW   ALI SUL ION
      SS       CS      CT3     5   118.000000   460.240000   0.00000000         0.00 ; ALLOW SUL
      SS       CS      HA2     5   112.300000   334.720000   0.00000000         0.00 ; ALLOW SUL
      SS       CS      HA3     5   112.300000   334.720000   0.00000000         0.00 ; ALLOW SUL
       O       CD      HR1     5   121.000000   627.600000   0.00000000         0.00 ; acetaldehyde, benzaldehyde, 3ALP, retinal
     NH1      CT1     CT2A     5   113.500000   585.760000   0.00000000         0.00 ; from NH1  CT1  CT2
     HB1      CT1     CT2A     5   111.000000   292.880000   0.00000000         0.00 ; from HB1  CT1  CT2
    CT2A      CT1        C     5   108.000000   435.136000   0.00000000         0.00 ; from CT2  CT1  C
     CT1     CT2A      HA2     5   110.100000   221.752000   0.21790000     18853.10 ; from HA2  CT2  CT1
     CT1     CT2A      CT2     5   113.500000   488.272800   0.25610000      9338.69 ; from CT2  CT2  CT1
     HA2     CT2A      HA2     5   109.000000   297.064000   0.18020000      4518.72 ; from HA2  CT2  HA2
     HA2     CT2A      CT2     5   110.100000   221.752000   0.21790000     18853.10 ; from HA2  CT2  CT2
    CT2A      CT2      HA2     5   110.100000   221.752000   0.21790000     18853.10 ; from HA2  CT2  CT2
    CT2A      CT2       CC     5   108.000000   435.136000   0.00000000         0.00 ; from CT2  CT2  CC
     CT1     CT2A     CPH1     5   113.000000   488.272800   0.00000000         0.00 ; from CT1  CT2  CPH1
     HA2     CT2A     CPH1     5   109.500000   279.742240   0.00000000         0.00 ; from HA2  CT2  CPH1
    CT2A     CPH1     CPH1     5   130.000000   383.254400   0.00000000         0.00 ; from CT2  CPH1 CPH1
    CT2A     CPH1      NR3     5   122.000000   383.254400   0.00000000         0.00 ; from NR3  CPH1 CT2
     CT1     CT2A       CC     5   108.000000   435.136000   0.00000000         0.00 ; from CT1  CT2  CC
     HA2     CT2A       CC     5   109.500000   276.144000   0.21630000     25104.00 ; from HA2  CT2  CC
      OC       CC     CT2A     5   118.000000   334.720000   0.23880000     41840.00 ; from OC   CC   CT2
     NH3      CT1     CT2A     5   110.000000   566.513600   0.00000000         0.00 ; from NH3  CT1  CT2
    CT2A      CT1       CD     5   108.000000   435.136000   0.00000000         0.00 ; from CT2  CT1  CD
     NH2      CT1       CS     5   110.000000   566.513600   0.00000000         0.00 ; from NH2  CT1  CT2 , kevo
      CS      CT1        C     5   108.000000   435.136000   0.00000000         0.00 ; from CT2  CT1  C   , kevo
      CS      CT1       CC     5   108.000000   435.136000   0.00000000         0.00 ; from CT2  CT1  CC  , kevo
      CS      CT1       CD     5   108.000000   435.136000   0.00000000         0.00 ; from CT2  CT1  CD  , kevo
     HB1      CT1       CS     5   111.000000   292.880000   0.00000000         0.00 ; from HB1  CT1  CT2 , kevo
     NH1      CT1       CS     5   113.500000   585.760000   0.00000000         0.00 ; from NH1  CT1  CT2 , kevo
     NH3      CT1       CS     5   110.000000   566.513600   0.00000000         0.00 ; from NH3  CT1  CT2 , kevo
      SS       CS      CT1     5   118.000000   460.240000   0.00000000         0.00 ; from SS   CS   CT3 , kevo
     HA2       CS      CT1     5   110.100000   289.532800   0.21790000     18853.10 ; from HA2 CS CT3 to be consistent with SS CS CT1, kevo
      OC      CT2      CT1     5   122.000000   543.920000   0.00000000         0.00 ; from OC   CT2  CT3 , kevo

; angle parameters from toppar_c36_jul22/silicates/toppar/par_silicates.inp
;      i        j        k  func       theta0       ktheta          ub0          kub
    OSIE       SI     OSIE     5   117.000000   251.040000   0.00000000         0.00 ; quartz, from sim1
    OSIE     SIH3     OSIE     5   121.500000   251.040000   0.00000000         0.00 ; quartz, from sim1
      SI     OSIE     SIH3     5   150.500000   284.512000   0.00000000         0.00 ; quartz, from sim1
      SI     OSIE       SI     5   150.000000   284.512000   0.00000000         0.00 ; quartz, from sim1
      SI     OSIA       SI     5   150.000000   284.512000   0.00000000         0.00 ; quartz, from sim1
    OSIA       SI     OSIH     5   126.000000   267.776000   0.00000000         0.00 ; quartz, from sim1
    OSIA       SI     OSIA     5   121.500000   251.040000   0.00000000         0.00 ; quartz, from sim1
    OSIA       SI     OSIE     5   121.500000   251.040000   0.00000000         0.00 ; quartz, from sim1
    SIH3     OSIE     SIH3     5   159.000000   284.512000   0.00000000         0.00 ; quartz, from sim1
    HSIA     SIH3     HSIA     5   119.000000   251.040000   0.00000000         0.00 ; quartz, from sim1
    HSIA     SIH3     OSIE     5   118.000000   368.192000   0.00000000         0.00 ; quartz, from sim1
      SI     OSIH     HSIO     5   122.500000   284.512000   0.00000000         0.00 ; 122 quartz, from sim2
    OSIE       SI     OSIH     5   126.000000   267.776000   0.00000000         0.00 ; quartz, from sim2
    OSIH       SI     OSIH     5   117.000000   251.040000   0.00000000         0.00 ; quartz, from sim2
    ALSI      OAL     ALSI     5    98.000000   251.040000   0.00000000         0.00 ; 
    ALSI      OAL       SI     5   117.000000   251.040000   0.00000000         0.00 ; 
     OAL       SI     OSIE     5   117.000000   251.040000   0.00000000         0.00 ; 
     HAL      OAL     ALSI     5    93.400000   292.880000   0.00000000         0.00 ; 
     OAL     ALSI      HAL     5    93.400000   292.880000   0.00000000         0.00 ; 
     OAL     ALSI      OAL     5    90.000000   251.040000   0.00000000         0.00 ; 
    OSIE     ALSI     OSIE     5   117.000000   251.040000   0.00000000         0.00 ; 
    OSIE     ALSI      OAL     5   117.000000   251.040000   0.00000000         0.00 ; 
    OSIE     ALSI      HAL     5   119.000000   251.040000   0.00000000         0.00 ; 
    ALSI     OSIE       SI     5   117.000000   251.040000   0.00000000         0.00 ; 
    ALSI     OSIE     ALSI     5   117.000000   251.040000   0.00000000         0.00 ; 
    OSIE       SI     HSIA     5   118.000000   368.192000   0.00000000         0.00 ; 

; angle parameters from toppar_c36_jul22/silicates/toppar/top_silicates.inp
;      i        j        k  func       theta0       ktheta          ub0          kub

; angle parameters from toppar_c36_jul22/stream/carb/toppar_all36_carb_glycolipid.str
;      i        j        k  func       theta0       ktheta          ub0          kub
   OC30P       PL    OC2DP     5   111.600000   827.595200   0.00000000         0.00 ; 
   OC2DP       PL    OC2DP     5   120.000000  1004.160000   0.00000000         0.00 ; 
   OC30P       PL    OC30P     5   104.300000   669.440000   0.00000000         0.00 ; ON2  P    ON2 !DMP, ADM Jr.
  CC3161    OC30P       PL     5   120.000000   167.360000   0.23300000     29288.00 ; CTL2 OSLP PL  ! phosphate, PIP
   OC301     CTL2     CTL2     5   111.500000   376.560000   0.00000000         0.00 ; par35 OC30A CC32A  CC32A
  CC3162    OC301     CTL2     5   109.700000   794.960000   0.00000000         0.00 ; par35 CC33A  OC30A CC32A
  CC311D    OC301     CTL2     5   109.700000   794.960000   0.00000000         0.00 ; pram, OMeTHP CC311D OC301 CC331
   OC301     CTL2     HAL2     5   109.500000   502.080000   0.00000000         0.00 ; par34 HCA2 CC32A OC30A
  CC3161    OC301     CTL2     5   109.700000   794.960000   0.00000000         0.00 ; CC3162 OC301  CTL2     95.00    109.70
     OSL     CTL1     CTO2     5   110.100000   633.457600   0.00000000         0.00 ; OSL    CTL1   CTL2     75.700   110.10
    CTL2     CTL1     CTO2     5   113.500000   488.272800   0.25610000      9338.69 ; CTL2 CTL1 CTL2   58.350    113.50   11.16   2.561  ! glycerolglycerol
   OC30P       PL      O2L     5   111.600000   827.595200   0.00000000         0.00 ; OSLP PL   O2L  ! phosphate
   OC30P       PL     OSLP     5   104.300000   669.440000   0.00000000         0.00 ; OSLP PL   OSLP ! phosphate
   OG303   CC3162     HCA1     5   109.500000   502.080000   0.00000000         0.00 ; ! from OC30P   CC3162  HCA1      60.00    109.50                  ! par35 HCA2 CC32A OC30A
   OG303   CC3162   OC3C61     5   110.000000   753.120000   0.00000000         0.00 ; ! from OC30P   CC3162  OC3C61    90.00    110.00
   OG303   CC3162   CC3161     5   109.000000   376.560000   0.00000000         0.00 ; ! from OC30P   CC3162  CC3161    45.00    109.00
  CC3162    OG303      PG1     5   120.000000   167.360000   0.23300000     29288.00 ; ! from CC3162  OC30P      PC     20.0     120.0    35.0    2.33   ! same in CGenFF (CG311 OG303 PG1 from CG321 OG303 PG1)
   CG2D1    CG321    OG303     5   110.100000   633.457600   0.00000000         0.00 ; ! from CG2D1  CG321  OG311    75.70    110.10 ! RETINOL PROL
   OC301     CTO2     CTL1     5   111.500000   376.560000   0.00000000         0.00 ; par35 OC30A CC32A  CC32A
  CC3162    OC301     CTO2     5   109.700000   794.960000   0.00000000         0.00 ; par35 CC33A  OC30A CC32A
  CC311D    OC301     CTO2     5   109.700000   794.960000   0.00000000         0.00 ; pram, OMeTHP CC311D OC301 CC331
   OC301     CTO2     HAL2     5   109.500000   502.080000   0.00000000         0.00 ; par34 HCA2 CC32A OC30A
  CC3162    OC301     CTL1     5   109.700000   794.960000   0.00000000         0.00 ; par35 CC33A  OC30A CC32A
      CL      OSL    CC321     5   109.600000   334.720000   0.22651000     25104.00 ; CL   OSL  CTL2
     OSL    CC321   CC3163     5   106.000000   376.560000   0.00000000         0.00 ; OC301   CC321   CC3163
     OSL    CC321     HCA2     5   109.500000   502.080000   0.00000000         0.00 ; OC301   CC321   HCA2
    CTL2     CTL2   CC311C     5   113.600000   488.272800   0.25610000      9338.69 ; alkane, 3/92
    HAL2     CTL2   CC311C     5   110.100000   221.752000   0.21790000     18853.10 ; alkane, 4/98
    CTL2   CC311C     HCA1     5   110.100000   288.696000   0.21790000     18853.10 ; alkane, 3/92
    CTL2   CC311C   CC321C     5   113.500000   488.272800   0.25610000      9338.69 ; glycerol
       H      NHL       CL     5   123.000000   284.512000   0.00000000         0.00 ; H    NH1  C
      CL      NHL     CTL2     5   120.000000   418.400000   0.00000000         0.00 ; CT2  NH1  C
     NHL       CL      OSL     5   122.500000   669.440000   0.00000000         0.00 ; 
     NHL       CL      OBL     5   122.500000   669.440000   0.00000000         0.00 ; 
   CC321      NHL        C     5   120.000000   418.400000   0.00000000         0.00 ; CT2  NH1  C
   CC322      NHL        C     5   120.000000   418.400000   0.00000000         0.00 ; CT2  NH1  C
   CC321      NHL    CC322     5   120.000000   418.400000   0.00000000         0.00 ; CT2  NH1  C
   CC321    CC321      NHL     5   113.500000   585.760000   0.00000000         0.00 ; NH1  CT2  CT2
     NHL    CC322     HCA2     5   109.500000   430.952000   0.00000000         0.00 ; NH1  CT2  HA2
     NHL    CC321     HCA2     5   109.500000   430.952000   0.00000000         0.00 ; NH1  CT2  HA2
     NHL    CC322    CC312     5   113.500000   585.760000   0.00000000         0.00 ; NH1  CT2  CT2
   CC331      NHL        C     5   120.000000   418.400000   0.00000000         0.00 ; CT3  NH1  C
   CC331      NHL    CC322     5   120.000000   418.400000   0.00000000         0.00 ; 
     NHL    CC331     HCA3     5   109.500000   430.952000   0.00000000         0.00 ; NH1  CT3  HA3
  CG2R61   CG2R61    OC301     5   120.000000   920.480000   0.00000000         0.00 ; CG2R61 CG2R61 OG301
  CG2R61    CG301    CG321     5   107.500000   433.462400   0.00000000         0.00 ; CG2R61 CG321  CG331
   CG301    CG321    CG301     5   113.500000   488.272800   0.25610000      9338.69 ; CG301  CG321  CG321
  CG2R61    OC301    CC321     5   108.000000   543.920000   0.00000000         0.00 ; CG2R61 OG301  CG321
    CTL2    CC301   CC311C     5   113.600000   488.272800   0.25610000      9338.69 ; alkane, 3/92
   CC301   CC311C     HCA1     5   110.100000   288.696000   0.21790000     18853.10 ; alkane, 3/92
   CC301   CC311C   CC321C     5   113.500000   488.272800   0.25610000      9338.69 ; glycerol

; angle parameters from toppar_c36_jul22/stream/carb/toppar_all36_carb_glycopeptide.str
;      i        j        k  func       theta0       ktheta          ub0          kub
   NC2D1   CC311D   OC3C61     5   110.000000   753.120000   0.00000000         0.00 ; 90.00   110.00  ! OC301   CC311D  OC3C61   90.00   110.00
    HCA1   CC311D    NC2D1     5   108.000000   401.664000   0.00000000         0.00 ; par22 NH1  CT1  HB
   NC2D1   CC311D   CC321C     5   113.500000   585.760000   0.00000000         0.00 ; par22 NH1  CT1  CT1
   NC2D1   CC311D   CC311D     5   113.500000   585.760000   0.00000000         0.00 ; par22 NH1  CT1  CT1
  CC311D    NC2D1     HCP1     5   117.000000   292.880000   0.00000000         0.00 ; par22 H    NH1  CT1
  CC311D    NC2D1    CC2O1     5   120.000000   418.400000   0.00000000         0.00 ; par22 CT1  NH1  C
   NC2D1   CC3162   OC3C61     5   110.000000   753.120000   0.00000000         0.00 ; 90.00   110.00  ! OC301   CC311D  OC3C61   90.00   110.00
    HCA1   CC3162    NC2D1     5   108.000000   401.664000   0.00000000         0.00 ; par22 NH1  CT1  HB
   NC2D1   CC3162   CC3161     5   113.500000   585.760000   0.00000000         0.00 ; par22 NH1  CT1  CT1
  CC3162    NC2D1     HCP1     5   117.000000   292.880000   0.00000000         0.00 ; par22 H    NH1  CT1
  CC3162    NC2D1    CC2O1     5   120.000000   418.400000   0.00000000         0.00 ; par22 CT1  NH1  C
     NH3      CT1    CC321     5   110.000000   566.513600   0.00000000         0.00 ; NH3  CT1  CT2    67.700   110.0000 ! ALLOW   ALI POL
   CC321      CT1       CC     5   108.000000   435.136000   0.00000000         0.00 ; CT2  CT1  CC     52.000   108.0000 ! ALLOW   ALI PEP POL ARO
     NH1      CT1    CC321     5   113.500000   585.760000   0.00000000         0.00 ; NH1  CT1  CT2    70.000   113.5000 ! ALLOW   ALI PEP POL ARO
     HB1      CT1    CC321     5   111.000000   292.880000   0.00000000         0.00 ; HB   CT1  CT2    35.000   111.0000 ! ALLOW  PEP
   CC321      CT1        C     5   108.000000   435.136000   0.00000000         0.00 ; CT2  CT1  C      52.000   108.0000 ! ALLOW   ALI PEP POL ARO
     CT1    CC321    CC2O1     5   108.000000   435.136000   0.00000000         0.00 ; CT1  CT2  CC     52.000   108.0000 ! ALLOW   ALI PEP POL ARO
     CT1    CC321     HCA2     5   110.100000   279.742240   0.21790000     18853.10 ; HA   CT2  CT1   33.430    110.10   22.53   2.17900 ! ALLOW   ALI
    HCA2    CC321    CC2O1     5   109.500000   276.144000   0.21630000     25104.00 ; HA   CT2  CC    33.000    109.50   30.00   2.16300 ! ALLOW   ALI PEP POL ARO
   CC321    CC2O1    OC2D1     5   121.000000   125.520000   0.24400000     41840.00 ; O    CC   CT2   15.000    121.00   50.00   2.44000 ! ALLOW   ALI PEP POL ARO
   CC321    CC2O1    NC2D1     5   116.500000   418.400000   0.24500000     41840.00 ; NH2  CC   CT2   50.000    116.50   50.00   2.45000 ! ALLOW   ALI PEP POL ARO
     CT1      CT2    OC301     5   107.000000   376.560000   0.00000000         0.00 ; OC301   CC311   CC331    45.00   111.50  ! par35 OC30A CC32A  CC33A
     CT1      CT1    OC301     5   107.000000   376.560000   0.00000000         0.00 ; OC301   CC311   CC331    45.00   111.50  ! par35 OC30A CC32A  CC33A
     CT2    OC301   CC311D     5   110.700000   794.960000   0.00000000         0.00 ; CC311D  OC301   CC331    95.00   109.70  ! par35 CC33A  OC30A CC32A
     CT1    OC301   CC311D     5   110.700000   794.960000   0.00000000         0.00 ; CC311D  OC301   CC331    95.00   109.70  ! par35 CC33A  OC30A CC32A
     CT2    OC301   CC3162     5   110.700000   794.960000   0.00000000         0.00 ; CC3162  OC301   CC331    95.00   109.70  ! par35 CC33A  OC30A CC32A
     CT1    OC301   CC3162     5   110.700000   794.960000   0.00000000         0.00 ; CC3162  OC301   CC331    95.00   109.70  ! par35 CC33A  OC30A CC32A
     CT3      CT1    OC301     5   110.000000   376.560000   0.00000000         0.00 ; OC301   CC311   CC331    45.00   111.50  ! par35 OC30A CC32A  CC33A
      HA      CT2    OC301     5   109.500000   502.080000   0.00000000         0.00 ; HCA1    CC311   OC301    60.00   109.50  ! par34 HCA2 CC32A OC30A
     HA2      CT2    OC301     5   109.500000   502.080000   0.00000000         0.00 ; HCA1    CC311   OC301    60.00   109.50  ! par34 HCA2 CC32A OC30A
      HA      CT1    OC301     5   109.500000   502.080000   0.00000000         0.00 ; HCA1    CC311   OC301    60.00   109.50  ! par34 HCA2 CC32A OC30A
     HA1      CT1    OC301     5   109.500000   502.080000   0.00000000         0.00 ; HCA1    CC311   OC301    60.00   109.50  ! par34 HCA2 CC32A OC30A

; angle parameters from toppar_c36_jul22/stream/carb/toppar_all36_carb_imlab.str
;      i        j        k  func       theta0       ktheta          ub0          kub
  CC3163    CC312    CC322     5   111.000000   446.432800   0.25610000      6694.40 ; CT2 CT1 CT1  ; all22 prot
  CC3161    OC311   CC3062     5   109.200000   418.400000   0.00000000         0.00 ; CC3161 OC301 CC3162 ; all36 carb
   CC322    OC301   CC3162     5   109.700000   794.960000   0.00000000         0.00 ; CC3162 OC301 CC321  ; all36 carb
   CC2O1    CC331      CT1     5   108.000000   435.136000   0.00000000         0.00 ; from, CT1  CT1  C, ALLOW   ALI PEP POL ARO
    HCA3    CC331      CT1     5   111.000000   292.880000   0.00000000         0.00 ; from, HB1  CT1  CT1, ALLOW  PEP
   CC331      CT1      HA1     5   110.100000   288.696000   0.21790000     18853.10 ; from, HA1  CT1  CT1, ALLOW   ALI
   CC331      CT1      OH1     5   110.100000   633.457600   0.00000000         0.00 ; from, OH1  CT1  CT1, ALLOW   ALI ALC ARO
   CC331      CT1      CT3     5   108.500000   446.432800   0.25610000      6694.40 ; from, CT3  CT1  CT1, ALLOW   ALI
   CC321      CT1      HA1     5   110.100000   288.696000   0.21790000     18853.10 ; from, HA1  CT1  CT2, ALLOW   ALI
   CC321      CT1      OH1     5   110.100000   633.457600   0.00000000         0.00 ; from, OH1  CT2  CT2, ALLOW   ALI ALC ARO
   CC321      CT1      CT3     5   114.000000   446.432800   0.25610000      6694.40 ; from, CT3  CT1  CT2, ALLOW   ALI
  OC3C61   CC3163    CC2O1     5   110.000000   376.560000   0.00000000         0.00 ; sng mod (qm and crystal data)
    HCA1   CC3163    CC2O1     5   111.000000   292.880000   0.00000000         0.00 ; from, HB1  CT1  CT1, ALLOW  PEP
  CC3161   CC3163    CC2O1     5   108.000000   435.136000   0.00000000         0.00 ; from, CT1  CT1  C, ALLOW   ALI PEP POL ARO
  CC3163    CC2O1    OC2D1     5   121.000000   669.440000   0.00000000         0.00 ; from, O    C    CT1, ALLOW   ALI PEP POL ARO
  CC3163    CC2O1    NC2D1     5   116.500000   669.440000   0.00000000         0.00 ; from, NH1  C    CT1, ALLOW   ALI PEP POL ARO
   CC2O1    NC2D1      CT2     5   120.000000   418.400000   0.00000000         0.00 ; from, CT2  NH1  C, ALLOW   ALI PEP POL ARO
    HCP1    NC2D1      CT2     5   117.000000   292.880000   0.00000000         0.00 ; from, H    NH1  CT2, ALLOW   PEP POL ARO ALI
   NC2D1      CT2      HB2     5   108.000000   401.664000   0.00000000         0.00 ; from, NH1  CT2  HB2, ALLOW PEP
   NC2D1      CT2       CC     5   107.000000   418.400000   0.00000000         0.00 ; from, NH1  CT2  CC, ALLOW   PEP POL ARO ALI
   NC2D1    CC2O1      CT1     5   116.500000   669.440000   0.00000000         0.00 ; from, NH1  C    CT1, ALLOW   ALI PEP POL ARO
   OC2D1    CC2O1      CT1     5   121.000000   669.440000   0.00000000         0.00 ; from, O    C    CT1, ALLOW   ALI PEP POL ARO
   CC2O1      CT1      HB1     5   109.500000   276.144000   0.21630000     25104.00 ; from, HA1  CT1  C, ALLOW   ALI PEP POL ARO
   CC2O1      CT1      NH3     5   110.000000   365.681600   0.00000000         0.00 ; from, NH3  CT1  C, ALLOW   PEP POL ARO ALI
   CC2O1      CT1      CT3     5   108.000000   435.136000   0.00000000         0.00 ; from, CT3  CT1  C, ALLOW   ALI PEP POL ARO
    HCA1   CC3163      CT1     5   110.100000   288.696000   0.21790000     18853.10 ; from, HA  CT1 CT1
  OC3C61   CC3163      CT1     5   109.000000   376.560000   0.00000000         0.00 ; from C321 CC3163 OC3C61
  CC3161   CC3163      CT1     5   111.000000   446.432800   0.25610000      6694.40 ; from, CT1 CT1 CT1
  CC3163      CT1     HCA1     5   110.100000   288.696000   0.21790000     18853.10 ; from, HA  CT1 CT1
  CC3163      CT1    OC30P     5   107.500000   633.457600   0.00000000         0.00 ; from, OC30P   CC321   CC3163
  CC3163      CT1      CT2     5   111.000000   446.432800   0.25610000      6694.40 ; from, CT2 CT1 CT1
    HCA1      CT1    OC30P     5   109.500000   502.080000   0.00000000         0.00 ; from, OC30P   CC321   HCA2
    HCA1      CT1      CT2     5   110.100000   288.696000   0.21790000     18853.10 ; from, HA  CT1 CT2
   OC30P      CT1      CT2     5   107.500000   633.457600   0.00000000         0.00 ; from, OC30P   CC321   CC3163
     CT1    OC30P       PC     5   120.000000   167.360000   0.23300000     29288.00 ; from,
     CT1      CT2       OS     5   109.000000   460.240000   0.23260000     16736.00 ; from, OS   CD   CT1, ALLOW POL PEP
      OS       CC       OB     5   125.900000   753.120000   0.22576000    133888.00 ; from, OS   CD   OB, ALLOW  PEP POL
      OS       CC      NH2     5   122.500000   627.600000   0.23700000     41840.00 ; from, O    CC   NH2, ALLOW   POL PEP ARO
      OB       CC      NH2     5   122.500000   627.600000   0.23700000     41840.00 ; from, O    CC   NH2, ALLOW   POL PEP ARO
     CT2       OS       CC     5   109.600000   334.720000   0.22651000     25104.00 ; from, CT2  OS   CD, ALLOW  POL PEP
  CC3163    CC312    CC321     5   111.000000   446.432800   0.25610000      6694.40 ; from, CT2 CT1 CT1
    HCA1    CC312    CC321     5   110.100000   288.696000   0.21790000     18853.10 ; from, HA  CT1 CT2
   OC311    CC312    CC321     5   108.000000   633.457600   0.00000000         0.00 ; from, CC322   CC312   OC311
   CC312    CC321    OC2D2     5   109.000000   460.240000   0.23260000     16736.00 ; from, OS   CD   CT1
   CC312    CC321     HCA2     5   110.100000   221.752000   0.21790000     18853.10 ; ALLOW   ALI
    HCA2    CC321    OC2D2     5   109.500000   502.080000   0.00000000         0.00 ; from, OS   CT2  HA2
   CC321    OC2D2    CC2O1     5   109.600000   334.720000   0.22651000     25104.00 ; from, CT2  OS   CD
   OC2D2    CC2O1    OC2D1     5   125.900000   753.120000   0.22576000    133888.00 ; from, OS   CD   OB,
   OC2D2    CC2O1    NC2D1     5   122.500000   627.600000   0.23700000     41840.00 ; from, O    CC   NH2
   OC30P    CC312    CC321     5   109.000000   376.560000   0.00000000         0.00 ; from, OC30P   CC311D  CC321C
  CC3163    CC312    OC30P     5   107.500000   633.457600   0.00000000         0.00 ; from, OC30P   CC321   CC3163
  CC3161    OC301        C     5   109.600000   334.720000   0.22651000     25104.00 ; from, CT2  OS   CD, ALLOW  POL PEP
      PC    OC30P       PC     5   143.000000   376.560000   0.32500000     33472.00 ; from, PG1    OG304  PG1, PPI2, METP reorganization, kevo
   CG324    CG321    OC30P     5   110.100000   633.457600   0.00000000         0.00 ; OSLP CTL2 CTL2   75.700    110.10   ! acetic acid
    HGA2    CG321    OC30P     5   109.500000   502.080000   0.00000000         0.00 ; HAL2 CTL2 OSLP   60.0      109.5    ! phosphate
   CG321    OC30P       PC     5   120.000000   167.360000   0.23300000     29288.00 ; based on "CC311D  OC30P      PC"
    HCA1   CC3163    CC322     5   110.100000   288.696000   0.21790000     18853.10 ; from, CC321   CC3163  HCA1 par22 HA  CT1 CT2
  OC3C61   CC3163    CC322     5   109.000000   376.560000   0.00000000         0.00 ; from, CC321   CC3163  OC3C61
  CC3161   CC3163    CC322     5   113.500000   488.272800   0.25610000      9338.69 ; from CC3161 CC3163 CC321
  CC3163    CC322     HCA2     5   110.100000   279.742240   0.21790000     18853.10 ; par22 HA  CT2 CT1
  CC3163    CC322    CC322     5   113.500000   488.272800   0.25610000      9338.69 ; from, CT2  CT2  CT1
    HCA2    CC322    CC322     5   110.100000   221.752000   0.21790000     18853.10 ; from, HA2  CT2  CT2
   CC322    CC322    OC311     5   110.100000   633.457600   0.00000000         0.00 ; par22 OH1  CT2  CT1
    HCA1   CC3163    CC311     5   110.100000   288.696000   0.21790000     18853.10 ; from, HA1  CT1  CT1
  OC3C61   CC3163    CC311     5   110.000000   376.560000   0.00000000         0.00 ; from, CC3161  CC3163  OC3C61
  CC3161   CC3163    CC311     5   111.000000   446.432800   0.25610000      6694.40 ; par22 CT1 CT1 CT1
  CC3163    CC311     HCA1     5   110.100000   288.696000   0.21790000     18853.10 ; par22 HA  CT1 CT1
  CC3163    CC311    NC2D1     5   113.500000   585.760000   0.00000000         0.00 ; par22 NH1  CT1  CT1
  CC3163    CC311    CC312     5   113.500000   488.272800   0.25610000      9338.69 ; from CC3161 CC3163 CC312
    HCA1    CC311    CC312     5   110.100000   288.696000   0.21790000     18853.10 ; from, HA1  CT1  CT1
   NC2D1    CC311    CC312     5   113.500000   585.760000   0.00000000         0.00 ; par22 NH1  CT1  CT1
   CC311    CC312     HCA1     5   110.100000   288.696000   0.21790000     18853.10 ; from, HA1  CT1  CT1
   CC311    CC312    OC311     5   110.100000   633.457600   0.00000000         0.00 ; par22 OH1  CT1  CT1/CT3
   CC311    CC312    CC331     5   108.500000   446.432800   0.25610000      6694.40 ; from, CT3  CT1  CT1
    HCA1    CC312    CC331     5   110.100000   288.696000   0.21790000     18853.10 ; HA1  CT1  CT3
   OC311    CC312    CC331     5   110.100000   633.457600   0.00000000         0.00 ; par22 OH1  CT1  CT1/CT3
   CC312    CC331     HCA3     5   110.100000   279.742240   0.21790000     18853.10 ; HA3  CT3  CT1
   OC2D2    CC2O2    CC312     5   114.000000   334.720000   0.23880000     41840.00 ; from, CC311   CC2O2   OC2D2, og amop amol and xtals
   CC2O2    CC312     HCA1     5   109.500000   418.400000   0.00000000         0.00 ; from, CC2O2   CC311   HCA1, par 22 HB   CT1  CC
   CC2O2    CC312    OC311     5   110.100000   633.457600   0.00000000         0.00 ; from, CC2O2   CC3062  OC311
   CC2O2    CC312    CC322     5   108.000000   435.136000   0.00000000         0.00 ; from, CT2  CT1  CC
  CC3051   OC3C51   CC3251     5   111.000000   794.960000   0.00000000         0.00 ; from, CC3153 OC3C51 CC3051
  OC3C51   CC3251     HCA2     5   107.300000   585.760000   0.00000000         0.00 ; from, OC3C51 CC3153 HCA1
  OC3C51   CC3251   CC3151     5   111.100000   376.560000   0.00000000         0.00 ; from, OC3C51 CC3153 CC3151
  CC3251   CC3151   CC3151     5   109.500000   485.344000   0.25610000      9338.69 ; from, CC3051 CC3251 CC3151
  OC3C51   CC3153    CC312     5   108.000000   376.560000   0.00000000         0.00 ; from, OC3C51 CC3153 CC321
    HCA1   CC3153    CC312     5   110.100000   288.696000   0.21790000     18853.10 ; par22 HA  CT1 CT1
  CC3151   CC3153    CC312     5   113.500000   488.272800   0.25610000      9338.69 ; from, CC3151 CC3153 CC321
  CC3153    CC312     HCA1     5   110.100000   288.696000   0.21790000     18853.10 ; par22 HA  CT1 CT1
  CC3153    CC312    OC311     5   110.100000   633.457600   0.00000000         0.00 ; par22 OH1  CT1  CT1
  CC3153    CC312    CC322     5   111.000000   446.432800   0.25610000      6694.40 ; from, CT2  CT1  CT1
  CC3153    CC312    CC331     5   108.500000   446.432800   0.25610000      6694.40 ; 
   CC321    OC301    CC2O5     5   109.600000   334.720000   0.22651000     25104.00 ; from, CT2  OS   CD, ALLOW  POL PEP
  CC3163    CC312    OC301     5   106.000000   376.560000   0.00000000         0.00 ; from, OC301   CC321   CC3163, og fit compounds 11 and 12
   CC312    OC301    CC2O5     5   109.600000   334.720000   0.22651000     25104.00 ; from, CT2  OS   CD, ALLOW  POL PEP
   CC322    OC301    CC2O5     5   109.600000   334.720000   0.22651000     25104.00 ; from, CT2  OS   CD, ALLOW  POL PEP
  CC3152   CC3151    OC301     5   105.000000   376.560000   0.00000000         0.00 ; erh xtal anal on disac/furanose 3/09
    HCA1   CC3151    OC301     5   109.500000   502.080000   0.00000000         0.00 ; from, OC303   CC3151  HCA1
   OC301   CC3151   CC3151     5   110.500000   376.560000   0.00000000         0.00 ; from, OC301    CC3151   CC3151
  CC3151    OC301    CC2O5     5   109.600000   334.720000   0.22651000     25104.00 ; from, CC2O5   OC301   CC3161
   NC2D1    CC2O1     HCR1     5   111.000000   368.192000   0.19800000     41840.00 ; ALLOW POL
   OC2D1    CC2O1     HCR1     5   122.000000   368.192000   0.00000000         0.00 ; ALLOW POL
   NC2D1    CC2O1      NC2     5   120.000000   334.720000   0.23100000     58576.00 ; 
     NC2    CC2O1    CC331     5   116.500000   669.440000   0.00000000         0.00 ; 
   CC2O1      NC2       HC     5   120.000000   410.032000   0.00000000         0.00 ; 
   OC301   CC3162   CC3261     5   109.000000   376.560000   0.00000000         0.00 ; OC301 CC3161 CC3161 ; all36 carb
    HCA1   CC3162   CC3261     5   110.100000   288.696000   0.21790000     18853.10 ; CC3161  CC3162  HCA1     34.50   110.10  22.53  2.179
  OC3C61   CC3162   CC3261     5   106.000000   376.560000   0.00000000         0.00 ; CC3161  CC3162  OC3C61   45.00   106.00
  CC3162   CC3261     HCA2     5   110.100000   288.696000   0.21790000     18853.10 ; CC3162  CC3161  HCA1     34.50   110.10  22.53  2.179
  CC3162   CC3261   CC3161     5   111.000000   446.432800   0.25610000      6694.40 ; CC3162  CC3161  CC3161   53.35   111.00   8.00  2.561
   OC311   CC3162   CC3261     5   116.500000   376.560000   0.00000000         0.00 ; CC3162  OC3C61   45.00   116.50
  CC3261   CC3163   CC3261     5   113.500000   488.272800   0.25610000      9338.69 ; CC3161  CC3163  CC321    58.35   113.50  11.16  2.561
  CC3163   CC3261   CC3161     5   111.000000   446.432800   0.25610000      6694.40 ; CC3161  CC3161  CC3163   53.35   111.00   8.00  2.561
    HCA2   CC3261   OC3C61     5   109.500000   376.560000   0.00000000         0.00 ; HCA1    CC3162  OC3C61   45.00   109.50
  OC3C61   CC3261   CC3161     5   106.000000   376.560000   0.00000000         0.00 ; CC3161  CC3162  OC3C61   45.00   106.00
  CC3261   OC3C61   CC3163     5   109.700000   794.960000   0.00000000         0.00 ; CC3163  OC3C61  CC3162   95.00   109.70
    HCA1   CC3163   CC3261     5   110.100000   288.696000   0.21790000     18853.10 ; CC3161  CC3163  HCA1     34.50   110.10  22.53  2.179
  OC3C61   CC3163   CC3261     5   110.000000   376.560000   0.00000000         0.00 ; CC3161  CC3163  OC3C61   45.00   110.00
  CC3261   CC3163    CC321     5   113.500000   488.272800   0.25610000      9338.69 ; CC3161  CC3163  CC321    58.35   113.50  11.16  2.561
  CC3163   CC3261     HCA2     5   110.100000   288.696000   0.21790000     18853.10 ; CC3163  CC3161  HCA1     34.50   110.10  22.53  2.179
  CC3161    OC301    CC331     5   109.700000   794.960000   0.00000000         0.00 ; CC3162  OC301   CC331    95.00   109.70
    HCA2   CC3261     FGA1     5   108.890000   481.160000   0.19970000      4184.00 ; FGA1    CG3C51  HGA6     57.50   108.89   5.00  1.997
    FGA1   CC3261   OC3C61     5   112.000000   368.192000   0.23690000     25104.00 ; CG3C51  CG3C51  FGA1     44.00   112.00  30.00  2.369
    FGA1   CC3261   CC3161     5   112.000000   368.192000   0.23690000     25104.00 ; CG3C51  CG3C51  FGA1     44.00   112.00  30.00  2.369
  CC3162   CC3261     FGA1     5   112.000000   368.192000   0.23690000     25104.00 ; CG3C51  CG3C51  FGA1     44.00   112.00  30.00  2.369
  CC3163   CC3261     FGA1     5   112.000000   368.192000   0.23690000     25104.00 ; CG3C51  CG3C51  FGA1     44.00   112.00  30.00  2.369
   SG311   CC3162   OC3C61     5   116.500000   376.560000   0.00000000         0.00 ; OC311   CC3162  OC3C61   45.00   116.50
    HCA1   CC3162    SG311     5   111.300000   385.764800   0.00000000         0.00 ; SG311   CG321   HGA2     46.10   111.30
   SG311   CC3161     HCA1     5   111.300000   385.764800   0.00000000         0.00 ; SG311   CG321   HGA2     46.10   111.30
   SG311   CC3162   CC3161     5   114.500000   485.344000   0.00000000         0.00 ; CG321   CG321   SG311    58.00   114.50
   SG311   CC3161   CC3161     5   114.500000   485.344000   0.00000000         0.00 ; CG321   CG321   SG311    58.00   114.50
   SG311   CC3161   CC3163     5   114.500000   485.344000   0.00000000         0.00 ; CG321   CG321   SG311    58.00   114.50
  CC3162   CC3161    SG311     5   114.500000   485.344000   0.00000000         0.00 ; CG321   CG321   SG311    58.00   114.50
  CC3162    SG311     HGP3     5    95.000000   324.678400   0.00000000         0.00 ; CG321   SG311   HGP3     38.80    95.00
    HGP3    SG311   CC3161     5    95.000000   324.678400   0.00000000         0.00 ; CG321   SG311   HGP3     38.80    95.00
  CC3162   CC3161    NG3P3     5   113.500000   585.760000   0.00000000         0.00 ; CC3162  CC3161  NC2D1    70.00   113.50  ! par22 NH1  CT1  CT1
  CC3161   CC3161    NG3P3     5   113.500000   585.760000   0.00000000         0.00 ; CC3162  CC3161  NC2D1    70.00   113.50  ! par22 NH1  CT1  CT1
    HCA1   CC3161    NG3P3     5   108.000000   401.664000   0.00000000         0.00 ; NC2D1   CC3161  HCA1     48.00   108.00  ! par22 NH1  CT1  HB
  CC3161    NG3P3     HGP2     5   109.500000   251.040000   0.20740000     16736.00 ; CG314  NG3P3  HGP2  30.00  109.50  20.00  2.074 ! methylammonium (KK 03/10/92)
     CT3        C    OC301     5   109.000000   460.240000   0.23260000     16736.00 ; from, OS   CD   CT3, methyl acetate, ALLOW POL PE
       O        C    OC301     5   125.900000   753.120000   0.22576000    133888.00 ; from, OS   CD   OB, from, lipid methyl acetate, ALLOW  PEP POL
   CC322    OC301        C     5   109.600000   334.720000   0.22651000     25104.00 ; from, CT2  OS   CD, ALLOW  POL PEP
    HCP1    NC2D1     HCP1     5   120.000000   192.464000   0.00000000         0.00 ; from, H    NH2  H, ALLOW   POL
    HCA1   CC3163    NC2D1     5   108.000000   401.664000   0.00000000         0.00 ; par22 NH1  CT1  HB
  OC3C61   CC3163    NC2D1     5   110.000000   753.120000   0.00000000         0.00 ; from, NC2D1    CC3162   OC3C61
  CC3161   CC3163    NC2D1     5   113.500000   585.760000   0.00000000         0.00 ; par22 NH1  CT1  CT1
  CC3163    NC2D1     HCP1     5   117.000000   292.880000   0.00000000         0.00 ; par22 H    NH1  CT1
  CC3161    OC301    CC311     5   109.200000   418.400000   0.00000000         0.00 ; from, CC3161  OC301   CC3162
  CC3161   CC3161      NH1     5   113.500000   585.760000   0.00000000         0.00 ; par22 NH1  CT1  CT1
    HCA1   CC3161      NH1     5   108.000000   401.664000   0.00000000         0.00 ; par22 NH1  CT1  HB
  CC3161      NH1        C     5   120.000000   418.400000   0.00000000         0.00 ; par22 CT1  NH1  C
  CC3161      NH1        H     5   117.000000   292.880000   0.00000000         0.00 ; par22 H    NH1  CT1
  CC3162   CC3161      NH1     5   113.500000   585.760000   0.00000000         0.00 ; par22 NH1  CT1  CT1
  CC3163   CC3161      NH1     5   113.500000   585.760000   0.00000000         0.00 ; par22 NH1  CT1  CT1
  CC3163   CC3161    CC2O1     5   108.000000   435.136000   0.00000000         0.00 ; from, CT1  CT1  C, ALLOW   ALI PEP POL ARO
  CC3161   CC3161    CC2O1     5   108.000000   435.136000   0.00000000         0.00 ; from, CT1  CT1  C, ALLOW   ALI PEP POL ARO
    HCA1   CC3161    CC2O1     5   111.000000   292.880000   0.00000000         0.00 ; from, HB1  CT1  CT1, ALLOW  PEP
     HA3      CT3    CC2O1     5   109.500000   276.144000   0.21630000     25104.00 ; HA3  CT3  CC
     CT3    CC2O1    OC2D1     5   121.000000   125.520000   0.24400000     41840.00 ; ALLOW   ALI PEP POL ARO
     CT3    CC2O1    NC2D1     5   116.500000   418.400000   0.24500000     41840.00 ; ALLOW   ALI PEP POL ARO
   NC2D1      CT2    CC2O1     5   107.000000   418.400000   0.00000000         0.00 ; from, NH1  CT2  C
     HB2      CT2    CC2O1     5   109.500000   418.400000   0.00000000         0.00 ; from, HB2  CT2  C
  CC3161    CC2O1      CT2     5   108.000000   435.136000   0.00000000         0.00 ; 
  CC3161    CC2O1    OC2D1     5   121.000000   669.440000   0.00000000         0.00 ; from, O    C    CT2,
     CT2    CC2O1    OC2D1     5   121.000000   669.440000   0.00000000         0.00 ; from, O    C    CT2,
   CC2O1    NC2D1      CT1     5   120.000000   418.400000   0.00000000         0.00 ; from, CT1  NH1  C
    HCP1    NC2D1      CT1     5   117.000000   292.880000   0.00000000         0.00 ; par22 H    NH1  CT1
   NC2D1      CT1      HB1     5   108.000000   401.664000   0.00000000         0.00 ; par22 NH1  CT1  HB1
   NC2D1      CT1      CT1     5   113.500000   585.760000   0.00000000         0.00 ; par22 NH1  CT1  CT1
   NC2D1      CT1       CC     5   107.000000   418.400000   0.00000000         0.00 ; from, NH1  CT1  C
   NC2D1      CT1      CT3     5   113.500000   585.760000   0.00000000         0.00 ; from, NH1  CT1  CT3
  CC3163    CC312    CC2O1     5   108.000000   435.136000   0.00000000         0.00 ; from, CT1  CT1  C
    HCA1    CC312    CC2O1     5   109.500000   418.400000   0.00000000         0.00 ; from, par 22 HB   CT1  CC
   OC311    CC312    CC2O1     5   110.100000   633.457600   0.00000000         0.00 ; par22 OH1  CT1  CT1/CT3
   CC312    CC2O1    OC2D1     5   121.000000   669.440000   0.00000000         0.00 ; from, O    C    CT1
   CC312    CC2O1    NC2D1     5   116.500000   669.440000   0.00000000         0.00 ; from, NH1  C    CT1
   OC30P    CC312    CC2O1     5   110.100000   633.457600   0.00000000         0.00 ; acetic acid
   CC311    NC2D1      CT1     5   120.000000   418.400000   0.00000000         0.00 ; from, CT1  NH1  C
   CC312    OC301   CC3162     5   109.700000   794.960000   0.00000000         0.00 ; from CC3162  OC301   CC321
   CC311    CC312    OC301     5   106.000000   376.560000   0.00000000         0.00 ; from, OC301   CC312   CC312
   OC301    CC312    CC331     5   106.000000   376.560000   0.00000000         0.00 ; from, OC301   CC312   CC312
   CC312    CC322    OC303     5   106.000000   376.560000   0.00000000         0.00 ; from, OC301   CC312   CC312
    HCA2    CC322    OC303     5   109.500000   502.080000   0.00000000         0.00 ; par34 HCA2 CC32A OC30A
   CC322    OC303   CC3162     5   109.700000   794.960000   0.00000000         0.00 ; CC3162 OC301 CC321  ; all36 carb
  CC3152   CC3151    OC303     5   105.000000   376.560000   0.00000000         0.00 ; erh xtal anal on disac/furanose 3/09
  CC3161    OC301    CC321     5   109.700000   794.960000   0.00000000         0.00 ; from, CC3162  OC301   CC321
   CC312    OC301   CC3152     5   109.700000   794.960000   0.00000000         0.00 ; from, CC3162  OC301   CC321
  CC3153    CC312    OC301     5   106.000000   376.560000   0.00000000         0.00 ; pram, model compound 2(raman et al) OC301   CC321   CC312C
    HCA2    CC322    OC30P     5   109.500000   502.080000   0.00000000         0.00 ; phosphate
   OC30P    CC322    CC312     5   110.100000   633.457600   0.00000000         0.00 ; from, OSLP CTL2 CTL1
   CC322    OC30P       PC     5   120.000000   167.360000   0.23300000     29288.00 ; phosphate
   CC322    CC312    OC30P     5   110.100000   633.457600   0.00000000         0.00 ; from, OSLP CTL2 CTL1
    HCA1    CC312    OC30P     5   109.500000   502.080000   0.00000000         0.00 ; 
   CC312    OC30P       PC     5   120.000000   167.360000   0.23300000     29288.00 ; phosphate
   OC30P    CC312    CC312     5   110.100000   633.457600   0.00000000         0.00 ; from, OSLP CTL1 CTL1
   CC2O2    CC312    OC30P     5   110.100000   633.457600   0.00000000         0.00 ; acetic acid
  CC3161    OC301   CC3051     5   111.500000   418.400000   0.00000000         0.00 ; from, CC3162  OC302   CC3051
   CC312   CC3161   CC3161     5   113.500000   488.272800   0.25610000      9338.69 ; from, CC3161  CC3163  CC312
   CC312   CC3161     HCA1     5   110.100000   288.696000   0.21790000     18853.10 ; from, CC3163  CC312   HCA1
   CC312   CC3161    OC311     5   110.100000   633.457600   0.00000000         0.00 ; par22 OH1  CT1  CT1
   CC312    NC2D1    CC2O1     5   120.000000   418.400000   0.00000000         0.00 ; from, CT1  NH1  C
   CC312    NC2D1     HCP1     5   117.000000   292.880000   0.00000000         0.00 ; par22 H    NH1  CT1
  CC3151    OC303    CC322     5   109.200000   418.400000   0.00000000         0.00 ; from, CC3161  OC301   CC3162
  CC3161    CC322    CC321     5   111.000000   446.432800   0.25610000      6694.40 ; par22 CT1 CT1 CT1
  CC3161    OC301    CC322     5   109.700000   794.960000   0.00000000         0.00 ; from CC3162  OC301   CC321
  CC3162    CC312   CC3161     5   111.000000   446.432800   0.25610000      6694.40 ; par22 CT1 CT1 CT1
  CC3162    CC312     HCA1     5   110.100000   288.696000   0.21790000     18853.10 ; par22 HA  CT1 CT1
  CC3162    CC312    NC2D1     5   113.500000   585.760000   0.00000000         0.00 ; par22 NH1  CT1  CT1
  CC3162    CC312    OC30P     5   109.000000   376.560000   0.00000000         0.00 ; from, OC30P   CC3161  CC3162
   CC322   CC3161   CC3161     5   111.000000   446.432800   0.25610000      6694.40 ; par22 CT1 CT1 CT1
   CC322   CC3161     HCA1     5   110.100000   288.696000   0.21790000     18853.10 ; from, CC3163  CC312   HCA1
   CC322   CC3161    NC2D1     5   113.500000   585.760000   0.00000000         0.00 ; par22 NH1  CT1  CT1
   CC322   CC3161    OC311     5   110.100000   633.457600   0.00000000         0.00 ; par22 OH1  CT1  CT1
   CC322    CC321     HCA2     5   110.100000   221.752000   0.21790000     18853.10 ; par22 HA   CT2  CT2
   CC322    CC321    OC311     5   110.100000   633.457600   0.00000000         0.00 ; par22 OH1  CT2  CT1
    HCA1    CC312   CC3161     5   110.100000   288.696000   0.21790000     18853.10 ; par22 HA  CT1 CT1
    HCA1    CC312    NC2D1     5   108.000000   401.664000   0.00000000         0.00 ; par22 NH1  CT1  HB
    HCA1   CC3162    CC312     5   110.100000   288.696000   0.21790000     18853.10 ; par22 HA  CT1 CT1
   NC2D1    CC312   CC3161     5   113.500000   585.760000   0.00000000         0.00 ; par22 NH1  CT1  CT1
   OC301   CC3162    CC312     5   105.000000   376.560000   0.00000000         0.00 ; og/rmv disac crystal analysis
   OC301   CC3162    OC30P     5   110.000000   753.120000   0.00000000         0.00 ; from, OC30P   CC3162  OC3C61
   OC301    CC322   CC3161     5   106.000000   376.560000   0.00000000         0.00 ; OC301   CC321   CC3163
   OC301    CC322   OC3C61     5   110.000000   753.120000   0.00000000         0.00 ; og OMeTHP qm compounds 2 and 3
   OC303    CC322   CC3161     5   109.000000   376.560000   0.00000000         0.00 ; og OMeTHP qm compounds 2 and 3
   OC303    CC322   OC3C61     5   110.000000   753.120000   0.00000000         0.00 ; og OMeTHP qm compounds 2 and 3
   OC30P    CC312   CC3161     5   107.000000   376.560000   0.00000000         0.00 ; og OMeTHP qm compounds 2 and 3
   OC30P    CC322   CC3161     5   107.000000   376.560000   0.00000000         0.00 ; og OMeTHP qm compounds 2 and 3
   OC30P    CC322    CC321     5   107.000000   376.560000   0.00000000         0.00 ; og OMeTHP qm compounds 2 and 3
  CC3162    OC301   CC3162     5   109.200000   418.400000   0.00000000         0.00 ; from CC3161  OC301   CC3162
  CC3163    CC321    NC2D1     5   113.500000   585.760000   0.00000000         0.00 ; from NH1  CT1  CT1
    HCA2    CC321    NC2D1     5   109.500000   430.952000   0.00000000         0.00 ; from, NH1  CT2  HA2
   CC322    CC312    NC2D1     5   113.500000   585.760000   0.00000000         0.00 ; par22 NH1  CT1  CT1
   CC321    NC2D1    CC312     5   120.000000   418.400000   0.00000000         0.00 ; from, CT2  NH1  C
   CC321    NC2D1     HCP1     5   117.000000   292.880000   0.00000000         0.00 ; par22 H    NH1  CT1
  CC3163   CC3161   OC3C61     5   110.000000   376.560000   0.00000000         0.00 ; from, CC3161  CC3163  OC3C61
  CC3161   CC3161   OC3C61     5   110.000000   376.560000   0.00000000         0.00 ; from, CC3161  CC3163  OC3C61
    HCA1   CC3161   OC3C61     5   109.500000   376.560000   0.00000000         0.00 ; from, HCA1    CC3163  OC3C61
  CC3161   OC3C61    CC301     5   109.700000   794.960000   0.00000000         0.00 ; from, CC3163  OC3C61  CC3062
  CC3163   CC3261   OC3C61     5   111.500000   376.560000   0.00000000         0.00 ; from, OC3C61  CC321C  CC311C
  CC3261   OC3C61    CC301     5   109.700000   794.960000   0.00000000         0.00 ; from, CC3163  OC3C61  CC3062
  OC3C61    CC301   OC3C61     5   116.500000   376.560000   0.00000000         0.00 ; OC311 CC3162 OC3C61; og amol ok
  OC3C61    CC301    CC2O2     5   103.000000   376.560000   0.00000000         0.00 ; from, CC2O2   CC3062  OC3C61
  OC3C61    CC301    CC331     5   113.000000   633.457600   0.00000000         0.00 ; from, CC331   CC301   OC311
  CC3161   CC3163   CC3261     5   113.500000   488.272800   0.25610000      9338.69 ; from, CC3062  CC3261  CC3161
   OC311   CC3162    CC321     5   110.100000   633.457600   0.00000000         0.00 ; par22 OH1  CT1  CT1
  OC3C61   CC3162    CC321     5   109.000000   376.560000   0.00000000         0.00 ; from CC321 CC3163 OC3C61
  CC3162   CC3162    CC321     5   113.500000   488.272800   0.25610000      9338.69 ; from CC3161 CC3163 CC321
  CC3162    CC321     HCA2     5   110.100000   279.742240   0.21790000     18853.10 ; par22 HA  CT2 CT1
  CC3162    CC321    OC311     5   110.100000   633.457600   0.00000000         0.00 ; par22 OH1  CT2  CT1
  CC3161   CC3162    CC321     5   113.500000   488.272800   0.25610000      9338.69 ; from CC3161 CC3163 CC321
   OC301    CC321     CEL1     5   106.000000   376.560000   0.00000000         0.00 ; OC301   CC322   CC312
    HCA2    CC321     CEL1     5   111.500000   376.560000   0.00000000         0.00 ; HAL2 CTL2 CEL1
   CC321     CEL1     HEL1     5   116.000000   334.720000   0.00000000         0.00 ; HEL1 CEL1 CTL2
   CC321     CEL1     CEL2     5   126.000000   401.664000   0.00000000         0.00 ; CEL2 CEL1 CTL2
  CC3162    SG311    CC311     5    95.000000   284.512000   0.00000000         0.00 ; CG321  SG311  CG331
   SG311    CC311     HCA1     5   111.300000   385.764800   0.00000000         0.00 ; SG311  CG321  HGA2
   SG311    CC311    CC331     5   114.500000   485.344000   0.00000000         0.00 ; CG331  CG321  SG311
    HCA1   CC3163       CD     5   109.500000   276.144000   0.21630000     25104.00 ; HA1  CT1  CD
  OC3C61   CC3163       CD     5   103.000000   376.560000   0.00000000         0.00 ; CC2O2   CC3163  OC3C61
  CC3161   CC3163       CD     5   108.000000   435.136000   0.00000000         0.00 ; par22 CT1  CT1  CC
  CC3163       CD       OB     5   125.000000   585.760000   0.24420000     16736.00 ; OB   CD   CT1
  CC3163       CD       OS     5   109.000000   460.240000   0.23260000     16736.00 ; OS   CD   CT1
  OC3C51   CC3152    OC30P     5   110.000000   753.120000   0.00000000         0.00 ; OC30P   CC3162  OC3C61
    HCA1   CC3152    OC30P     5   109.500000   502.080000   0.00000000         0.00 ; OC30P   CC3162  HCA1
   OC30P   CC3152   CC3151     5   109.000000   376.560000   0.00000000         0.00 ; OC30P   CC3162  CC3161
  CC3152    OC30P       PC     5   120.000000   167.360000   0.23300000     29288.00 ; CC3162  OC30P   PC
   CC321    OC301     CTL2     5   109.700000   794.960000   0.00000000         0.00 ; CC3162 OC301 CC321  ; all36 carb
   OC301    CC312    CC2O2     5   103.000000   376.560000   0.00000000         0.00 ; CC2O2   CC311   OC301
  OC3C51   CC3152    NC2D1     5   110.000000   753.120000   0.00000000         0.00 ; OC3C61   CC3163   NC2D1
    HCA1   CC3152    NC2D1     5   108.000000   401.664000   0.00000000         0.00 ; HCA1     CC3162   NC2D1
   NC2D1   CC3152   CC3151     5   113.500000   585.760000   0.00000000         0.00 ; CC3162   CC3161   NC2D1
  CC3152    NC2D1     HCP1     5   117.000000   292.880000   0.00000000         0.00 ; CC3162   NC2D1    HCP1
  CC3152    NC2D1    CC2O1     5   120.000000   418.400000   0.00000000         0.00 ; CC3162   NC2D1    CC2O1
   NC2D1    CC2O1      CT2     5   116.500000   669.440000   0.00000000         0.00 ; NC2D1    CC2O1    CTL2
   CC2O1      CT2      NH2     5   107.000000   418.400000   0.00000000         0.00 ; NH2      CT2      C
  CC3163    CC321       SC     5   105.500000   359.824000   0.00000000         0.00 ; CG321  CG321  SG3O1
    HCA2    CC321       SC     5   109.000000   410.032000   0.00000000         0.00 ; SG3O1  CG321  HGA2
   CC321       SC    OC2DP     5    99.000000   669.440000   0.00000000         0.00 ; CG321  SG3O1  OG2P1
   SG311     CTL2     HAL2     5   111.300000   385.764800   0.00000000         0.00 ; SG311  CG321  HGA2
   SG311     CTL2     CTL2     5   114.500000   485.344000   0.00000000         0.00 ; CG321  CG321  SG311
  CC3162    SG311     CTL2     5    95.000000   284.512000   0.00000000         0.00 ; CG321  SG311  CG321
    CTO2     CTL1    OC301     5   107.000000   376.560000   0.00000000         0.00 ; OC301   CC311   CC331
    HAL1     CTL1    OC301     5   109.500000   502.080000   0.00000000         0.00 ; HCA1    CC311   OC301
   OC301     CTL1     CTL2     5   107.000000   376.560000   0.00000000         0.00 ; OC301   CC311   CC331
    CTL1    OC301     CTL2     5   109.700000   794.960000   0.00000000         0.00 ; CC3162  OC301   CC331
    CTL1     CTL2    OC301     5   107.000000   376.560000   0.00000000         0.00 ; OC301   CC311   CC331
    CTL2    OC301     CTL2     5   109.700000   794.960000   0.00000000         0.00 ; CC3162  OC301   CC331
  CC3051    CC321    OC30P     5   107.500000   633.457600   0.00000000         0.00 ; OC30P   CC321   CC3163
  CC3051   CC3151    OC30P     5   109.000000   376.560000   0.00000000         0.00 ; OC30P   CC3162  CC3161
    HCA1   CC3151    OC30P     5   109.500000   502.080000   0.00000000         0.00 ; OC30P   CC3162  HCA1
   OC30P   CC3151   CC3151     5   107.000000   376.560000   0.00000000         0.00 ; OC30P   CC3161  CC3161
  CC3151    OC30P       SC     5   109.000000   125.520000   0.19000000     22593.60 ; CC3161  OC30P      SC
  CC3153   CC3151    OC30P     5   109.000000   376.560000   0.00000000         0.00 ; OC30P   CC3162  CC3161
  CC3062    OC301    CC331     5   109.700000   794.960000   0.00000000         0.00 ; CC3161  OC301   CC331
  CC3062   CC3261     FGA1     5   112.000000   368.192000   0.23690000     25104.00 ; CC3162  CC3261  FGA1
   CC2O2   CC3062     FGA1     5   112.000000   368.192000   0.23690000     25104.00 ; CC3162  CC3261  FGA1
    FGA1   CC3062   OC3C61     5   112.000000   368.192000   0.23690000     25104.00 ; FGA1    CC3261  OC3C61
    FGA1   CC3062   CC3261     5   112.000000   368.192000   0.23690000     25104.00 ; FGA1    CC3261  CC3161
  CC3261   CC3161    NC2D1     5   113.500000   585.760000   0.00000000         0.00 ; CC3161  CC3161  NC2D1
  CC3161    SG311   CC3162     5    95.000000   284.512000   0.00000000         0.00 ; CG321  SG311  CG331
  CC3162    SG311   CC3162     5    95.000000   284.512000   0.00000000         0.00 ; CG321  SG311  CG331
  CC3261   CC3163    CC2O2     5   108.000000   435.136000   0.00000000         0.00 ; CC2O2   CC3163  CC3161
  OC3C51   CC3051    OC30P     5   110.000000   753.120000   0.00000000         0.00 ; OC30P   CC3162  OC3C61
   OC30P   CC3051    CC321     5   109.000000   376.560000   0.00000000         0.00 ; OC30P   CC3162  CC3161
   OC30P   CC3051   CC3151     5   109.000000   376.560000   0.00000000         0.00 ; OC30P    CC3152   CC3151
  CC3051    OC30P       PC     5   120.000000   167.360000   0.23300000     29288.00 ; CT1   OC30P   PC
   OC30P    CC321   CC3162     5   107.500000   633.457600   0.00000000         0.00 ; OC30P   CC321   CC3163
   CC2O2   CC3062   CC3161     5   112.000000   435.136000   0.00000000         0.00 ; CC2O2   CC3062  CC3261
   OC311   CC3062   CC3161     5   113.000000   633.457600   0.00000000         0.00 ; CC3261  CC3062  OC311
  OC3C61   CC3062   CC3161     5   111.500000   376.560000   0.00000000         0.00 ; OC3C61  CC3062  CC3261
  CC3062   CC3161     HCA1     5   110.100000   279.742240   0.21790000     18853.10 ; CC3062  CC3261  HCA2
  CC3062   CC3161    OC311     5   110.100000   633.457600   0.00000000         0.00 ; CC3162  CC3161  OC311
  CC3062   CC3161   CC3161     5   111.000000   446.432800   0.25610000      6694.40 ; CC3162  CC3161  CC3261
   CC2O1    CC312    CC322     5   108.000000   435.136000   0.00000000         0.00 ; CT1      CC321    CC2O1
   CC312    CC322    CC322     5   109.500000   485.344000   0.25610000      9338.69 ; CC312C  CC322C  CC322C
     CT2      CT1      OH1     5   110.100000   633.457600   0.00000000         0.00 ; from, OH1  CT2  CT2
   NC2D1    CC2O1    CC322     5   116.500000   418.400000   0.24500000     41840.00 ; CC321    CC2O1    NC2D1
   OC2D1    CC2O1    CC322     5   121.000000   125.520000   0.24400000     41840.00 ; O    CC   CT2   15.000    121.00   50.00   2.44000 ! ALLOW   ALI PEP POL ARO
   CC2O1    CC322     HCA2     5   109.500000   276.144000   0.21630000     25104.00 ; HCA2     CC321    CC2O1
   CC2O1    CC322    CC312     5   108.000000   435.136000   0.00000000         0.00 ; from, CT1  CT1  C
   CC312    CC322    CC312     5   113.500000   488.272800   0.25610000      9338.69 ; CT1  CT2  CT1
   CC322    CC312    CC331     5   114.000000   446.432800   0.25610000      6694.40 ; CC322C  CC312C  CC331
   CC2O1    CC312    CC331     5   108.000000   435.136000   0.00000000         0.00 ; CC2O1   CT1     CT3
   CC2O1      CT1    NC2D1     5   107.000000   418.400000   0.00000000         0.00 ; NC2D1    CT1      CC
   CC2O1      CT1      CT1     5   108.000000   435.136000   0.00000000         0.00 ; CT1  CT1  CC
   CC2O1      CT2      HA2     5   109.500000   276.144000   0.21630000     25104.00 ; HA2  CT2  CC
   CC2O1      CT2      CT1     5   108.000000   435.136000   0.00000000         0.00 ; CT2  CT1  C
     CT2      CT1    OC301     5   106.000000   376.560000   0.00000000         0.00 ; from, OC301   CC321   CC3163,
     NH1      CP1    CC2O1     5   107.000000   418.400000   0.00000000         0.00 ; NH1  CT1  C
     HB1      CP1    CC2O1     5   109.500000   276.144000   0.21630000     25104.00 ; from, HA1  CT1  C, ALLOW   ALI PEP POL ARO
     CP2      CP1    CC2O1     5   108.000000   435.136000   0.00000000         0.00 ; from, CT2  CT1  CC
     CP1      CP2      OH1     5   112.500000   418.400000   0.00000000         0.00 ; CP2    CP2    OH1, from toppar_all36_prot_modify_res.str
     CP1      CP2      CT3     5   108.500000   446.432800   0.25610000      6694.40 ; CT3  CT1  CT1
     OH1      CP2      CT3     5   110.100000   633.457600   0.00000000         0.00 ; OH1  CT1  CT3
     CT3      CP2      CP2     5   120.000000   383.254400   0.00000000         0.00 ; CG2R61 CG2R61 CG331
     CP2      CT3      HA3     5   110.100000   279.742240   0.21790000     18853.10 ; CC3163  CC331   HCA3
   NC2D1    CC2O1      CP1     5   120.000000   418.400000   0.00000000         0.00 ; CC311D   NC2D1    CC2O1
     CP1    CC2O1    OC2D1     5   121.000000   125.520000   0.24400000     41840.00 ; CC321    CC2O1    OC2D1
   OC301   CC3062   CC3161     5   105.000000   376.560000   0.00000000         0.00 ; from OC301   CC3162  CC3161
  CC3261   CC3161    OC30P     5   107.000000   376.560000   0.00000000         0.00 ; from, CC3161   CC3161   OC30P
  CC3263   CC3161    NC2D1     5   113.500000   585.760000   0.00000000         0.00 ; from, CC3162  CC3161  NC2D1
  CC3162   CC3161    CC2O1     5   108.000000   435.136000   0.00000000         0.00 ; CT1  CT1  CC
  CC3161    CC2O1    NC2D1     5   120.000000   418.400000   0.00000000         0.00 ; from, CT1  NH1  C
      HC      NH1       CC     5   126.000000   284.512000   0.00000000         0.00 ; backbone copy. 123.0  MP2 is A(5,1,9) 121.9603
      HC      NH1      CP1     5   120.000000   292.880000   0.00000000         0.00 ; backbone copy. 117.0  MP2 is A(2,1,9) 123.1333
      CC      NH1      CP1     5   114.000000   585.760000   0.00000000         0.00 ; PRO, to make 360 deg. MP2 is A(2,1,5) 114.8912
     NH1       CC        O     5   127.000000   669.440000   0.00000000         0.00 ; Need to make 360 deg.  MP2 is A(1,5,6) 126.2101
     NH1       CC      CP2     5   105.000000   585.760000   0.00000000         0.00 ; CG-CD-N 106.041+1.687  MP2 is A(1,5,4) 106.039
       O       CC      CP2     5   128.000000   669.440000   0.00000000         0.00 ; CG-CD-OE 127.739+2.033 MP2 is A(4,5,6) 127.7418
     NH1      CP1      HB1     5   114.000000   401.664000   0.00000000         0.00 ; PRO copy, don't touch MP2 is 112.1818
     NH1      CP1      CP2     5   110.800000   585.760000   0.00000000         0.00 ; PRO copy, don't touch MP2 is 102.4876
      CC      CP2      CP2     5   105.000000   585.760000   0.00000000         0.00 ; copy CP2-CP2-CP3 from PRO. MP2 is A(3,4,5) 103.9893
      CC      CP2      HA2     5   109.500000   221.752000   0.21790000     18853.10 ; HGx-CG-CD, MP2 is 108.3808, 110.3278
  CC3163    CC312    CC331     5   114.000000   446.432800   0.25610000      6694.40 ; CC322C  CC312C  CC331
   CC312    CC322    NC2D1     5   113.500000   585.760000   0.00000000         0.00 ; NC2D1    CC311    CC312
   NC2D1    CC322     HCA2     5   109.500000   430.952000   0.00000000         0.00 ; HCA2     CC321    NC2D1
   CC322    NC2D1     HCP1     5   117.000000   292.880000   0.00000000         0.00 ; HCP1     NC2D1    CC311
   CC322    NC2D1    CC2O1     5   120.000000   418.400000   0.00000000         0.00 ; from, CT2  NH1  C,
  CC3152    OC301   CC3151     5   109.200000   418.400000   0.00000000         0.00 ; CC3161  OC301   CC3152
  CC3153   CC3151    OC301     5   109.000000   376.560000   0.00000000         0.00 ; OC301   CC3161  CC3163
  CC3263   CC3161    SG311     5   114.500000   485.344000   0.00000000         0.00 ; CC3162  CC3161  SG311
  CC3163    CC321    SG311     5   114.500000   485.344000   0.00000000         0.00 ; SG311   CC3161  CC3163
   SG311    CC321     HCA2     5   111.300000   385.764800   0.00000000         0.00 ; SG311   CG321   HGA2
   CC321    SG311   CC3162     5    95.000000   284.512000   0.00000000         0.00 ; CG321  SG311  CG331
   OC30P   CC3162   CC3261     5   109.000000   376.560000   0.00000000         0.00 ; OC30P  CC3162  CC3161
    FGA1   CC3261    CC321     5     2.369000   251.040000   0.00000000         0.00 ; CG3C51  CG3C51  FGA1
  OC3C61   CC3261    CC321     5   109.000000   376.560000   0.00000000         0.00 ; from CC321 CC3163 OC3C61
  CC3161   CC3261    CC321     5   113.500000   488.272800   0.25610000      9338.69 ; CC3161  CC3163  CC321
  CC3261    CC321     HCA2     5   110.100000   279.742240   0.21790000     18853.10 ; CC3163  CC321   HCA2
  CC3261    CC321    OC311     5   110.100000   633.457600   0.00000000         0.00 ; CC3163  CC321   OC311
  CC3261   OC3C61   CC3261     5   109.700000   794.960000   0.00000000         0.00 ; CC3163  OC3C61  CC3162
  CC3162   OC3C61   CC3261     5   109.700000   794.960000   0.00000000         0.00 ; CC3163  OC3C61  CC3162
  CC3161    OC301      CT1     5   109.200000   418.400000   0.00000000         0.00 ; CC3161  OC301   CC3162
   OC301      CT1      HB1     5   109.500000   502.080000   0.00000000         0.00 ; par35 HCA2 CC32A OC30A
   OC301      CT1        C     5   103.000000   376.560000   0.00000000         0.00 ; CC2O2   CC311   OC301
   CC312    OC301    CC331     5   109.700000   794.960000   0.00000000         0.00 ; par35 CC32A  OC30A CC32A ! par_all36_carb.prm
   CC2O1    CC321    OC311     5   110.100000   633.457600   0.00000000         0.00 ; par22 OH1  CT1  CT1;
   CC321    OC301    CC321     5   109.700000   794.960000   0.00000000         0.00 ; CC3162 OC301  CTL2
   CC321    OC301      CT2     5   109.700000   794.960000   0.00000000         0.00 ; par35 CC32A  OC30A CC32A
   OC301      CT2        C     5   106.000000   376.560000   0.00000000         0.00 ; OC301   CC321   CC3163
   CC321    CC321    NG2S3     5   109.700000   228.446400   0.00000000         0.00 ; from, CG331  CG321  NG2S3
    HCA2    CC321    NG2S3     5   105.200000   320.494400   0.00000000         0.00 ; from, NG2S3  CG321  HGA2
   CC321    NG2S3   CG2R61     5   112.200000   338.904000   0.24217000      4184.00 ; from, CG3AM1 NG311  CG3AM1
   CC321    NG2S3     HGP4     5   108.900000   352.292800   0.20292000      4184.00 ; from, CG3AM1 NG311  HGPAM1
   CG321    CG321    OC30P     5   110.100000   633.457600   0.00000000         0.00 ; OSLP CTL2 CTL2   75.700    110.10   ! acetic acid
  CC3152    OC301    CC322     5   111.000000   794.960000   0.00000000         0.00 ; from CC3152  OC301   CC321

; angle parameters from toppar_c36_jul22/stream/carb/toppar_all36_carb_lignin.str
;      i        j        k  func       theta0       ktheta          ub0          kub
  CC3151   CC3151     OLG4     5   117.038700   428.433232   0.23525000      1606.66 ; 
  CC3151   CC3152     OLG4     5   108.422200   428.399760   0.21727000      2535.50 ; 
  CC3151     OLG4    CLG11     5   116.220000   635.047520   0.00000000         0.00 ; 
  CC3152   CC3151     OLG4     5   108.442200   471.846416   0.23329000      5012.43 ; 
  CC3152     OLG4    CLG11     5   113.283400   477.118256   0.00000000         0.00 ; 
  CC3152     OLG4   CLG06B     5   110.492400   526.422512   0.00000000         0.00 ; 
  CC3153    CC321     OLG4     5   106.141700   580.262224   0.00000000         0.00 ; 
  CC3153    CC321     OLG5     5   109.344200   618.629504   0.00000000         0.00 ; 
   CC321     OLG4    CLG11     5   111.519900   712.819712   0.00000000         0.00 ; 
   CC321     OLG5    CLG03     5   118.774300   332.753520   0.25905000     25045.42 ; 
   CLG01    CLG01    CLG02     5   125.656500   401.973616   0.00000000         0.00 ; 
   CLG01    CLG01    CLG03     5   119.145000   468.423904   0.00000000         0.00 ; 
   CLG01    CLG01    CLG04     5   118.256200   367.271520   0.00000000         0.00 ; 
   CLG01    CLG01    CLG05     5   119.298300   495.310288   0.00000000         0.00 ; 
   CLG01    CLG01    CLG06     5   121.191000   218.973824   0.00000000         0.00 ; 
   CLG01    CLG01    CLG11     5   123.413700   399.069920   0.00000000         0.00 ; 
   CLG01    CLG01    CLG12     5   120.548600   369.731712   0.00000000         0.00 ; 
   CLG01    CLG01    HLGA4     5   120.718800   190.037280   0.00000000         0.00 ; 
   CLG01    CLG02    CLG02     5   117.768400   401.036400   0.00000000         0.00 ; 
   CLG01    CLG02    CLG03     5   117.632600   403.680688   0.00000000         0.00 ; 
   CLG01    CLG03     OLG1     5   126.406200   544.137568   0.00000000         0.00 ; 
   CLG01    CLG03     OLG5     5   109.704800   373.087280   0.21750000     16351.07 ; 
   CLG01    CLG03     OLG6     5   109.229400   331.791200   0.23407000     24334.14 ; 
   CLG01    CLG04     OLG2     5   115.090600   269.616960   0.23093000     37413.33 ; 
   CLG01    CLG05   HLGR52     5   113.837100   137.938112   0.00000000         0.00 ; 
   CLG01    CLG05     OLG1     5   125.357600   631.474384   0.00000000         0.00 ; 
   CLG01    CLG06    CLG06     5   119.750800   270.796848   0.00000000         0.00 ; 
   CLG01    CLG11    CLG03     5   112.639000  1044.451920   0.00000000         0.00 ; 
   CLG01    CLG11    CLG11     5   108.908300   266.763472   0.00000000         0.00 ; 
   CLG01    CLG11    HLGA1     5   110.543400   376.869616   0.00000000         0.00 ; 
   CLG01    CLG12    HLGA2     5   111.957400   341.740752   0.00000000         0.00 ; 
   CLG01    CLG12     OLG6     5   114.082700   597.408256   0.00000000         0.00 ; 
   CLG02    CLG01    CLG03     5   115.156200   402.174448   0.00000000         0.00 ; 
   CLG02    CLG02    CLG03     5   124.587800   504.372832   0.00000000         0.00 ; 
   CLG02    CLG02    CLG06     5   132.096200   238.044496   0.00000000         0.00 ; 
   CLG02    CLG02    HLGA4     5   114.108000   350.426736   0.00000000         0.00 ; 
   CLG02    CLG03     OLG1     5   124.991900   583.877200   0.00000000         0.00 ; 
   CLG02    CLG03     OLG6     5   111.046500   335.121664   0.21827000     25145.84 ; 
   CLG02    CLG06    CLG06     5   119.665600   281.256848   0.00000000         0.00 ; 
   CLG03    CLG01    CLG11     5   117.279100   542.070672   0.00000000         0.00 ; 
   CLG03    CLG01    HLGA4     5   120.095500   290.269184   0.00000000         0.00 ; 
   CLG03    CLG06    CLG06     5   119.653000   375.070496   0.00000000         0.00 ; 
   CLG03    CLG11    CLG11     5   107.315300   436.474880   0.00000000         0.00 ; 
   CLG03    CLG11    HLGA1     5   106.424800   418.274480   0.00000000         0.00 ; 
   CLG03     OLG5    CLG11     5   112.664700   308.662048   0.21734000     28175.06 ; 
   CLG03     OLG5    CLG12     5   113.526500   321.532032   0.23116000     24141.68 ; 
   CLG03     OLG6    HLGP1     5   111.850900   510.255536   0.00000000         0.00 ; 
   CLG04    CLG01    HLGA4     5   120.734400   399.521792   0.00000000         0.00 ; 
   CLG04    CLG06    CLG06     5   119.427200   268.453808   0.00000000         0.00 ; 
   CLG05    CLG01    HLGA4     5   119.974300   250.303616   0.00000000         0.00 ; 
   CLG05    CLG06    CLG06     5   119.663600   376.593472   0.00000000         0.00 ; 
   CLG06    CLG01    HLGA4     5   118.467200   298.787808   0.00000000         0.00 ; 
   CLG06    CLG02    HLGA4     5   113.792200   265.968512   0.00000000         0.00 ; 
   CLG06    CLG03     OLG1     5   125.628300   572.814704   0.25378000     16334.34 ; 
   CLG06    CLG03     OLG5     5   110.599100   403.956832   0.24057000     15957.78 ; 
   CLG06    CLG03     OLG6     5   110.742900   300.812864   0.24752000     24618.66 ; 
   CLG06    CLG04     OLG2     5   115.071900   320.569712   0.22485000     39480.22 ; 
   CLG06    CLG05   HLGR52     5   115.689400   141.168160   0.00000000         0.00 ; 
   CLG06    CLG05     OLG1     5   123.482200   633.624960   0.00000000         0.00 ; 
   CLG06    CLG06    CLG06     5   120.676500   251.115312   0.23288000     33882.03 ; 
   CLG06    CLG06    CLG09     5   117.300800   343.188416   0.00000000         0.00 ; 
   CLG06    CLG06    CLG10     5   115.362800   400.894144   0.00000000         0.00 ; 
   CLG06    CLG06    CLG11     5   119.281800   282.804928   0.00000000         0.00 ; 
   CLG06    CLG06    CLG14     5   119.748700   347.422624   0.00000000         0.00 ; 
   CLG06    CLG06   CLG06A     5   120.198200   280.110432   0.23001000     35204.18 ; 
   CLG06    CLG06   CLG06B     5   116.731800   282.846768   0.22608000     29605.98 ; 
   CLG06    CLG06   HLGR61     5   120.095000   125.520000   0.22492000     25589.34 ; 
   CLG06    CLG07    CLG07     5   123.296400   334.761840   0.00000000         0.00 ; 
   CLG06    CLG07     OLG8     5   115.299800   335.029616   0.00000000         0.00 ; 
   CLG06    CLG09    CLG06     5   115.710600   332.167760   0.00000000         0.00 ; 
   CLG06    CLG09    CLG09     5   122.339200   334.636320   0.00000000         0.00 ; 
   CLG06    CLG09   CLG06A     5   121.431300   302.118272   0.00000000         0.00 ; 
   CLG06    CLG10    CLG10     5   120.509200   306.561680   0.00000000         0.00 ; 
   CLG06    CLG10    CLG14     5   131.705300   378.166656   0.00000000         0.00 ; 
   CLG06    CLG10     OLG7     5   125.136200   419.897872   0.00000000         0.00 ; 
   CLG06    CLG11    CLG06     5   113.483500   431.755328   0.00000000         0.00 ; 
   CLG06    CLG11    CLG11     5   107.521700   422.249280   0.00000000         0.00 ; 
   CLG06    CLG11    CLG12     5   111.878700   391.998960   0.00000000         0.00 ; 
   CLG06    CLG11    HLGA1     5   112.928400   344.987536   0.00000000         0.00 ; 
   CLG06    CLG11     OLG4     5   109.080800   631.348864   0.00000000         0.00 ; 
   CLG06    CLG11     OLG5     5   108.904600   616.863856   0.00000000         0.00 ; 
   CLG06    CLG11     OLG6     5   110.671100   608.922624   0.00000000         0.00 ; 
   CLG06    CLG11     OLG8     5   106.668900   633.323712   0.00000000         0.00 ; 
   CLG06    CLG14    CLG14     5   111.847200   319.875168   0.00000000         0.00 ; 
   CLG06    CLG14    CLG16     5   109.904500   417.404208   0.00000000         0.00 ; 
   CLG06    CLG14    HLGA1     5   111.775100   376.936560   0.00000000         0.00 ; 
   CLG06    CLG14     OLG7     5   108.118500   773.947952   0.00000000         0.00 ; 
   CLG06   CLG06A    CLG06     5   115.048800   295.842272   0.24618000     31380.00 ; 
   CLG06   CLG06A    CLG07     5   117.950800   334.251392   0.24896000     29271.26 ; 
   CLG06   CLG06A    CLG09     5   115.100000   284.302800   0.00000000         0.00 ; 
   CLG06   CLG06A    CLG10     5   119.046300   384.978208   0.00000000         0.00 ; 
   CLG06   CLG06A   CLG06A     5   124.674700   243.801680   0.22679000     28434.46 ; 
   CLG06   CLG06A   CLG06B     5   116.135100   312.645216   0.23613000     29229.42 ; 
   CLG06   CLG06A     OLG6     5   123.361100   189.116800   0.00000000         0.00 ; 
   CLG06   CLG06B    CLG06     5   116.541700   329.900032   0.24825000     29204.32 ; 
   CLG06   CLG06B    CLG10     5   119.089800   370.903232   0.00000000         0.00 ; 
   CLG06   CLG06B   CLG06A     5   119.932600   247.274400   0.22940000     28501.41 ; 
   CLG06   CLG06B   CLG06B     5   118.688100   354.167232   0.23726000     30108.06 ; 
   CLG06   CLG06B     OLG4     5   121.733600   460.240000   0.00000000         0.00 ; 
   CLG06   CLG06B     OLG8     5   118.879100   389.145472   0.00000000         0.00 ; 
   CLG07    CLG06   CLG06A     5   118.332900   334.753472   0.24262000     29279.63 ; 
   CLG07    CLG06   HLGR61     5   121.930100   167.058752   0.19552000     18409.60 ; 
   CLG07    CLG07    CLG08     5   120.569300  1004.385936   0.00000000         0.00 ; 
   CLG07    CLG07   CLG06A     5   118.030400   334.728368   0.00000000         0.00 ; 
   CLG07    CLG07     OLG8     5   121.400900    84.299232   0.00000000         0.00 ; 
   CLG07    CLG08    CLG07     5   114.703400    83.671632   0.00000000         0.00 ; 
   CLG07    CLG08     OLG3     5   122.650500   836.791632   0.00000000         0.00 ; 
   CLG07    CLG09    CLG09     5   125.343300   334.820416   0.00000000         0.00 ; 
   CLG07    CLG09     OLG8     5   123.037200   335.389440   0.00000000         0.00 ; 
   CLG07   CLG06A     OLG6     5   118.838700   377.848672   0.00000000         0.00 ; 
   CLG07     OLG8    CLG09     5   120.075400   335.347600   0.00000000         0.00 ; 
   CLG08    CLG07    CLG09     5   121.922900  1004.201840   0.00000000         0.00 ; 
   CLG08    CLG07   CLG06A     5   121.400400  1004.160000   0.00000000         0.00 ; 
   CLG08    CLG07   HLGR62     5   118.327600   251.014896   0.00000000         0.00 ; 
   CLG09    CLG06   CLG06B     5   115.312300   333.121712   0.00000000         0.00 ; 
   CLG09    CLG06   HLGR61     5   122.266400   256.052432   0.00000000         0.00 ; 
   CLG09    CLG07   HLGR62     5   119.752600   351.522944   0.00000000         0.00 ; 
   CLG09    CLG09   CLG06A     5   115.980600   311.147344   0.00000000         0.00 ; 
   CLG09    CLG09     OLG8     5   111.620500   368.292416   0.00000000         0.00 ; 
   CLG09   CLG06A   CLG06A     5   124.485500   286.595632   0.00000000         0.00 ; 
   CLG09   CLG06A   CLG06B     5   116.912500   314.193296   0.00000000         0.00 ; 
   CLG09   CLG06A     OLG6     5   122.434100   271.742432   0.00000000         0.00 ; 
   CLG10    CLG06   HLGR61     5   124.303000   242.998352   0.22915000     20225.46 ; 
   CLG10    CLG10    CLG14     5   107.724900   872.330528   0.00000000         0.00 ; 
   CLG10    CLG10   CLG06A     5   126.337600   340.108992   0.00000000         0.00 ; 
   CLG10    CLG10   CLG06B     5   124.320900   362.970368   0.00000000         0.00 ; 
   CLG10    CLG10     OLG7     5   114.458600   617.658816   0.00000000         0.00 ; 
   CLG10    CLG14    CLG12     5   111.527500   475.059728   0.00000000         0.00 ; 
   CLG10    CLG14    CLG14     5   100.184600   538.037296   0.00000000         0.00 ; 
   CLG10    CLG14    HLGA1     5   114.388000   299.440512   0.00000000         0.00 ; 
   CLG10   CLG06A     OLG6     5   117.103400   402.291600   0.00000000         0.00 ; 
   CLG10   CLG06B     OLG4     5   119.001600   775.554608   0.00000000         0.00 ; 
   CLG10     OLG7    CLG14     5   103.101700   617.006112   0.00000000         0.00 ; 
   CLG11    CLG03     OLG1     5   121.787600   583.542480   0.22496000     16551.90 ; 
   CLG11    CLG03     OLG6     5   114.179300   459.127056   0.00000000         0.00 ; 
   CLG11    CLG11    CLG12     5   113.048200   287.365488   0.24821000        16.74 ; 
   CLG11    CLG11    HLGA1     5   110.148600   208.170736   0.21467000     12987.14 ; 
   CLG11    CLG11     OLG4     5   110.932700   781.261584   0.00000000         0.00 ; 
   CLG11    CLG11     OLG5     5   106.931900   942.705408   0.00000000         0.00 ; 
   CLG11    CLG11     OLG6     5   103.045900   316.728800   0.00000000         0.00 ; 
   CLG11    CLG11     OLG8     5   108.593000   439.303264   0.00000000         0.00 ; 
   CLG11    CLG12    HLGA2     5   111.350700   206.714704   0.22293000     22627.07 ; 
   CLG11    CLG12     OLG5     5   108.465600   493.703632   0.00000000         0.00 ; 
   CLG11    CLG12     OLG6     5   101.703700   316.929632   0.00000000         0.00 ; 
   CLG11     OLG4   CLG06B     5   122.112500   533.853296   0.00000000         0.00 ; 
   CLG11     OLG6    HLGP1     5   107.845400   482.574192   0.00000000         0.00 ; 
   CLG11     OLG8   CLG06B     5   107.899100   192.932608   0.00000000         0.00 ; 
   CLG12    CLG01    HLGA4     5   118.804900   313.272816   0.00000000         0.00 ; 
   CLG12    CLG11    HLGA1     5   110.352900   271.156672   0.21992000     21145.94 ; 
   CLG12    CLG11     OLG4     5   112.003000   862.991840   0.00000000         0.00 ; 
   CLG12    CLG11     OLG6     5   107.784800   529.861760   0.00000000         0.00 ; 
   CLG12    CLG11     OLG8     5   108.076800   352.962240   0.00000000         0.00 ; 
   CLG12    CLG14    CLG14     5   112.087700   441.855504   0.26153000      3907.86 ; 
   CLG12    CLG14    HLGA1     5   108.811400   250.270144   0.21763000     17204.61 ; 
   CLG12     OLG6    HLGP1     5   107.860700   376.861248   0.00000000         0.00 ; 
   CLG13     OLG4   CLG06B     5   111.225700   562.957200   0.00000000         0.00 ; 
   CLG14    CLG12    HLGA2     5   111.024800   265.073136   0.22821000     18074.88 ; 
   CLG14    CLG12     OLG6     5   114.546700   570.647392   0.00000000         0.00 ; 
   CLG14    CLG14    HLGA1     5   110.374100   234.764240   0.22160000     17129.30 ; 
   CLG14    CLG14     OLG7     5   105.443600   388.869328   0.00000000         0.00 ; 
   CLG14    CLG16    CLG15     5   110.888700   563.024144   0.00000000         0.00 ; 
   CLG14    CLG16    CLG16     5   105.488300   551.978384   0.25425000     17689.95 ; 
   CLG14    CLG16    HLGA1     5   110.246100   280.913760   0.19994000     19271.50 ; 
   CLG14     OLG7    CLG15     5   106.431800   816.256560   0.00000000         0.00 ; 
   CLG15    CLG16    CLG16     5   104.492200   501.017264   0.26440000     12861.62 ; 
   CLG15    CLG16    HLGA1     5   112.168500   283.214960   0.20183000     18635.54 ; 
   CLG16    CLG14    HLGA1     5   110.873200   251.483504   0.21818000     17422.18 ; 
   CLG16    CLG14     OLG7     5   109.252800   414.475408   0.00000000         0.00 ; 
   CLG16    CLG15    HLGA2     5   111.859400   217.275120   0.20770000     18535.12 ; 
   CLG16    CLG15     OLG7     5   107.391500   414.207632   0.00000000         0.00 ; 
   CLG16    CLG16    HLGA1     5   112.719300   278.470304   0.20725000     19597.86 ; 
  CLG06A    CLG06   CLG06A     5   120.438800   334.703264   0.23566000     29271.26 ; 
  CLG06A    CLG06   HLGR61     5   119.691800   217.065920   0.22400000     22141.73 ; 
  CLG06A    CLG10     OLG7     5   119.403500   363.279984   0.00000000         0.00 ; 
  CLG06A   CLG06A   CLG06B     5   122.867500   328.176224   0.21764000     29304.74 ; 
  CLG06A   CLG06A     OLG6     5   111.992000   683.866432   0.00000000         0.00 ; 
  CLG06A   CLG06B     OLG4     5   118.570500   460.240000   0.00000000         0.00 ; 
  CLG06A     OLG6    HLGP1     5   109.052100   487.251904   0.00000000         0.00 ; 
  CLG06B    CLG06   HLGR61     5   122.801100   125.520000   0.22837000     15229.76 ; 
  CLG06B    CLG10     OLG7     5   120.925300   381.756528   0.00000000         0.00 ; 
  CLG06B   CLG06A   CLG06B     5   118.297600   313.758160   0.22423000     29246.16 ; 
  CLG06B   CLG06A     OLG6     5   121.040600   189.116800   0.00000000         0.00 ; 
  CLG06B   CLG06B   CLG06B     5   120.773000   332.887408   0.23555000     29288.00 ; 
  CLG06B   CLG06B     OLG4     5   119.711700   902.287968   0.00000000         0.00 ; 
  CLG06B   CLG06B     OLG8     5   122.408500   331.799568   0.00000000         0.00 ; 
  CLG06B     OLG4   CLG06B     5   111.438900  1526.582608   0.00000000         0.00 ; 
    HCA1   CC3151     OLG4     5   110.908400   376.953296   0.00000000         0.00 ; 
    HCA1   CC3152     OLG4     5   111.226500   360.342816   0.00000000         0.00 ; 
    HCA2    CC321     OLG4     5   110.269600   384.283664   0.00000000         0.00 ; 
    HCA2    CC321     OLG5     5   108.869300   496.682640   0.00000000         0.00 ; 
   HLGA1    CLG11     OLG4     5   107.256200   490.599104   0.00000000         0.00 ; 
   HLGA1    CLG11     OLG5     5   104.272700   455.051840   0.00000000         0.00 ; 
   HLGA1    CLG11     OLG6     5   112.394700   227.576128   0.00000000         0.00 ; 
   HLGA1    CLG11     OLG8     5   109.277000   419.462736   0.00000000         0.00 ; 
   HLGA1    CLG14     OLG7     5   108.206200   526.581504   0.00000000         0.00 ; 
   HLGA2    CLG12    HLGA2     5   110.183000   313.925520   0.19608000     12777.94 ; 
   HLGA2    CLG12     OLG5     5   109.242800   374.175120   0.00000000         0.00 ; 
   HLGA2    CLG12     OLG6     5   112.725500   323.180528   0.00000000         0.00 ; 
   HLGA2    CLG15    HLGA2     5   109.538500   323.707712   0.16047000      6711.14 ; 
   HLGA2    CLG15     OLG7     5   107.710000   487.377424   0.00000000         0.00 ; 
   HLGA3    CLG13    HLGA3     5   109.360900   341.188464   0.19383000      9932.82 ; 
   HLGA3    CLG13     OLG4     5   109.933500   269.022832   0.00000000         0.00 ; 
  HLGR52    CLG05     OLG1     5   120.815600   554.154064   0.00000000         0.00 ; 
  OC3C51   CC3152     OLG4     5   112.226400   891.141792   0.00000000         0.00 ; 
    OLG1    CLG03     OLG5     5   123.712400   665.649296   0.23027000    132306.45 ; 
    OLG1    CLG03     OLG6     5   124.053700   362.803008   0.23002000    172807.57 ; 
    OLG2    CLG04     OLG2     5   129.817300   831.728992   0.22902000     56793.62 ; 

; angle parameters from toppar_c36_jul22/stream/lipid/toppar_all36_lipid_bacterial.str
;      i        j        k  func       theta0       ktheta          ub0          kub
    CTL2   CG3RC1     HGA1     5   110.100000   288.696000   0.21790000     18853.10 ; propane ring, MacKerell
    CTL2     CTL2   CG3RC1     5   111.000000   446.432800   0.25610000      6694.40 ; propane ring, MacKerell
    HAL2     CTL2   CG3RC1     5   110.100000   288.696000   0.21790000     18853.10 ; propane ring, MacKerell
    CTL2   CG3RC1   CG3C31     5   111.000000   446.432800   0.25610000      6694.40 ; propane ring, MacKerell
    CTL2   CG3RC1   CG3RC1     5   111.000000   446.432800   0.25610000      6694.40 ; propane ring, MacKerell
  CG3RC1     CTL3     HAL3     5   110.100000   279.742240   0.21790000     18853.10 ; BAM1, bile acid steroidal C-D ring, cacha, 02/08, from GenFF
    CTL3   CG3RC1   CG3RC1     5   113.500000   488.272800   0.25610000      9338.69 ; BAM1, bile acid steroidal C-D ring, cacha, 02/08, from GenFF
    CTL3   CG3RC1     HGA1     5   110.100000   288.696000   0.21790000     18853.10 ; CARBOCY carbocyclic sugars, taken from CG321-CG3RC1-HGA1, from GenFF
    CTL3   CG3RC1   CG3C31     5   111.000000   446.432800   0.25610000      6694.40 ; CARBOCY carbocyclic sugars, taken from CG321-CG3RC1-HGA1, from GenFF
  CG3C31     CTL2     HAL2     5   110.100000   221.752000   0.21790000     18853.10 ; PROT alkane update, adm jr., 3/2/92, from genFF
    CTL1     CTL2       CL     5   108.000000   435.136000   0.00000000         0.00 ; best guess made by jbl for PhPC
     OSL        C        O     5   125.900000   753.120000   0.22576000    133888.00 ; acetic acid
     OSL        C      CT1     5   109.000000   460.240000   0.23260000     16736.00 ; methyl acetate
       C      OSL     CTL2     5   109.600000   334.720000   0.22651000     25104.00 ; methyl acetate

; angle parameters from toppar_c36_jul22/stream/lipid/toppar_all36_lipid_cholesterol.str
;      i        j        k  func       theta0       ktheta          ub0          kub
    CTL1     CTL2     CEL1     5   112.200000   267.776000   0.00000000         0.00 ; from CEL1 CTL2 CTL2 !all CEL1 containing terms will
    CTL1     CEL1     CTL2     5   113.000000   418.400000   0.00000000         0.00 ; guess FC, eq. angle to yield 360 deg sum
    CEL1     CEL1     CTL1     5   123.500000   401.664000   0.00000000         0.00 ; from CEL1 CEL1 CTL1
    CTL1     CTL1     CEL1     5   112.200000   267.776000   0.00000000         0.00 ; from CEL1 CTL2 CTL2
    CTL3     CTL1     CEL1     5   112.200000   267.776000   0.00000000         0.00 ; from CEL1 CTL2 CTL2
    CTL2     CTL1     CEL1     5   112.200000   267.776000   0.00000000         0.00 ; from CEL1 CTL2 CTL2 !involve the dR1 and dR2 terms
     OHL     CTL1     CTL3     5   110.100000   633.457600   0.00000000         0.00 ; glycerol
     HOL      OHL     CRL1     5   106.000000   481.160000   0.00000000         0.00 ; glycerol
     OHL     CRL1     CRL2     5   110.100000   633.457600   0.00000000         0.00 ; glycerol
     OHL     CRL1     HGA1     5   108.890000   384.091200   0.00000000         0.00 ; glycerol
    HAL3     CTL3     CRL1     5   110.100000   279.742240   0.21790000     18853.10 ; alkane, 4/98
    CRL1     CRL1     CTL3     5   108.500000   446.432800   0.25610000      6694.40 ; alkane, 3/92
    CRL2     CRL1     CTL3     5   113.500000   488.272800   0.25610000      9338.69 ; glycerol
    HEL1     CEL1     CRL2     5   116.000000   334.720000   0.00000000         0.00 ; 1-butene; from propene, yin,adm jr., 12/95
    HGA2     CRL2     CEL1     5   111.500000   376.560000   0.00000000         0.00 ; 1-butene; from propene, yin,adm jr., 12/95
    HAL2     CRL2     CEL1     5   111.500000   376.560000   0.00000000         0.00 ; 1-butene; from propene, yin,adm jr., 12/95
    HGA2     CTL2     CEL1     5   111.500000   376.560000   0.00000000         0.00 ; 1-butene; from propene, yin,adm jr., 12/95
    CRL1     CRL2     CEL1     5   112.200000   267.776000   0.00000000         0.00 ; from CEL1 CTL2 CTL2 !all CEL1 containing terms will
    CEL1     CEL1     CRL2     5   123.500000   401.664000   0.00000000         0.00 ; from 2-butene, yin,adm jr., 12/95
    CEL1     CEL1     CRL1     5   123.500000   401.664000   0.00000000         0.00 ; from CEL1 CEL1 CTL1
    CRL1     CRL1     CEL1     5   112.200000   267.776000   0.00000000         0.00 ; from CEL1 CTL2 CTL2
    CTL1     CRL1     CEL1     5   112.200000   267.776000   0.00000000         0.00 ; from CEL1 CTL2 CTL2
    CRL1     CTL1     CEL1     5   112.200000   267.776000   0.00000000         0.00 ; from CEL1 CTL2 CTL2
    CTL3     CRL1     CEL1     5   112.200000   267.776000   0.00000000         0.00 ; from CEL1 CTL2 CTL2
    CRL2     CRL1     CEL1     5   112.200000   267.776000   0.00000000         0.00 ; from CEL1 CTL2 CTL2 !involve the dR1 and dR2 terms
    CTL2     CRL1     CEL1     5   112.200000   267.776000   0.00000000         0.00 ; from CEL1 CTL2 CTL2 !involve the dR1 and dR2 terms
    CRL2     CTL1     CEL1     5   112.200000   267.776000   0.00000000         0.00 ; from CEL1 CTL2 CTL2 !involve the dR1 and dR2 terms
    CRL2     CRL1     CTL2     5   113.500000   488.272800   0.25610000      9338.69 ; glycerol
    CRL2     CRL1     CRL2     5   113.500000   488.272800   0.25610000      9338.69 ; glycerol
    HGA1     CRL1     CTL2     5   110.100000   288.696000   0.21790000     18853.10 ; alkane, 3/92
    HGA1     CRL1     CRL2     5   110.100000   288.696000   0.21790000     18853.10 ; alkane, 3/92
    CRL1     CRL1     CTL2     5   113.500000   488.272800   0.25610000      9338.69 ; glycerol
    CRL1     CRL1     CRL2     5   113.500000   488.272800   0.25610000      9338.69 ; glycerol
    CRL1     CTL2     CTL3     5   113.500000   488.272800   0.25610000      9338.69 ; glycerol
    HAL2     CTL2     CRL1     5   110.100000   221.752000   0.21790000     18853.10 ; alkane, 4/98
    HGA2     CRL2     CRL1     5   110.100000   221.752000   0.21790000     18853.10 ; alkane, 4/98
    CRL1     CTL2     CTL2     5   113.500000   488.272800   0.25610000      9338.69 ; glycerol
    CRL1     CRL2     CRL2     5   113.500000   488.272800   0.25610000      9338.69 ; glycerol
    CRL1     CEL1     CRL2     5   113.000000   418.400000   0.00000000         0.00 ; guess FC, eq. angle to yield 360 deg sum
    CRL1     CRL1     CRL1     5   111.000000   446.432800   0.25610000      6694.40 ; alkane, 3/92
    CTL1     CRL1     CRL2     5   113.500000   488.272800   0.25610000      9338.69 ; glycerol
    HGA1     CRL1     CTL1     5   110.100000   288.696000   0.21790000     18853.10 ; alkane, 3/92
    HGA1     CRL1     CRL1     5   110.100000   288.696000   0.21790000     18853.10 ; alkane, 3/92
    CTL1     CRL1     CRL1     5   111.000000   446.432800   0.25610000      6694.40 ; alkane, 3/92
    HAL1     CTL1     CRL1     5   110.100000   288.696000   0.21790000     18853.10 ; alkane, 3/92
    CRL1     CTL1     CTL3     5   108.500000   446.432800   0.25610000      6694.40 ; alkane, 3/92
    CRL1     CTL1     CTL2     5   113.500000   488.272800   0.25610000      9338.69 ; glycerol
    CEL2     CEL1     CRL2     5   126.000000   401.664000   0.00000000         0.00 ; 1-butene; from propene, yin,adm jr., 12/95
    CEL1     CRL2     CRL2     5   112.200000   267.776000   0.00000000         0.00 ; 1-butene; from propene, yin,adm jr., 12/95
    CEL1     CTL2     CRL2     5   112.200000   267.776000   0.00000000         0.00 ; 1-butene; from propene, yin,adm jr., 12/95
    CEL1     CRL2     CTL2     5   112.200000   267.776000   0.00000000         0.00 ; 1-butene; from propene, yin,adm jr., 12/95
    CEL1     CRL2     CTL3     5   112.200000   267.776000   0.00000000         0.00 ; 1-butene; from propene, yin,adm jr., 12/95
    CEL1     CRL2     CEL1     5   114.000000   251.040000   0.00000000         0.00 ; 1,4-dipentene, adm jr., 2/00
    CTL1     CRL2     CEL1     5   112.200000   267.776000   0.00000000         0.00 ; from CEL1 CTL2 CTL2 !all CEL1 containing terms will
    CRL1     CTL2     CEL1     5   112.200000   267.776000   0.00000000         0.00 ; from CEL1 CTL2 CTL2 !all CEL1 containing terms will
    CTL1     CEL1     CRL2     5   113.000000   418.400000   0.00000000         0.00 ; guess FC, eq. angle to yield 360 deg sum
    CRL1     CEL1     CTL2     5   113.000000   418.400000   0.00000000         0.00 ; guess FC, eq. angle to yield 360 deg sum
    HGA2     CRL2     HGA2     5   109.000000   297.064000   0.18020000      4518.72 ; alkane, 3/92
    HGA2     CRL2     CRL2     5   110.100000   221.752000   0.21790000     18853.10 ; alkane, 4/98
    HGA1     CRL1     CTL3     5   110.100000   288.696000   0.21790000     18853.10 ; alkane, 3/92
    CRL2     CRL2     CRL2     5   113.600000   488.272800   0.25610000      9338.69 ; alkane, 3/92
    CEL1     CEL1     CEL1     5   123.500000   401.664000   0.00000000         0.00 ; From CEL1 CEL1 CTL1
    CRL1     CEL1     CRL1     5   113.000000   418.400000   0.00000000         0.00 ; From CTL1 CEL1 CTL2
    CEL1     CRL1     HGA1     5   111.500000   376.560000   0.00000000         0.00 ; From HAL2 CTL2 CEL1
    HEL1     CEL1     CTL1     5   116.000000   334.720000   0.00000000         0.00 ; From HAL2 CTL2 CEL1
    CTL1     CEL1     CTL1     5   113.000000   418.400000   0.00000000         0.00 ; guess from CTL1 CEL1 CTL2
    CEL1     CTL1     HAL1     5   111.500000   376.560000   0.00000000         0.00 ; guess from HAL2 CTL2 CEL1
    HGA1     CRL1      OSL     5   109.500000   502.080000   0.00000000         0.00 ; From OG302  CG311  HGA1
     OSL     CRL1     CRL2     5   109.700000   962.320000   0.00000000         0.00 ; From CG321  CG311  OG302
    CRL1      OSL       CL     5   109.600000   334.720000   0.22651000     25104.00 ; From CG2O2  OG302  CG311

; angle parameters from toppar_c36_jul22/stream/lipid/toppar_all36_lipid_detergent.str
;      i        j        k  func       theta0       ktheta          ub0          kub
     OSL       SL      OSL     5   109.470000  1087.840000   0.24500000     29288.00 ; LIPID methylsulfate
     OSL       SL     CTL2     5    99.000000   669.440000   0.00000000         0.00 ; ESNA, ethyl sulfonate, xhe
      SL     CTL2     HAL2     5   109.000000   410.032000   0.00000000         0.00 ; ESNA, ethyl sulfonate, xhe
      SL     CTL2     CTL2     5   105.500000   418.400000   0.00000000         0.00 ; ESNA, ethyl sulfonate, xhe
    CTL5      NTL      O2L     5   112.000000   669.440000   0.00000000         0.00 ; CG334  NG3P0  OG312  ! TMAO, trimethylamine N-oxide, xxwy & ejd
     O2L      NTL     CTL2     5   112.000000   669.440000   0.00000000         0.00 ; CG334  NG3P0  OG312  ! TMAO, trimethylamine N-oxide, xxwy & ejd
     OHL      NTL     CTL2     5   100.000000   577.392000   0.00000000         0.00 ; TMAOP,
    CTL5      NTL      OHL     5   100.000000   577.392000   0.00000000         0.00 ; TMAOP,
     NTL      OHL      HOL     5   101.500000   502.080000   0.00000000         0.00 ; TMAOP,
    CRL1     CRL2     CRL1     5   113.500000   488.272800   0.25610000      9338.69 ; glycerol
     OHL     CRL1     CRL1     5   110.100000   633.457600   0.00000000         0.00 ; glycerol
       C      NHL     CTL2     5   120.000000   418.400000   0.00000000         0.00 ; prot22; NMA Vib Modes (LK); CT1 NH1 C
       H      NHL     CTL2     5   117.000000   292.880000   0.00000000         0.00 ; prot22; NMA Vibrational Modes (LK); H-NH1-CT1
     NHL     CTL2     HAL2     5   109.500000   430.952000   0.00000000         0.00 ; ALLOW   ALI PEP POL ARO
     NHL     CTL2     CTL2     5   113.500000   585.760000   0.00000000         0.00 ; ALLOW   ALI PEP POL ARO
     NTL     CTL2     CTL1     5   115.000000   566.513600   0.00000000         0.00 ; tetramethylammonium
      HL     CTL2     CTL1     5   110.100000   279.742240   0.21790000     18853.10 ; alkane
    CTL1     CTL2       SL     5   105.500000   418.400000   0.00000000         0.00 ; ESNA, ethyl sulfonate, xhe
   OC301     CTL2    CC301     5   111.500000   376.560000   0.00000000         0.00 ; 
    HAL2     CTL2    CC301     5   110.100000   221.752000   0.21790000     18853.10 ; alkane, 4/98
    CTL2    CC301     CTL2     5   113.600000   488.272800   0.25610000      9338.69 ; alkane, 3/92
   CC301     CTL2     CTL2     5   113.600000   488.272800   0.25610000      9338.69 ; alkane, 3/92
     OHL     CRL1     CTL2     5   110.100000   633.457600   0.00000000         0.00 ; glycerol
    CTL2     CTL2        S     5   114.500000   485.344000   0.00000000         0.00 ; from, S    CT2  CT2
    HAL2     CTL2        S     5   111.300000   385.764800   0.00000000         0.00 ; from, S    CT2  HA2
    CTL2        S       HS     5    95.000000   324.678400   0.00000000         0.00 ; from, HS   S    CT2
     NTL     CTL2       CC     5   110.000000   365.681600   0.00000000         0.00 ; NH3  CT2  CC
      HL     CTL2       CC     5   109.500000   276.144000   0.21630000     25104.00 ; HA2  CT2  CC
    CTL2       CC       OC     5   118.000000   334.720000   0.23880000     41840.00 ; OC   CC   CT2
       C     CTL2    CC301     5   113.500000   488.272800   0.25610000      9338.69 ; 
    CTL2    CC301   CG2R61     5   107.500000   433.462400   0.00000000         0.00 ; 
   CC301   CG2R61   CG2R61     5   120.000000   383.254400   0.00000000         0.00 ; 

; angle parameters from toppar_c36_jul22/stream/lipid/toppar_all36_lipid_ether.str
;      i        j        k  func       theta0       ktheta          ub0          kub
   OG301     CTL1     CTL2     5   110.100000   633.457600   0.00000000         0.00 ; acetic acid
   OG301     CTL2     CTL1     5   110.100000   633.457600   0.00000000         0.00 ; acetic acid
   OG301     CTL2     CTL2     5   110.100000   633.457600   0.00000000         0.00 ; acetic acid
    HAL1     CTL1    OG301     5   109.500000   502.080000   0.00000000         0.00 ; phosphate
    HAL2     CTL2    OG301     5   109.500000   502.080000   0.00000000         0.00 ; phosphate
    CTL1    OG301     CTL2     5   108.000000   543.920000   0.00000000         0.00 ; 
    CTL2    OG301     CTL2     5   109.700000   794.960000   0.00000000         0.00 ; 

; angle parameters from toppar_c36_jul22/stream/lipid/toppar_all36_lipid_lps.str
;      i        j        k  func       theta0       ktheta          ub0          kub
  CC3161    OC301       CL     5   109.600000   334.720000   0.22651000     25104.00 ; CL   OSL  CTL3  ; all36 lipid
   OC301       CL      OBL     5   125.900000   753.120000   0.22576000    133888.00 ; OSL  CL   OBL   ; all36 lipid
   OC301       CL     CTL2     5   109.000000   460.240000   0.23260000     16736.00 ; OSL  CL   CTL2  ; all36 lipid
   OC2D1    CC2O1     CTL2     5   121.000000   669.440000   0.00000000         0.00 ; O    C    CT2   ; all22 prot
   NC2D1    CC2O1     CTL2     5   116.500000   669.440000   0.00000000         0.00 ; NH1  C    CT2   ; all22 prot
   CC2O1     CTL2     HAL2     5   109.500000   276.144000   0.21630000     25104.00 ; HA   CT2  CC    ; all22 prot
   CC2O1     CTL2     CTL1     5   108.000000   435.136000   0.00000000         0.00 ; CT3  CT1  CC    ; all22 prot
     OH1     CTL1     CTL2     5   110.100000   627.600000   0.00000000         0.00 ; OH1 CT1 CT3  ; all22 prot
     OH1     CTL1     HAL1     5   108.890000   384.091200   0.00000000         0.00 ; OH1 CT1 HA   ; all22 prot
       H      OH1     CTL1     5   115.000000   481.160000   0.00000000         0.00 ; H   OH1 CT1  ; all22 prot
      CL     CTL1     HAL1     5   109.500000   418.400000   0.00000000         0.00 ; from, par 22 HB   CT1  CC
      CL     CTL1      OH1     5   110.100000   633.457600   0.00000000         0.00 ; par22 OH1  CT1  CT3; og amol ok
      CL     CTL1     CTL2     5   108.000000   435.136000   0.00000000         0.00 ; par22 CT3  CT1  CC
   OC30P       PC    OC30P     5   104.300000   669.440000   0.00000000         0.00 ; from OG303 PG1 OG303! NA DMP, ADM Jr. !Reorganization: PC and others
      PC    OC30P    CC331     5   120.000000   167.360000   0.23300000     29288.00 ; from CG331  OG303  PG1 ! LIPID phosphate !Reorganization:MP_1
   OC30P    CC331     HCA3     5   109.500000   502.080000   0.00000000         0.00 ; from OG303  CG331  HGA3  ! NA DMP, ADM Jr.
  CC3263   CC3161    NG3P3     5   113.500000   585.760000   0.00000000         0.00 ; CC3162  CC3161  NC2D1    70.00   113.50  ! par22 NH1  CT1  CT1
     OSL       CL      OSL     5   125.900000   753.120000   0.22576000    133888.00 ; from par_all36_lipid.prm OSL  CL   OBL ! acetic acid
      CL      OSL       CL     5   109.600000   334.720000   0.22651000     25104.00 ; from par_all36_lipid.prm CL   OSL  CTL1! methyl acetate
     OBL       CL      CT2     5   125.000000   585.760000   0.24420000     16736.00 ; from par_all36_lipid.prm OBL  CL   CTL2! methyl acetate
     OSL       CL      CT2     5   125.000000   585.760000   0.24420000     16736.00 ; from par_all36_lipid.prm OBL  CL   CTL2! methyl acetate
     NH3      CT2       CL     5   110.000000   566.513600   0.00000000         0.00 ; from par_all36_lipid.prm NH3L CTL2 CTL2 ! ethanolamine
     HB2      CT2       CL     5   109.500000   276.144000   0.21630000     25104.00 ; from par_all36_lipid.prm HAL2 CTL2 CL ! methyl acetate
       H      NH1       CL     5   123.000000   284.512000   0.00000000         0.00 ; from par_all36_prot.prm H    NH1  C ! ALLOW   PEP POL ARO
     CT2      NH1       CL     5   120.000000   418.400000   0.00000000         0.00 ; from par_all36_prot.prm CT2  NH1  C ! ALLOW   ALI PEP POL ARO
     NH1      CT2       CL     5   107.000000   418.400000   0.00000000         0.00 ; from par_all36_prot.prm NH1  CT2  C ! ALLOW   PEP POL ARO ALI
     OBL       CL      NH1     5   122.500000   669.440000   0.00000000         0.00 ; from par_all36_prot.prm O    C    NH1 ! ALLOW   PEP POL ARO
     NH1       CL      CT2     5   116.500000   669.440000   0.00000000         0.00 ; from par_all36_prot.prm NH1  C    CT2 ! ALLOW   ALI PEP POL ARO

; angle parameters from toppar_c36_jul22/stream/lipid/toppar_all36_lipid_miscellaneous.str
;      i        j        k  func       theta0       ktheta          ub0          kub
    CTL2      ON2        P     5   120.000000   167.360000   0.23300000     29288.00 ; ! from CN9  ON2  P,   DMP, ADM Jr.
     ON2     CTL2     HAL2     5   109.500000   502.080000   0.00000000         0.00 ; ! from HN9  CN9  ON2, DMP, ADM Jr.
     ON2     CTL2     CTL1     5   109.000000   376.560000   0.00000000         0.00 ; ! from OC301   CC301   CC331, og amol mp2/631g*

; angle parameters from toppar_c36_jul22/stream/lipid/toppar_all36_lipid_prot.str
;      i        j        k  func       theta0       ktheta          ub0          kub
     CT2        S       CL     5    95.000000   284.512000   0.00000000         0.00 ; ALLOW   ALI SUL ION
    CTL2       CL        S     5   114.500000   485.344000   0.00000000         0.00 ; from, S    CT2  CT2, ALLOW   ALI SUL ION
     OBL       CL        S     5   122.200000   627.600000   0.00000000         0.00 ; ALLOW   ALI SUL ION
     NH1        C     CTL2     5   122.500000   669.440000   0.00000000         0.00 ; prot22; NMA Vib Modes (LK); O-C-NH1
     CT2        S    CG321     5    95.000000   284.512000   0.00000000         0.00 ; from, CG321  SG311  CG321, PROTNA sahc
       S    CG321     HGA2     5   111.300000   385.764800   0.00000000         0.00 ; from, SG311  CG321  HGA2, PROT vib. freq. and HF/geo. (DTN) 8/24/90
       S    CG321    CG2D1     5   112.500000   485.344000   0.00000000         0.00 ; from, CG311  CG321  SG311, PROT as in expt.MeEtS & DALC crystal,  5/15/92
       S    CG321     CTL1     5   114.500000   485.344000   0.00000000         0.00 ; from, CG331  CG321  SG311, PROT expt. MeEtS,     3/26/92 (FL)
    HGA2    CG321     CTL1     5   110.100000   221.752000   0.21790000     18853.10 ; from, HAL2 CTL2 CTL1, alkane, 4/98
   CG321     CTL1     HAL1     5   110.100000   288.696000   0.21790000     18853.10 ; from, HAL1 CTL1 CTL2, alkane, 3/92
   CG321     CTL1      OSL     5   110.100000   633.457600   0.00000000         0.00 ; from, OSL  CTL1 CTL2, acetic acid
   CG321     CTL1     CTL2     5   113.500000   488.272800   0.25610000      9338.69 ; from, CTL2 CTL1 CTL2, glycerol

; angle parameters from toppar_c36_jul22/stream/lipid/toppar_all36_lipid_sphingo.str
;      i        j        k  func       theta0       ktheta          ub0          kub
    CTL3     CTL1     CEL3     5   108.000000   435.136000   0.00000000         0.00 ; prot22; Alanine Dipeptide ab initio calc's (LK); CT3-CT1-C
    CTL3     CTO1     CEL3     5   108.000000   435.136000   0.00000000         0.00 ; prot22; Alanine Dipeptide ab initio calc's (LK); CT3-CT1-C
    CTL1     CEL3     CEL3     5   123.500000   401.664000   0.00000000         0.00 ; lip36; 2-butene,from 2-butene, yin,adm jr., 12/95; CEL1-CEL1-CTL2
    CTO1     CEL3     CEL3     5   123.500000   401.664000   0.00000000         0.00 ; lip36; 2-butene,from 2-butene, yin,adm jr., 12/95; CEL1-CEL1-CTL2
    CTL1     CTL1     CEL3     5   108.000000   435.136000   0.00000000         0.00 ; prot22; Alanine Dipeptide ab inition calc's (LK); CT1 CT1 C
    CTL1     CTO1     CEL3     5   108.000000   435.136000   0.00000000         0.00 ; prot22; Alanine Dipeptide ab inition calc's (LK); CT1 CT1 C
       C     CTL2     CTL2     5   108.000000   435.136000   0.00000000         0.00 ; prot22; Alanine Dipeptide ab initio calc's (LK); CT3-CT1-C
    CTL2     CTL1     CTO1     5   113.500000   488.272800   0.25610000      9338.69 ; lip36; glycerol; CTL1-CTL1-CTL2
    CEL3     CEL3     CTL2     5   123.500000   401.664000   0.00000000         0.00 ; lip36; 2-butene,from 2-butene, yin,adm jr., 12/95; CEL1-CEL1-CTL2
    CEL3     CTL2     CTL3     5   112.200000   267.776000   0.00000000         0.00 ; lip36; 1-butene; from propene, yin,adm jr., 12/95; CEL1-CTL2-CTL3
    CEL3     CTL2     CTL2     5   112.200000   267.776000   0.00000000         0.00 ; lip36; 1-butene; from propene, yin,adm jr., 12/95; CEL1-CTL2-CTL2
    CTL3     CTL2        C     5   108.000000   435.136000   0.00000000         0.00 ; prot22; Alanine Dipeptide ab initio calc's (LK); CT3-CT1-C
     OHL     CTL1     CEL3     5   110.100000   633.457600   0.00000000         0.00 ; prot22; MeOH, EMB, 10/10/89; OH1-CT1-CT1
     OHL     CTO1     CEL3     5   110.100000   633.457600   0.00000000         0.00 ; prot22; MeOH, EMB, 10/10/89; OH1-CT1-CT1
     OHL     CTO1     CTL3     5   110.100000   633.457600   0.00000000         0.00 ; prot22; MeOH, EMB, 10/10/89; OH1 CT1 CT3
     OHL     CTO1     CTL1     5   110.100000   633.457600   0.00000000         0.00 ; prot22; MeOH, EMB, 10/10/89; OH1 CT1 CT1
       O        C     CTL2     5   121.000000   669.440000   0.00000000         0.00 ; prot22; Alanine Dipeptide ab initio calc's (LK); O-C-CT2
       O        C     CTL3     5   121.000000   669.440000   0.00000000         0.00 ; prot22; Alanine Dipeptide ab initio calc's (LK); O C CT3
     OSL     CTO1     CTL1     5   110.100000   633.457600   0.00000000         0.00 ; analog for acetyl at sphingosine O3; rmv nov 2009
     OSL     CTO1     CEL3     5   110.100000   633.457600   0.00000000         0.00 ; analog for acetyl at sphingosine O3; rmv nov 2009
      CL      OSL     CTO1     5   109.600000   334.720000   0.22651000     25104.00 ; analog for acetyl at sphingosine O3; rmv nov 2009
    CTL1     CEL3     HEL1     5   116.000000   334.720000   0.00000000         0.00 ; lip36; 1-butene, from propene,yin.adm jr.,12/95; HEL1-CEL1-CTL2
    CTO1     CEL3     HEL1     5   116.000000   334.720000   0.00000000         0.00 ; lip36; 1-butene, from propene,yin.adm jr.,12/95; HEL1-CEL1-CTL2
    HAL1     CTL1     CEL3     5   109.500000   276.144000   0.21630000     25104.00 ; prot22; alanine dipeptide, LK, replaced, adm jr., 5/09/91; HA-CT1-C (Protein)
    HAL1     CTO1     CEL3     5   109.500000   276.144000   0.21630000     25104.00 ; prot22; alanine dipeptide, LK, replaced, adm jr., 5/09/91; HA-CT1-C (Protein)
    HAL1     CTO1     CTL3     5   110.100000   288.696000   0.21790000     18853.10 ; lip36; alkane, 3/92; HAL1-CTL1-CTL3
    HAL1     CTO1     CTL1     5   110.100000   288.696000   0.21790000     18853.10 ; lip36; alkane, 3/92; HAL1-CTL1-CTL1
    HAL1     CTL1     CTO1     5   110.100000   288.696000   0.21790000     18853.10 ; lip36; alkane, 3/92; HAL1-CTL1-CTL1
    HAL3     CTL3     CTO1     5   110.100000   279.742240   0.21790000     18853.10 ; lip36; alkane, 4/98; HAL3-CTL3-CTL
    HEL1     CEL3     CEL3     5   119.500000   435.136000   0.00000000         0.00 ; lip36; 2-butene, yin,adm jr., 12/95; HEL1-CEL1-CEL1
    HEL1     CEL3     CTL2     5   116.000000   334.720000   0.00000000         0.00 ; lip36; 1-butene; from propene, yin,adm jr., 12/95; HEL1-CEL1-CTL2
    CEL3     CTL2     HAL2     5   111.500000   376.560000   0.00000000         0.00 ; lip36; 1-butene; from propene, yin,adm jr., 12/95; HAL2-CTL2-CEL1
    HAL2     CTL2        C     5   109.500000   276.144000   0.21630000     25104.00 ; prot22; alanine dipeptide, LK, replaced, adm jr., 5/09/91; HA-CT2-C
    HAL3     CTL3        C     5   109.500000   276.144000   0.21630000     25104.00 ; prot22; alanine dipeptide, LK, replaced, adm jr., 5/09/91; C CT3 HA
     NHL     CTL1      OSL     5   122.500000   669.440000   0.00000000         0.00 ; prot22; NMA Vib Modes (LK); O-C-NH1
       O        C      NHL     5   122.500000   669.440000   0.00000000         0.00 ; prot22; NMA Vib Modes (LK); O-C-NH1
     HOL      OHL     CTO1     5   106.000000   481.160000   0.00000000         0.00 ; lip36; glycerol; HOL-OHL-CTL1
     OHL     CTO1     HAL1     5   108.890000   384.091200   0.00000000         0.00 ; lip36; glycerol; OHL-CTL1-HAL1
     OSL     CTO1     HAL1     5   108.890000   384.091200   0.00000000         0.00 ; lip36; glycerol; OHL-CTL1-HAL1; rmv nov 2009
     NHL     CTL1     CTO1     5   113.500000   585.760000   0.00000000         0.00 ; prot22; Alanine Dipeptide ab initio calc's (LK); NH1-CT1-CT1
     NHL        C     CTL2     5   116.500000   669.440000   0.00000000         0.00 ; prot22; NMA Vib Modes (LK);  NH1-C-CT2
     NHL     CTL1     CTL2     5   113.500000   585.760000   0.00000000         0.00 ; prot22; Alanine Dipeptide ab initio calc's (LK); NH1-CT1-CT2
     NHL     CTL1     CTL3     5   113.500000   585.760000   0.00000000         0.00 ; prot22;
     NHL     CTL1     CTL1     5   113.500000   585.760000   0.00000000         0.00 ; prot22; Alanine Dipeptide ab initio calc's (LK); NH1-CT1-CT1
     NHL        C     CTL3     5   116.500000   669.440000   0.00000000         0.00 ; prot22; NMA Vib Modes (LK); NH1-C-CT3
       H      NHL     CTL3     5   117.000000   292.880000   0.00000000         0.00 ; prot22; NMA Vibrational Modes (LK); H-NH1-CT3
       H      NHL        C     5   123.000000   284.512000   0.00000000         0.00 ; prot22; NMA Vib Modes (LK); H-NH1-C
       H      NHL     CTL1     5   117.000000   292.880000   0.00000000         0.00 ; prot22; NMA Vibrational Modes (LK); H-NH1-CT1
    CTL3      NHL        C     5   120.000000   418.400000   0.00000000         0.00 ; prot22; NMA Vib Modes (LK); CT3-NH1-C
    CTL1      NHL        C     5   120.000000   418.400000   0.00000000         0.00 ; prot22; NMA Vib Modes (LK); CT1 NH1 C
     NHL     CTL3     HAL3     5   109.500000   430.952000   0.00000000         0.00 ; prot22; NMA crystal (JCS); NH1-CT3-HA
     NHL     CTL1     HAL1     5   108.000000   401.664000   0.00000000         0.00 ; prot22; Alanine Dipeptide ab initio calc's (LK); NH1-CT1-HB
     HOL      OHL     CTO2     5   106.000000   481.160000   0.00000000         0.00 ; lip36; glycerol; HOL-OHL-CTL2
     OHL     CTO2     HAL2     5   108.890000   384.091200   0.00000000         0.00 ; lip36; glycerol; OHL-CTL2-HAL1
    HAL2     CTO2     CTL1     5   110.100000   221.752000   0.21790000     18853.10 ; lip36; alkane, 4/98; HAL2-CTL2-CTL1
    HAL1     CTL1     CTO2     5   110.100000   288.696000   0.21790000     18853.10 ; lip36; alkane, 3/92; HAL1-CTL1-CTL2
     NHL     CTL1     CTO2     5   113.500000   585.760000   0.00000000         0.00 ; prot22; Alanine Dipeptide ab initio calc's(LK);NH1-CT1-CTO2
    CTO2     CTL1     CTO1     5   113.500000   488.272800   0.25610000      9338.69 ; lip36; glycerol; CTL1-CTL1-CTL2
    HAL2     CTO2     HAL2     5   109.000000   297.064000   0.18020000      4518.72 ; alkane, 3/92 HAL2-CLT2-HAL2
     OHL     CTO2     CTL1     5   110.100000   633.457600   0.00000000         0.00 ; prot22; MeOH, EMB, 10/10/89; OH1 CT2 CT2
    CEL3     CEL3     CTL3     5   123.500000   401.664000   0.00000000         0.00 ; from CG2D1  CG2D1  CG331    48.00    123.50
    CTL3     CEL3     CTL2     5   123.500000   401.664000   0.00000000         0.00 ; from CG321  CG2D1  CG331    48.00    123.50
    CEL3     CTL3     HAL3     5   111.500000   351.456000   0.00000000         0.00 ; from CG2D1  CG331  HGA3     42.00    111.50
     NHL        C     CTL1     5   116.500000   669.440000   0.00000000         0.00 ; from CG311  CG2O1  NG2S1    80.00    116.50
       O        C     CTL1     5   121.000000   669.440000   0.00000000         0.00 ; from CG311  CG2O1  OG2D1    80.00    121.00
       C     CTL1     CEL3     5   108.000000   435.136000   0.00000000         0.00 ; from CG2O1  CG311  CG311    52.00    108.00
       C     CTL1     HAL1     5   109.500000   418.400000   0.00000000         0.00 ; from CG2O1  CG311  HGA1     50.00    109.50
       C     CTL1      OH1     5   110.100000   633.457600   0.00000000         0.00 ; from CL     CTL1   OH1      75.70    110.10, ABLIPA
     OH1     CTL1     CEL3     5   110.100000   633.457600   0.00000000         0.00 ; from CG2D1  CG321  OG311    75.70    110.10

; angle parameters from toppar_c36_jul22/stream/misc/toppar_ions_won.str
;      i        j        k  func       theta0       ktheta          ub0          kub

; angle parameters from toppar_c36_jul22/stream/na/toppar_all36_na_modifications.str
;      i        j        k  func       theta0       ktheta          ub0          kub
     HN3      CN4     NN3I     5   116.750000   292.880000   0.00000000         0.00 ; c2
     HN3      CN4     NN2G     5   115.750000   292.880000   0.00000000         0.00 ; c2
    NN3I      CN4     NN2G     5   127.500000   669.440000   0.00000000         0.00 ; c2
    CN5G      CN5     NN3I     5   127.000000   836.800000   0.00000000         0.00 ; c4, r6
    NN2B      CN5     NN3I     5   128.400000  1171.520000   0.00000000         0.00 ; c4, r5
     CN1     NN2G      CN4     5   129.700000  1046.000000   0.00000000         0.00 ; n1
     CN4     NN2G      HN2     5   117.000000   338.904000   0.00000000         0.00 ; n1
     CN4     NN3I      CN5     5   108.400000   753.120000   0.00000000         0.00 ; n3
    CN3D      CN2      NN1     5   116.400000   920.480000   0.00000000         0.00 ; 5mc, adm jr. 9/9/93
    CN3D      CN2      NN3     5   121.300000   251.040000   0.00000000         0.00 ; 5mc, adm jr. 9/9/93
     CN2     CN3D      CN3     5   117.800000   836.800000   0.00000000         0.00 ; 5mc, adm jr. 9/9/93
     CN2     CN3D      CN9     5   118.000000   334.720000   0.00000000         0.00 ; 5mc, adm jr. 9/9/93
     CN3     CN3D      CN9     5   124.200000   334.720000   0.00000000         0.00 ; 5mc, adm jr. 9/9/93
    CN3D      CN3      HN3     5   122.000000   251.040000   0.00000000         0.00 ; 5mc, adm jr. 9/9/93
    CN3D      CN3      NN2     5   124.200000   836.800000   0.00000000         0.00 ; 5mc, adm jr. 9/9/93
    CN3D      CN9      HN9     5   110.100000   279.742240   0.21790000     18853.10 ; Alkanes, sacred
     CN1     NN3G      CN2     5   122.300000  1046.000000   0.00000000         0.00 ; n1, Sasha
    NN3G      CN2     NN3G     5   115.200000   585.760000   0.00000000         0.00 ; c2, Sasha
    NN3G      CN1     CN5G     5   123.600000   560.656000   0.00000000         0.00 ; c6, Sasah
    NN3G      CN1      ON5     5   121.600000   633.457600   0.00000000         0.00 ; o6
     ON5      CN1     CN5G     5   114.800000   633.457600   0.00000000         0.00 ; o6
     CN1      ON5      HN5     5   114.700000   502.080000   0.00000000         0.00 ; h5
    NN2C      CN1      NN2     5   115.500000   292.880000   0.00000000         0.00 ; c2, ring
     CN2     NN2C      CN1     5   130.200000   292.880000   0.00000000         0.00 ; n3, ring
    NN2C      CN2      CN3     5   109.500000   292.880000   0.00000000         0.00 ; c4, ring
     CN2     NN2C      HN2     5   116.100000   338.904000   0.00000000         0.00 ; h3
     CN1     NN2C      HN2     5   113.700000   338.904000   0.00000000         0.00 ; h3
    NN2C      CN1     ON1C     5   125.100000   585.760000   0.00000000         0.00 ; o2
    NN2C      CN2     NN1C     5   126.800000   753.120000   0.00000000         0.00 ; n4
     CN3      CN2     NN1C     5   123.700000   753.120000   0.00000000         0.00 ; n4
     CN2     NN1C      HN1     5   113.000000   426.768000   0.00000000         0.00 ; h4
     CN2     NN2G      CN8     5   117.300000   585.760000   0.00000000         0.00 ; c2-n1-c1a
     CN1      NN3      CN8     5   116.000000   585.760000   0.00000000         0.00 ; c2-n3-c3a
     CN2      NN3      CN8     5   124.900000   585.760000   0.00000000         0.00 ; c4-n3-c3a
     CN9      CN8      NN3     5   114.500000   585.760000   0.00000000         0.00 ; n3-c3a-c3b
     NN3      CN8      HN8     5   110.100000   279.742240   0.21790000     18853.10 ; from alkanes
     CN8      CN8      NN3     5   114.500000   585.760000   0.00000000         0.00 ; n3-c3a-c3b
     CNA      CNA      CNA     5   120.000000   334.720000   0.24162000     29288.00 ; JES 8/25/89
     CNA     CNA2      CNA     5   122.500000   334.720000   0.24162000     29288.00 ; dft, adm jr.
    CNA2      CNA      CNA     5   119.000000   334.720000   0.24162000     29288.00 ; dft, adm jr.
    CNA2      CNA     CNA2     5   117.000000   334.720000   0.24162000     29288.00 ; dft, adm jr.
    CN7B      CNA      CNA     5   121.000000   383.254400   0.00000000         0.00 ; dft, adm jr., changed from toluene
    CN7B      CNA     CNA2     5   120.000000   383.254400   0.00000000         0.00 ; dft, adm jr.
     CN9      CNA      CNA     5   121.000000   383.254400   0.00000000         0.00 ; dft, adm jr., changed from toluene
     CN9      CNA     CNA2     5   120.000000   383.254400   0.00000000         0.00 ; dft, adm jr.
     CN8     CN7B      CNA     5   107.500000   433.462400   0.00000000         0.00 ; ethylbenzene, adm jr., 3/7/92
     ON6     CN7B      CNA     5   107.500000   433.462400   0.00000000         0.00 ; ethylbenzene, adm jr., 3/7/92
     HN7     CN7B      CNA     5   111.000000   359.824000   0.00000000         0.00 ; From HN7  CN7B NN2
     HN9      CN9      CNA     5   107.500000   412.542400   0.00000000         0.00 ; toluene, adm jr. 3/7/92
     HNP      CNA      CNA     5   120.000000   251.040000   0.21525000     18409.60 ; JES 8/25/89 benzene
     HNP      CNA     CNA2     5   121.000000   251.040000   0.21525000     18409.60 ; dft, adm jr.
     HN3      CNA     CNA2     5   121.500000   251.040000   0.21525000     18409.60 ; dft, adm jr.
     FNA     CNA2      CNA     5   118.750000   502.080000   0.00000000         0.00 ; dft, adm jr.
     CN1     CN3T     CNE1     5   117.000000   317.984000   0.00000000         0.00 ; c4-c5-c5a
     CN3     CN3T     CNE1     5   126.300000   317.984000   0.00000000         0.00 ; c6-c5-c5a
    CN3T     CNE1     CNE2     5   122.400000   401.664000   0.00000000         0.00 ; c5-c5a-c5b
    CN3T     CNE1     HNE1     5   119.600000   334.720000   0.00000000         0.00 ; c5-c5a-h5a1
    CNE2     CNE1     HNE1     5   118.000000   351.456000   0.00000000         0.00 ; fixed, alkene
    HNE2     CNE2     CNE1     5   120.500000   376.560000   0.00000000         0.00 ; fixed, alkene
    HNE2     CNE2     HNE2     5   119.000000   158.992000   0.00000000         0.00 ; fixed, alkene
    NN2G      CN1      NN2     5   107.800000   585.760000   0.00000000         0.00 ; CYTH
    NN2G      CN1     ON1C     5   125.500000   418.400000   0.00000000         0.00 ; CYTH
    NN2G      CN2      CN3     5   122.200000   585.760000   0.00000000         0.00 ; CYTH
    NN2G      CN2     CN3D     5   122.200000   585.760000   0.00000000         0.00 ; for CYTP
     NN1      CN8      HN8     5   108.000000   401.664000   0.00000000         0.00 ; 
     NN1      CN8      CN9     5   113.500000   585.760000   0.00000000         0.00 ; 
     CN8      NN1      HN1     5   117.000000   292.880000   0.00000000         0.00 ; 
     CN2      NN1      CN8     5   121.500000   334.720000   0.00000000         0.00 ; 
     CN1      NN3      HN2     5   121.200000   309.616000   0.00000000         0.00 ; C, h1 cn1 nn2  hn2
     CN2      NN3      HN2     5   115.400000   338.904000   0.00000000         0.00 ; U     cn1 nn2u hn2
    NN2B      CN4      NN1     5   113.000000   585.760000   0.00000000         0.00 ; NG321  CG2N1  NG321 ! MGU1, methylguanidine kevo:
     NN4      CN4      NN1     5   125.000000   585.760000   0.00000000         0.00 ; NG2D1  CG2N1  NG321 ! MGU1, methylguanidine;
     CN4      NN1      CN3     5   120.000000   418.400000   0.00000000         0.00 ; CG2O1  NG2S1  CG2R61  ! RETINOL TMCH/MECH
     NN1      CN3      CN3     5   120.000000   334.720000   0.24162000     29288.00 ; CG2R61 CG2R61 NG2S1 ! RETINOL TMCH/MECH
     CN3      CN3      CN3     5   120.000000   334.720000   0.24162000     29288.00 ; CG2R61 CG2R61 CG2R61 ! PROT JES 8/25/89
     CN4      NN1      HN2     5   117.000000   284.512000   0.00000000         0.00 ; CG2R61 NG2S1  HGP1 ! RETINOL TMCH/MECH
     HN2      NN1      CN3     5   117.000000   284.512000   0.00000000         0.00 ; CG2R61 NG2S1  HGP1 ! RETINOL TMCH/MECH
     CN8      NNG      CNG     5   120.000000   521.326400   0.00000000         0.00 ; CT2  NC2  C      62.300   120.0000 ! ALLOW   ALI POL PEP ARO guanid
     NNG      CNG      NNG     5   120.000000   435.136000   0.23642000     75312.00 ; NG2P1  CG2N1  NG2P1 (NC2  C    NC2   aa param) guanid
     HN1      NNG      HN1     5   120.000000   209.200000   0.00000000         0.00 ; ALLOW   POL      ! NA param   HN1  NN1  HN1     31.0     117.0  !C,A,G
     NNG      CN8      HN8     5   107.500000   430.952000   0.00000000         0.00 ; NC2  CT2  HA     51.500   107.5000 ! ALLOW   ALI POL guanid
     NNG      CN8      CN8     5   107.500000   566.513600   0.00000000         0.00 ; NC2  CT2  CT2    67.700   107.5000 ! ALLOW   ALI POL guanid
     CNG      NNG      HN1     5   120.000000   410.032000   0.00000000         0.00 ; ALLOW   POL PEP ARO ! NA param   CN2  NN1  HN1     40.0     121.5
     NN1      CN8      CN8     5   113.500000   585.760000   0.00000000         0.00 ; NH1  CT2  CT2    70.000   113.5000 ! ALLOW   ALI PEP POL ARO
     CN8      NNG      HN1     5   120.000000   338.067200   0.00000000         0.00 ; HC   NC2  CT2    40.400   120.0000 ! ALLOW   POL ALI
     HN2      NN1     CN8B     5   109.000000   292.880000   0.00000000         0.00 ; 
     NN1     CN8B      HN8     5   110.000000   401.664000   0.00000000         0.00 ; 
    CN8B      NN1        P     5   118.300000   920.480000   0.23300000     29288.00 ; 
     HN2      NN1        P     5   123.600000   251.040000   0.23500000     33472.00 ; 
     NN1        P      ON2     5   103.200000   502.080000   0.00000000         0.00 ; 
     NN1        P      ON3     5   110.600000  1171.520000   0.00000000         0.00 ; 
     NN1     CN8B     CN7B     5   110.000000   365.681600   0.00000000         0.00 ; 
     NN1        P      ON4     5   103.200000   502.080000   0.00000000         0.00 ; 
     HN7      CN7      NN1     5   110.000000   401.664000   0.00000000         0.00 ; 
     CN7      NN1        P     5   118.300000   920.480000   0.23300000     29288.00 ; 
     HN2      NN1      CN7     5   109.000000   292.880000   0.00000000         0.00 ; 
     NN1      CN7      CN7     5   110.000000   365.681600   0.00000000         0.00 ; 
     NN1      CN7     CN7B     5   110.000000   365.681600   0.00000000         0.00 ; 
     NN1      CN7      CN8     5   110.000000   365.681600   0.00000000         0.00 ; 
     NN1     CN8B      CN7     5   110.000000   365.681600   0.00000000         0.00 ; 
     HN2      NN1      HN2     5   106.000000   326.352000   0.00000000         0.00 ; thni. DIFFERENT COPY OF SAME PARAMETER IN toppar_all27_na_base_modifications.str
    CN8B      ON2      HN8     5   114.700000   502.080000   0.00000000         0.00 ; thni
     CN7      ON5      HN7     5   114.700000   502.080000   0.00000000         0.00 ; n5ph
       O       CC        N     5   124.000000   669.440000   0.00000000         0.00 ; yxu
       N       CC      CT2     5   112.500000   167.360000   0.00000000         0.00 ; yxu
     NN2      CT2      HA2     5   110.100000   279.742240   0.00000000         0.00 ; yxu
     NN2      CT2       CC     5   110.000000   365.681600   0.00000000         0.00 ; yxu
    NN2B      CT2      HA2     5   110.100000   279.742240   0.00000000         0.00 ; yxu
    NN2B      CT2       CC     5   110.000000   365.681600   0.00000000         0.00 ; yxu
    CN1T     NN2B      CT2     5   116.000000   585.760000   0.00000000         0.00 ; yxu
     CN3     NN2B      CT2     5   122.000000   585.760000   0.00000000         0.00 ; yxu
     CN4      NN2      CT2     5   127.800000   585.760000   0.00000000         0.00 ; yxu
     CN5      NN2      CT2     5   125.900000   585.760000   0.00000000         0.00 ; yxu
     CN1      NN2      CT2     5   116.000000   585.760000   0.00000000         0.00 ; 
     CN3      NN2      CT2     5   122.000000   585.760000   0.00000000         0.00 ; yxu
     CN4     NN2B      CT2     5   127.800000   585.760000   0.00000000         0.00 ; 
     CN5     NN2B      CT2     5   125.900000   585.760000   0.00000000         0.00 ; 
       N      CT2        C     5   110.000000   365.681600   0.00000000         0.00 ; 
       N      CT2      HB2     5   107.500000   430.952000   0.00000000         0.00 ; 
     CT2        N      CT2     5   117.000000   292.880000   0.00000000         0.00 ; 
     CT2        N       CC     5   120.000000   418.400000   0.00000000         0.00 ; 
     HB2      CT2      CT2     5   109.500000   418.400000   0.00000000         0.00 ; 
     HN1      NH1      CT2     5   117.000000   292.880000   0.00000000         0.00 ; 
     CT2      CT2        N     5   113.500000   585.760000   0.00000000         0.00 ; 
      CC      CT2        N     5   110.000000   365.681600   0.00000000         0.00 ; cter
     CT2        N     CT2P     5   117.000000   292.880000   0.00000000         0.00 ; mj, as in CT2 N CT2 by yxu
    CT2P        N       CC     5   120.000000   418.400000   0.00000000         0.00 ; mj, as in CT2 N CC
       N     CT2P      HB2     5   107.500000   430.952000   0.00000000         0.00 ; mj, as in N CT2 HB2
     CT2     CT2P        N     5   113.500000   585.760000   0.00000000         0.00 ; mj, as in CT2 CT2 N
     HB2     CT2P      HB2     5   115.000000   301.248000   0.00000000         0.00 ; mj, as in HB2 CT2 HB2 in par_all36_prot.prm
     HB2     CT2P      CT2     5   109.500000   418.400000   0.00000000         0.00 ; mj, as in HB2 CT2 CT2
     NH1      CT2     CT2P     5   113.500000   585.760000   0.00000000         0.00 ; mj, as in NH1 CT2 CT2 in par_all36_prot.prm
     HB2      CT2     CT2P     5   109.500000   418.400000   0.00000000         0.00 ; mj, as in HB2 CT2 CT2
     NH3      CT2     CT2P     5   110.000000   566.513600   0.00000000         0.00 ; mj, as in NH3 CT2 CT2 in par_all36_prot.prm
     CN7     CN7B     ON2M     5   108.670000   485.344000   0.00000000         0.00 ; 8.00   2.561 ! c3'-c2'-om
    CN7B     CN7B     ON2M     5   106.670000   485.344000   0.00000000         0.00 ; 8.00   2.561 ! c1'-c2'-om
    CN7B     ON2M      CN9     5   108.000000   543.920000   0.00000000         0.00 ; c2'-om-cm
     HN7     CN7B     ON2M     5   109.000000   384.091200   0.00000000         0.00 ; h2''-c2'-om
    ON2M      CN9      HN9     5   108.890000   384.091200   0.00000000         0.00 ; from cgenff OG301  CG331  HN7
     CN7     CN7B      NN2     5   111.000000   920.480000   0.00000000         0.00 ; C/A, RNA, 25P1
     CN7     CN7B     NN2B     5   111.000000   920.480000   0.00000000         0.00 ; T/U/G, RNA, 25P1
     CN8      CN7      ON6     5   104.000000   836.800000   0.00000000         0.00 ; NF, 11/97, C3'C4'O4', 25P1
     CN8      CN7     ON6B     5   110.000000   836.800000   0.00000000         0.00 ; From CN7  CN7  ON6, 25P1
    CN7B     CN7B      CN8     5    96.000000   920.480000   0.00000000         0.00 ; 25P1
     CN8     CN7B      ON2     5   109.700000   962.320000   0.00000000         0.00 ; NF, 11/97, C4'C3'O3', 25P1
     CN6     CN7E      CN8     5    62.500000   446.432800   0.00000000         0.00 ; C1-C5-C6
    CN7E      CN6      CN8     5    60.500000   446.432800   0.00000000         0.00 ; C1-C5-C6
    CN7E      CN8      CN6     5    58.500000   446.432800   0.00000000         0.00 ; C5-C1-C6
     HN7      CN7     CN7E     5   110.100000   288.696000   0.21790000     18853.10 ; 
     HN7     CN7E      CN7     5   110.100000   288.947040   0.21790000     18853.10 ; 
     HN7     CN7E      HN7     5   109.000000   297.064000   0.18020000      4518.72 ; 
    CN7E      CN7      ON2     5   109.700000   962.320000   0.00000000         0.00 ; NF, 11/97, C2'C3'O3'
     ON5      CN7     CN7E     5   110.000000   633.457600   0.00000000         0.00 ; from CHARMM22
     CN8      CN7     CN7E     5   101.900000   669.440000   0.00000000         0.00 ; north, C3-C2-C1, (from NF, 11/97, C1'C2'C3')
     CN7      CN8      CN7     5   100.000000   669.440000   0.00000000         0.00 ; north, C4-C3-C2, (from NF, 11/97, C1'C2'C3')
     CN6      CN7      CN8     5   103.700000   446.432800   0.25610000      6694.40 ; north, C5-C4-C3
    CN7E      CN6      CN7     5   113.700000   446.432800   0.25610000      6694.40 ; north, C1-C5-C4
     CN8      CN6      CN7     5   108.700000   446.432800   0.25610000      6694.40 ; north, C6-C5-C4
     CN8     CN7E      CN7     5   111.000000   446.432800   0.25610000      6694.40 ; north, C6-C1-C2
     CN6     CN7E      CN7     5   111.000000   446.432800   0.25610000      6694.40 ; north, C5-C1-C2
     HN7      CN7      CN6     5   110.100000   288.696000   0.21790000     18853.10 ; north, H41-C4-C5
     CN6     CN8B      CN7     5   105.500000   669.440000   0.25610000      6694.40 ; south, C1-C2-C3
    CN8B      CN7     CN7E     5   101.000000   669.440000   0.00000000         0.00 ; south, C2-C3-C4, (from NF, 11/97, C1'C2'C3')
    CN7E     CN7E      CN7     5   102.000000   446.432800   0.25610000      6694.40 ; south, C5-C4-C3
     CN6     CN7E     CN7E     5   116.000000   446.432800   0.25610000      6694.40 ; south, C1-C5-C4
    CN7E     CN7E      CN8     5   108.000000   446.432800   0.25610000      6694.40 ; south, C4-C5-C6
    CN8B      CN6     CN7E     5   117.000000   446.432800   0.25610000      6694.40 ; north, C5'-C5-C1 and south, C2-C1-C5
    CN7E     CN7E     CN8B     5   111.000000   446.432800   0.25610000      6694.40 ; south, C5-C4-C5'
    CN7E     CN7E      HN7     5   110.100000   288.696000   0.21790000     18853.10 ; south, C5-C4-H41
     HN7     CN7E      CN6     5   110.100000   288.696000   0.21790000     18853.10 ; north, H11-C1-C5, and south, H51-C5-C1
     HN8      CN8      CN6     5   110.100000   288.696000   0.21790000     18853.10 ; north, H6*-C6-C5, and south, H6*-C6-C1
     HN7      CN6      CN7     5   110.100000   288.696000   0.21790000     18853.10 ; north,south,model compd only
     HN7      CN6     CN7E     5   110.100000   288.696000   0.21790000     18853.10 ; north,south,model compd only
     HN7      CN6      CN8     5   110.100000   288.696000   0.21790000     18853.10 ; north,south,model compd only
     HN7      CN6     CN8B     5   110.100000   288.696000   0.21790000     18853.10 ; north,south,model compd only
     HN7     CN7E      CN8     5   110.100000   288.696000   0.21790000     18853.10 ; north, H51-C5-C6, and south, H11-C1-C6
     HN8      CN8     CN7E     5   110.100000   288.696000   0.21790000     18853.10 ; north, H6*-C6-C1, and south, H6*-C6-C5
     HN7      CN6      HN7     5   109.000000   297.064000   0.18020000      4518.72 ; north,south,model compd only
     CN8      CN6      NN2     5   113.700000   585.760000   0.00000000         0.00 ; south, C6-C1-N1/N9, C/A DNA
    CN8B      CN6      NN2     5   113.700000   585.760000   0.00000000         0.00 ; south, C6-C1-N1/N9, C/A DNA
     CN8      CN7      NN2     5   113.700000   920.480000   0.00000000         0.00 ; north, C3-C2-N1/N9, (from ON6  CN7B NN2, C/A DNA)
     CN1      NN2      CN7     5   118.400000   376.560000   0.00000000         0.00 ; north, from CN1T NN2B CN7B, U/T, FC from A
     CN1      NN2      CN6     5   120.000000   376.560000   0.00000000         0.00 ; south, from CN1  NN2  CN7B, C, FC from A
     CN3      NN2      CN6     5   115.900000   376.560000   0.00000000         0.00 ; south, from CN3  NN2  CN7B, C
     CN5      NN2      CN6     5   126.100000   376.560000   0.00000000         0.00 ; south, from CN5  NN2  CN7B, A
     CN4      NN2      CN6     5   127.600000   376.560000   0.00000000         0.00 ; south, from CN4  NN2  CN7B, A
    CN1T      NN2      CN7     5   118.400000   376.560000   0.00000000         0.00 ; north, from CN1T NN2B CN7B, U/T, FC from A
     CN3      NN2      CN7     5   118.400000   376.560000   0.00000000         0.00 ; north, from CN1T NN2B CN7B, U/T, FC from A
     CN5      NN2      CN7     5   126.500000   376.560000   0.00000000         0.00 ; north, from CN5  NN2B CN7B, G
     CN4      NN2      CN7     5   126.300000   376.560000   0.00000000         0.00 ; north, from CN4  NN2B CN7B, G
     HN7      CN7      NN2     5   111.000000   359.824000   0.00000000         0.00 ; north, From HN7  CN7B NN2
     CN7      CN6     NN2B     5   113.700000   585.760000   0.00000000         0.00 ; south, from CN6 CN6B NN2
    CN7E      CN6     NN2B     5   113.700000   585.760000   0.00000000         0.00 ; south, from CN6 CN6B NN2
    CN7E      CN6      NN2     5   113.700000   585.760000   0.00000000         0.00 ; south, from CN6 CN6B NN2
     CN8      CN6     NN2B     5   113.700000   585.760000   0.00000000         0.00 ; south, from CN6 CN6B NN2
    CN8B      CN6     NN2B     5   113.700000   585.760000   0.00000000         0.00 ; south, from CN6 CN6B NN2
     CN7      CN7     NN2B     5   108.000000   920.480000   0.00000000         0.00 ; north, from ON6  CN7B NN2, C/A DNA
     CN8      CN7     NN2B     5   113.700000   920.480000   0.00000000         0.00 ; north, from ON6  CN7B NN2, C/A DNA
    CN7E      CN7     NN2B     5   108.000000   920.480000   0.00000000         0.00 ; north, from ON6  CN7B NN2, C/A DNA
    CN7E      CN7      NN2     5   108.000000   920.480000   0.00000000         0.00 ; north, from ON6  CN7B NN2, C/A DNA
    CN1T     NN2B      CN6     5   118.400000   376.560000   0.00000000         0.00 ; south, from CN1T NN2B CN7B, U/T, FC from A
     CN3     NN2B      CN6     5   119.600000   376.560000   0.00000000         0.00 ; south, from CN3  NN2B CN7B, U/T
     CN5     NN2B      CN6     5   126.500000   376.560000   0.00000000         0.00 ; south, from CN5  NN2B CN7B, G
     CN4     NN2B      CN6     5   126.300000   376.560000   0.00000000         0.00 ; south, from CN4  NN2B CN7B, G
    CN1T     NN2B      CN7     5   118.400000   376.560000   0.00000000         0.00 ; north, from CN1T NN2B CN7B, U/T, FC from A
     CN3     NN2B      CN7     5   118.400000   376.560000   0.00000000         0.00 ; north, from CN1T NN2B CN7B, U/T, FC from A
     CN5     NN2B      CN7     5   126.500000   376.560000   0.00000000         0.00 ; north, from CN5  NN2B CN7B, G
     CN4     NN2B      CN7     5   126.300000   376.560000   0.00000000         0.00 ; north, from CN4  NN2B CN7B, G
     HN7      CN7     NN2B     5   111.000000   359.824000   0.00000000         0.00 ; north, from HN7  CN7B NN2
     CN7      CN6     CN8B     5   111.000000   446.432800   0.25610000      6694.40 ; north, C4-C5-C5'
     CN7     CN7E     CN8B     5   110.000000   376.560000   0.00000000         0.00 ; south, C3-C4-C5', (from NF, 11/97, C3'C4'C5')
     CN8      CN6     CN8B     5   111.000000   446.432800   0.25610000      6694.40 ; north, C6-C5-C5', and south, C6-C1-C2
     CN6     CN8B      ON2     5   110.100000   633.457600   0.00000000         0.00 ; north, C5-C5'-O5', From CN7  CN8B  ON5
     CN6     CN8B      ON5     5   110.100000   633.457600   0.00000000         0.00 ; north, C5-C5'-O5', From CN7  CN8B  ON5
    CN7E     CN8B      ON2     5   110.100000   633.457600   0.00000000         0.00 ; south, C4-C5'-O5', From CN7  CN8B  ON5
    CN7E     CN8B      ON5     5   110.100000   633.457600   0.00000000         0.00 ; south, C4-C5'-O5', From CN7  CN8B  ON5, model cmpd only
     HN7     CN7E     CN8B     5   110.100000   288.696000   0.21790000     18853.10 ; south, H41-C4-C5'
     HN8     CN8B     CN7E     5   110.100000   288.696000   0.21790000     18853.10 ; south, H5'-C5'-C4
     HN8     CN8B      CN6     5   110.100000   288.696000   0.21790000     18853.10 ; north, H5'-C5'-C5
     CN6      CN7      ON2     5   110.100000   633.457600   0.00000000         0.00 ; north, C5-C4-O3', from CN6  CN6  ON2
    CN8B      CN7      ON2     5   110.100000   633.457600   0.00000000         0.00 ; south, C2-C3-O3', from CN6  CN6  ON2
     CN6      CN7      ON5     5   110.100000   633.457600   0.00000000         0.00 ; north, C5-C4-O3', from CN6  CN6  ON2
     CN8     CN8B      CN8     5   113.600000   488.272800   0.25610000      9338.69 ; from alkane, Nilesh
    ON6B     CN7B      CN7     5   107.500000   962.320000   0.00000000         0.00 ; LNA, yxu, 12/2016
    CN7B     ON6B     CN8B     5   111.000000   702.912000   0.00000000         0.00 ; LNA, yxu, 12/2016
    ON6B     CN8B      CN7     5   107.000000  1087.840000   0.00000000         0.00 ; LNA, yxu, 12/2016
    CN8B      CN7     CN8B     5   112.000000   426.768000   0.00000000         0.00 ; LNA, yxu, 12/2016
    ON6B     CN8B      HN8     5   107.300000   585.760000   0.00000000         0.00 ; LNA, from OG3C51 CG3C52 HGA2, yxu, 12/2016
     HN2     NN2U      CN5     5   114.400000   338.904000   0.00000000         0.00 ; from CN1T NN2U HN2
     HN8      CN8     NN2G     5   109.500000   430.952000   0.00000000         0.00 ; from NG2S1 CG321 HGA2
     HN9      CN9     NN2G     5   109.500000   430.952000   0.00000000         0.00 ; from NG2S1 CG321 HGA2
    NN2B      CN5     NN2U     5   128.000000   836.800000   0.00000000         0.00 ; from NG2R51 CG2RC0 NG2R62
    NN2U      CN5     CN5G     5   127.400000   502.080000   0.00000000         0.00 ; from CG2RC0 CG2RC0 NG2R62
     CN5     NN2U     CN1T     5   123.900000    83.680000   0.00000000         0.00 ; from CG2R61 NG2R61 CG2R63
    NN2U     CN1T     NN2G     5   114.000000   418.400000   0.00000000         0.00 ; U
    CN1T     NN2G      CN1     5   127.400000   418.400000   0.00000000         0.00 ; U
     CN1     NN2G      CN8     5   116.300000   585.760000   0.00000000         0.00 ; from CG2R63 NG2R61 CG331
    CN1T     NN2G      CN8     5   116.300000   585.760000   0.00000000         0.00 ; from CG2R63 NG2R61 CG331
     CN1     NN2G      CN9     5   116.300000   585.760000   0.00000000         0.00 ; from CG2R63 NG2R61 CG331
    CN1T     NN2G      CN9     5   116.300000   585.760000   0.00000000         0.00 ; from CG2R63 NG2R61 CG331
    NN2G      CN8      CN8     5   113.700000   585.760000   0.00000000         0.00 ; 9-E-G, adm jr.
    NN2G      CN8      CN9     5   113.500000   585.760000   0.00000000         0.00 ; 9-E-G, adm jr.
     ON1     CN1T     NN2G     5   121.600000  1087.840000   0.00000000         0.00 ; NA C, o2  ! o6

; angle parameters from toppar_c36_jul22/stream/na/toppar_all36_na_nad_ppi.str
;      i        j        k  func       theta0       ktheta          ub0          kub
     CN3     CN1A      NN1     5   113.000000   711.280000   0.24600000     66944.00 ; nad/ppi, jjp1/adm jr. 7/95
     CN3     CN1A      ON1     5   118.500000   711.280000   0.24300000     16736.00 ; nad/ppi, jjp1/adm jr. 7/95
     NN1     CN1A      ON1     5   128.500000   711.280000   0.21700000     16736.00 ; nad/ppi, jjp1/adm jr. 7/95
     NN2     CN3C      HN6     5   119.000000   351.456000   0.00000000         0.00 ; nad/ppi, jjp1/adm jr. 7/95
     HN6     CN3C      CN3     5   119.000000   351.456000   0.00000000         0.00 ; nadh/ppi, jjp1/adm jr. 7/95
     HN6      CN3      CN8     5   116.000000   251.040000   0.00000000         0.00 ; nadh/ppi, jjp1/adm jr. 7/95
    CN3C      CN3      HN6     5   119.000000   351.456000   0.00000000         0.00 ; nadh/ppi, jjp1/adm jr. 7/95
    CN1A      CN3     CN3C     5   107.800000    41.840000   0.00000000         0.00 ; nad/ppi, jjp1/adm jr. 7/95
    CN1A      CN3      CN8     5   124.200000  1046.000000   0.00000000         0.00 ; nadh/ppi, jjp1/adm jr. 7/95
    CN3A      CN3     CN1A     5   110.200000   334.720000   0.00000000         0.00 ; nad/ppi, jjp1/adm jr. 7/95
    CN3B      CN3     CN1A     5   131.800000    83.680000   0.00000000         0.00 ; nad/ppi, jjp1/adm jr. 7/95
     CN3     CN3A      CN3     5   118.000000   418.400000   0.00000000         0.00 ; nad/ppi, jjp1/adm jr. 7/95
    CN3A      CN3     CN3B     5   118.000000   334.720000   0.00000000         0.00 ; nad/ppi, jjp1/adm jr. 7/95
     CN3      CN3      CN8     5   108.500000   447.688000   0.00000000         0.00 ; nadh/ppi, jjp1/adm jr. 7/95
    CN3B      CN3      CN8     5   108.500000   447.688000   0.00000000         0.00 ; nad/ppi, jjp1/adm jr. 7/95
    CN3C      CN3      CN8     5   128.000000   364.008000   0.00000000         0.00 ; nad/ppi, jjp1/adm jr. 7/95
    CN3B      CN3     HN3B     5   122.000000   251.040000   0.00000000         0.00 ; nad/ppi, jjp1/adm jr. 7/95
    CN3A      CN3     HN3B     5   119.000000   251.040000   0.00000000         0.00 ; nad/ppi, jjp1/adm jr. 7/95
     CN3     CN3C      HN3     5   119.000000   351.456000   0.00000000         0.00 ; nadh/ppi, jjp1/adm jr. 7/95
    CN3C      CN3      HN3     5   116.000000   351.456000   0.00000000         0.00 ; nad/ppi, jjp1/adm jr. 7/95
     CN3     CN3A     HN3B     5   121.000000   669.440000   0.00000000         0.00 ; nad/ppi, jjp1/adm jr. 7/95
     CN3     CN3B     HN3B     5   120.500000   669.440000   0.00000000         0.00 ; nad/ppi, jjp1/adm jr. 7/95
     CN3     CN3B      NN2     5   122.000000  1004.160000   0.00000000         0.00 ; nad/ppi, jjp1/adm jr. 7/95
     CN3     CN3C      NN2     5   122.000000   502.080000   0.00000000         0.00 ; nadh/ppi, jjp1/adm jr. 7/95
     CN8      CN3      HN3     5   116.000000   251.040000   0.00000000         0.00 ; nadh/ppi, jjp1/adm jr. 7/95
    HN3B     CN3B      NN2     5   117.500000   669.440000   0.00000000         0.00 ; nad/ppi, jjp1/adm jr. 7/95
     HN3     CN3C      NN2     5   119.000000   351.456000   0.00000000         0.00 ; nad/ppi, jjp1/adm jr. 7/95
     CN3      CN8      CN3     5   108.000000  1046.000000   0.00000000         0.00 ; nadh/ppi, jjp1/adm jr. 7/95
     CN3      CN8      HN8     5   110.100000   460.240000   0.00000000         0.00 ; nadh/ppi, jjp1/adm jr. 7/95
    CN1A      NN1      HN1     5   120.000000   292.880000   0.00000000         0.00 ; nad/ppi, jjp1/adm jr. 7/95
    CN3B      NN2     CN3B     5   120.000000   251.040000   0.00000000         0.00 ; nad/ppi, jjp1/adm jr. 7/95
    CN3C      NN2     CN3C     5   114.000000   167.360000   0.00000000         0.00 ; nadh/ppi, jjp1/adm jr. 7/95
    CN3B      NN2     CN7B     5   121.700000   585.760000   0.00000000         0.00 ; nad/ppi, jjp1/adm jr. 7/95
    CN3C      NN2     CN7B     5   121.700000   585.760000   0.00000000         0.00 ; nad/ppi, jjp1/adm jr. 7/95
    CN3B      NN2      HN2     5   117.400000   267.776000   0.00000000         0.00 ; nad/ppi, jjp1/adm jr. 7/95
    CN3C      NN2      HN2     5   123.000000   326.352000   0.00000000         0.00 ; nad/ppi, jjp1/adm jr. 7/95
     CN7     CN7B      ON2     5   109.700000   962.320000   0.00000000         0.00 ; NF, 11/97, C4'C3'O3' for NADPH

; angle parameters from toppar_c36_jul22/stream/prot/toppar_all36_prot_arg0.str
;      i        j        k  func       theta0       ktheta          ub0          kub
    NRN2     CRN1     NRN2     5   113.000000   627.600000   0.00000000         0.00 ; MGU1, methylguanidine
    NRN2     CRN1     NRC4     5   125.000000   836.800000   0.00000000         0.00 ; MGU1, methylguanidine
    CRN1     NRC4     CR33     5   108.000000   418.400000   0.00000000         0.00 ; MGU1, methylguanidine
    CRN1     NRN2     HRM2     5   108.000000   460.240000   0.00000000         0.00 ; MGU1, methylguanidine
    NRC4     CRN1     NRN1     5   125.000000   418.400000   0.00000000         0.00 ; MGU2, methylguanidine2
    NRN2     CRN1     NRN1     5   110.000000   418.400000   0.00000000         0.00 ; MGU2, methylguanidine2
    CRN1     NRN1     CR33     5   106.000000   359.824000   0.00000000         0.00 ; MGU2, methylguanidine2
    CRN1     NRN1     HRM1     5   104.000000   376.560000   0.00000000         0.00 ; MGU2, methylguanidine2
    CR33     NRN1     HRM1     5   104.000000   376.560000   0.00000000         0.00 ; MGU2, methylguanidine2
    NRN1     CR33     HRA3     5   109.700000   255.224000   0.21400000     41840.00 ; MGU2, methylguanidine2
    CRN1     NRC4     HRP2     5   113.000000   410.032000   0.00000000         0.00 ; MGU2, methylguanidine2
    NRC4     CR33     HRA3     5   113.500000   351.456000   0.00000000         0.00 ; RETINOL SCH1, Schiff's base, deprotonated
    HRM2     NRN2     HRM2     5   105.850000   246.856000   0.00000000         0.00 ; AMINE aliphatic amines
    HRA3     CR33     HRA3     5   108.400000   297.064000   0.18020000      4518.72 ; PROT alkane update
     CT2      CT2     NRC4     5   110.000000   566.513600   0.00000000         0.00 ; RETINOL SCK0, deprotonated Schiff's base
     HA2      CT2     NRC4     5   113.500000   351.456000   0.00000000         0.00 ; RETINOL SCK0, deprotonated Schiff's base
     CT2     NRC4     CRN1     5   108.000000   418.400000   0.00000000         0.00 ; MGU1, methylguanidine
     CT2      CT2     NRN1     5   107.500000   566.513600   0.00000000         0.00 ; PROT arg, (DS)
     HA2      CT2     NRN1     5   109.700000   255.224000   0.21400000     41840.00 ; MGU2, methylguanidine2
     CT2     NRN1     HRM1     5   104.000000   376.560000   0.00000000         0.00 ; MGU2, methylguanidine2
     CT2     NRN1     CRN1     5   106.000000   359.824000   0.00000000         0.00 ; MGU2, methylguanidine

; angle parameters from toppar_c36_jul22/stream/prot/toppar_all36_prot_c36m_d_aminoacids.str
;      i        j        k  func       theta0       ktheta          ub0          kub
     HA3      CT3     CTD1     5   110.100000   279.742240   0.21790000     18853.10 ; ALLOW   ALI
     CT1     CTD1        C     5   108.000000   435.136000   0.00000000         0.00 ; ALLOW   ALI PEP POL ARO
    CTD1      CT2       CA     5   107.500000   433.462400   0.00000000         0.00 ; ALLOW   ALI ARO
    CTD1      CT2       CC     5   108.000000   435.136000   0.00000000         0.00 ; ALLOW   ALI PEP POL ARO
    CTD1      CT2       CD     5   108.000000   435.136000   0.00000000         0.00 ; ALLOW   ALI PEP POL ARO
    CTD1      CT2     CPH1     5   113.000000   488.272800   0.00000000         0.00 ; ALLOW ARO
    CTD1      CT2      CT1     5   113.500000   488.272800   0.25610000      9338.69 ; ALLOW   ALI
    CTD1       CD      OH1     5   110.500000   460.240000   0.00000000         0.00 ; From ASPP CT2-CD-OH1
    CTD1      NH1        C     5   120.000000   418.400000   0.00000000         0.00 ; ALLOW   ALI PEP POL ARO
     CT2     CTD1        C     5   108.000000   435.136000   0.00000000         0.00 ; ALLOW   ALI PEP POL ARO
     CT2     CTD1       CC     5   108.000000   435.136000   0.00000000         0.00 ; ALLOW   ALI PEP POL ARO
     CT2     CTD1       CD     5   108.000000   435.136000   0.00000000         0.00 ; ALLOW   ALI PEP POL ARO
     CT2      CT1     CTD1     5   111.000000   446.432800   0.25610000      6694.40 ; ALLOW   ALI
     CT2      CT2     CTD1     5   113.500000   488.272800   0.25610000      9338.69 ; ALLOW   ALI
     CT2      CT3     CTD1     5   113.500000   488.272800   0.25610000      9338.69 ; ALLOW   ALI
    CT2A     CTD1       CC     5   108.000000   435.136000   0.00000000         0.00 ; ALLOW   ALI PEP POL ARO
     CT3     CTD1        C     5   108.000000   435.136000   0.00000000         0.00 ; ALLOW   ALI PEP POL ARO
     CT3     CTD1       CC     5   108.000000   435.136000   0.00000000         0.00 ; ALLOW   ALI PEP POL ARO
     CT3     CTD1      CT1     5   108.500000   446.432800   0.25610000      6694.40 ; ALLOW   ALI
     CT3     CTD1      CT2     5   114.000000   446.432800   0.25610000      6694.40 ; ALLOW   ALI
     CT3     CTD1      CT3     5   114.000000   446.432800   0.25610000      6694.40 ; ALLOW   ALI
     CT3      CT2     CTD1     5   113.500000   488.272800   0.25610000      9338.69 ; ALLOW   ALI
     CT3      CT1     CTD1     5   108.500000   446.432800   0.25610000      6694.40 ; ALLOW   ALI
      CY      CT2     CTD1     5   114.000000   488.272800   0.00000000         0.00 ; ALLOW ARO
       H      NH1     CTD1     5   117.000000   292.880000   0.00000000         0.00 ; ALLOW   PEP POL ARO ALI
       H      OH1     CTD1     5   106.000000   481.160000   0.00000000         0.00 ; ALLOW   ALC ARO ALI
      HA     CTD1        C     5   109.500000   276.144000   0.21630000     25104.00 ; ALLOW   ALI PEP POL ARO
      HA     CTD1       CD     5   109.500000   276.144000   0.21630000     25104.00 ; ALLOW   ALI PEP POL ARO
      HA     CTD1      CT1     5   110.100000   288.696000   0.21790000     18853.10 ; ALLOW   ALI
      HA     CTD1      CT2     5   110.100000   288.696000   0.21790000     18853.10 ; ALLOW   ALI
      HA     CTD1      CT3     5   110.100000   288.696000   0.21790000     18853.10 ; ALLOW   ALI
      HA     CTD1       HA     5   109.000000   297.064000   0.18020000      4518.72 ; TEST for test cpd
      HA      CT2     CTD1     5   110.100000   279.742240   0.21790000     18853.10 ; ALLOW   ALI
      HA      CT3     CTD1     5   110.100000   279.742240   0.21790000     18853.10 ; ALLOW   ALI
     HA1      CT1     CTD1     5   110.100000   288.696000   0.21790000     18853.10 ; ALLOW   ALI
     HA2      CT2     CTD1     5   110.100000   221.752000   0.21790000     18853.10 ; ALLOW   ALI
     HB1     CTD1        C     5   109.500000   418.400000   0.00000000         0.00 ; ALLOW  PEP
     HB1     CTD1       CC     5   109.500000   418.400000   0.00000000         0.00 ; ALLOW  PEP POL
     HB1     CTD1       CD     5   109.500000   418.400000   0.00000000         0.00 ; ALLOW  PEP POL
     HB1     CTD1      CT1     5   111.000000   292.880000   0.00000000         0.00 ; ALLOW  PEP
     HB1     CTD1      CT2     5   111.000000   292.880000   0.00000000         0.00 ; ALLOW  PEP
     HB1     CTD1      CT3     5   111.000000   292.880000   0.00000000         0.00 ; ALLOW  PEP
      HC      NH3     CTD1     5   109.500000   251.040000   0.20740000     16736.00 ; ALLOW   POL ALI
       N        C     CTD1     5   112.500000   167.360000   0.00000000         0.00 ; ALLOW ALI PEP POL ARO PRO
     NH1        C     CTD1     5   116.500000   669.440000   0.00000000         0.00 ; ALLOW   ALI PEP POL ARO
     NH1     CTD1        C     5   107.000000   418.400000   0.00000000         0.00 ; ALLOW   PEP POL ARO ALI
     NH1     CTD1       CC     5   107.000000   418.400000   0.00000000         0.00 ; ALLOW   PEP POL ARO ALI
     NH1     CTD1       CD     5   107.000000   418.400000   0.00000000         0.00 ; ALLOW   PEP POL ARO ALI
     NH1     CTD1      CT1     5   113.500000   585.760000   0.00000000         0.00 ; ALLOW   ALI PEP POL ARO
     NH1     CTD1      CT2     5   113.500000   585.760000   0.00000000         0.00 ; ALLOW   ALI PEP POL ARO
     NH1     CTD1      CT3     5   113.500000   585.760000   0.00000000         0.00 ; ALLOW   ALI PEP POL ARO
     NH1     CTD1      HB1     5   108.000000   401.664000   0.00000000         0.00 ; ALLOW PEP
     NH2       CC     CTD1     5   116.500000   418.400000   0.24500000     41840.00 ; ALLOW   ALI PEP POL ARO
     NH3     CTD1        C     5   110.000000   365.681600   0.00000000         0.00 ; ALLOW   PEP POL ARO ALI
     NH3     CTD1       CC     5   110.000000   365.681600   0.00000000         0.00 ; ALLOW   PEP POL ARO ALI
     NH3     CTD1      CT1     5   110.000000   566.513600   0.00000000         0.00 ; ALLOW   ALI POL
     NH3     CTD1      CT2     5   110.000000   566.513600   0.00000000         0.00 ; ALLOW   ALI POL
     NH3     CTD1      CT3     5   110.000000   566.513600   0.00000000         0.00 ; ALLOW   ALI POL
     NH3     CTD1      HB1     5   107.500000   430.952000   0.00000000         0.00 ; ALLOW   ALI POL PEP
       O        C     CTD1     5   121.000000   669.440000   0.00000000         0.00 ; ALLOW   ALI PEP POL ARO
       O       CC     CTD1     5   121.000000   125.520000   0.24400000     41840.00 ; ALLOW   ALI PEP POL ARO
      OB       CD     CTD1     5   125.000000   585.760000   0.24420000     16736.00 ; ALLOW   ALI PEP POL ARO
      OC       CC     CTD1     5   118.000000   334.720000   0.23880000     41840.00 ; ALLOW   ALI PEP POL ARO ION
     OH1      CT1     CTD1     5   110.100000   633.457600   0.00000000         0.00 ; ALLOW   ALI ALC ARO
     OH1      CT2     CTD1     5   110.100000   633.457600   0.00000000         0.00 ; ALLOW   ALI ALC ARO
      OS       CD     CTD1     5   109.000000   460.240000   0.23260000     16736.00 ; ALLOW POL PEP
       S      CT2     CTD1     5   112.500000   485.344000   0.00000000         0.00 ; ALLOW   ALI SUL ION
      SM      CT2     CTD1     5   112.500000   485.344000   0.00000000         0.00 ; ALLOW   ALI SUL ION
     NH1     CTD1     CT2A     5   113.500000   585.760000   0.00000000         0.00 ; from NH1  CT1  CT2
     HB1     CTD1     CT2A     5   111.000000   292.880000   0.00000000         0.00 ; from HB1  CT1  CT2
    CT2A     CTD1        C     5   108.000000   435.136000   0.00000000         0.00 ; from CT2  CT1  C
    CTD1     CT2A      HA2     5   110.100000   221.752000   0.21790000     18853.10 ; from HA2  CT2  CT1
    CTD1     CT2A      CT2     5   113.500000   488.272800   0.25610000      9338.69 ; from CT2  CT2  CT1
    CTD1     CT2A     CPH1     5   113.000000   488.272800   0.00000000         0.00 ; from CT1  CT2  CPH1
       C        N     CPD1     5   117.000000   502.080000   0.00000000         0.00 ; 
       N        C     CPD1     5   112.500000   167.360000   0.00000000         0.00 ; 
       N     CPD1      HB1     5   112.000000   401.664000   0.00000000         0.00 ; 
       N     CPD1      CP2     5   110.800000   585.760000   0.00000000         0.00 ; 
       N     CPD1        C     5   108.200000   418.400000   0.00000000         0.00 ; 
       N     CPD1       CC     5   108.200000   418.400000   0.00000000         0.00 ; 
       N     CPD1       CD     5   108.200000   418.400000   0.00000000         0.00 ; 
     NH1        C     CPD1     5   116.500000   669.440000   0.00000000         0.00 ; 
     NH2       CC     CPD1     5   112.500000   669.440000   0.00000000         0.00 ; 
      NP     CPD1        C     5   106.000000   418.400000   0.00000000         0.00 ; 
      NP     CPD1       CC     5   106.000000   418.400000   0.00000000         0.00 ; 
      NP     CPD1       CD     5   106.000000   418.400000   0.00000000         0.00 ; 
      NP     CPD1      CP2     5   108.500000   585.760000   0.00000000         0.00 ; 
      NP     CPD1      HB1     5   107.500000   430.952000   0.00000000         0.00 ; 
     HB1     CPD1      CP2     5   118.000000   292.880000   0.00000000         0.00 ; 
     HB1     CPD1        C     5   112.000000   418.400000   0.00000000         0.00 ; 
     HB1     CPD1       CC     5   112.000000   418.400000   0.00000000         0.00 ; 
     HB1     CPD1       CD     5   112.000000   418.400000   0.00000000         0.00 ; 
      HC       NP     CPD1     5   109.500000   276.144000   0.20560000      3347.20 ; 
     CP2     CPD1        C     5   112.300000   435.136000   0.00000000         0.00 ; 
     CP2     CPD1       CC     5   112.300000   435.136000   0.00000000         0.00 ; 
     CP2     CPD1       CD     5   112.300000   418.400000   0.00000000         0.00 ; 
     CP2      CP2     CPD1     5   108.500000   585.760000   0.00000000         0.00 ; 
    CPD1      CP2      HA2     5   110.100000   279.742240   0.21790000     18853.10 ; 
    CPD1        C        O     5   118.000000   669.440000   0.00000000         0.00 ; 
    CPD1       CC        O     5   118.000000   669.440000   0.00000000         0.00 ; 
     CP3        N     CPD1     5   114.200000   836.800000   0.00000000         0.00 ; 
     CP3       NP     CPD1     5   111.000000   836.800000   0.00000000         0.00 ; 
      OB       CD     CPD1     5   125.000000   585.760000   0.24420000     16736.00 ; 
      OC       CC     CPD1     5   118.000000   334.720000   0.23880000     41840.00 ; 
      OS       CD     CPD1     5   109.000000   460.240000   0.23260000     16736.00 ; 

; angle parameters from toppar_c36_jul22/stream/prot/toppar_all36_prot_fluoro_alkanes.str
;      i        j        k  func       theta0       ktheta          ub0          kub
     HA2      CT2      CF3     5   110.100000   289.532800   0.21790000     18853.10 ; from HA2  CT2  CT3  for TFE
      F3      CF3      CT2     5   112.000000   351.456000   0.23570000     25104.00 ; from F3 CF3 CT3  for TFE
      F2      CF2       F2     5   107.000000  1255.200000   0.21700000      8368.00 ; 
      F3      CF3       F3     5   107.000000   987.424000   0.21550000     25104.00 ; 
      F1      CF1      CT3     5   112.000000   368.192000   0.23690000     25104.00 ; 
      F2      CF2      CT3     5   112.000000   418.400000   0.23570000     25104.00 ; 
      F3      CF3      CT3     5   112.000000   351.456000   0.23570000     25104.00 ; 
     HA3      CT3      CF1     5   110.500000   276.144000   0.21810000     31798.40 ; 
     HA3      CT3      CF2     5   110.500000   276.144000   0.21680000     30961.60 ; 
     HA3      CT3      CF3     5   110.500000   276.144000   0.21550000     32635.20 ; 
     CT3      CF1      HF1     5   112.000000   259.408000   0.21680000      2510.40 ; from: CT3  CF1  HA
     CT3      CF2      HF2     5   112.000000   267.776000   0.21680000      2510.40 ; from: CT3  CF2  HA
      F1      CF1      HF1     5   108.890000   481.160000   0.19970000      4184.00 ; from: F1   CF1  HA
      F2      CF2      HF2     5   108.890000   350.619200   0.19800000      4184.00 ; from: F1   CF2  HA
     HF1      CF1      HF1     5   108.400000   297.064000   0.17460000      8702.72 ; from: HA   CF1  HA
     OH1      CT2      CF3     5   110.100000   633.457600   0.00000000         0.00 ; for TFE
      F1      CF3       HA     5   108.890000   384.091200   0.00000000         0.00 ; for TFE

; angle parameters from toppar_c36_jul22/stream/prot/toppar_all36_prot_heme.str
;      i        j        k  func       theta0       ktheta          ub0          kub
     OST      CST      OST     5   180.000000 25104.000000   0.00000000         0.00 ; CO2, JES
      CS       SS       FE     5   100.600000   418.400000   0.00000000         0.00 ; force constant a guess
      SS       FE      NPH     5    90.000000   836.800000   0.00000000         0.00 ; force constant a guess
     CPA      CPB      CE1     5   126.740000   585.760000   0.00000000         0.00 ; ALLOW HEM
     CPA      CPM      CPA     5   125.120000   788.265600   0.00000000         0.00 ; ALLOW HEM
     CPA      NPH      CPA     5   103.900000  1165.662400   0.00000000         0.00 ; ALLOW HEM
     CPB      CE1      CE2     5   121.500000   585.760000   0.00000000         0.00 ; ALLOW HEM
     CPB      CPB      CE1     5   126.750000   585.760000   0.00000000         0.00 ; ALLOW HEM
     CPB      CPB      CPA     5   106.510000   257.734400   0.00000000         0.00 ; ALLOW HEM
     CPM      CPA      CPB     5   124.070000   515.468800   0.00000000         0.00 ; ALLOW HEM
     CT2      CPB      CPA     5   126.740000   543.920000   0.00000000         0.00 ; ALLOW HEM
     CT2      CPB      CPB     5   126.750000   543.920000   0.00000000         0.00 ; ALLOW HEM
     CT2      CT2      CPB     5   113.000000   585.760000   0.00000000         0.00 ; ALLOW HEM
     CT3      CPB      CPA     5   126.740000   543.920000   0.00000000         0.00 ; ALLOW HEM
     CT3      CPB      CPB     5   126.750000   543.920000   0.00000000         0.00 ; ALLOW HEM
      FE      NPH      CPA     5   128.050000   804.583200   0.00000000         0.00 ; ALLOW HEM
      FE      NR2     CPH1     5   133.000000   251.040000   0.00000000         0.00 ; ALLOW HEM
      FE      NR2     CPH2     5   123.000000   251.040000   0.00000000         0.00 ; ALLOW HEM
      HA      CPM      CPA     5   117.440000   106.273600   0.00000000         0.00 ; ALLOW HEM
      HA      CPM       FE     5   180.000000     0.000000   0.00000000         0.00 ; ALLOW HEM
     HA2      CT2      CPB     5   109.500000   418.400000   0.00000000         0.00 ; ALLOW HEM
     HA3      CT3      CPB     5   109.500000   418.400000   0.00000000         0.00 ; ALLOW HEM
     HE1      CE1      CPB     5   120.000000   418.400000   0.00000000         0.00 ; ALLOW HEM
     NPH      CPA      CPB     5   111.540000  1020.896000   0.00000000         0.00 ; ALLOW HEM
     NPH      CPA      CPM     5   124.390000   736.384000   0.00000000         0.00 ; ALLOW HEM
     NPH       FE       CM     5    90.000000   418.400000   0.00000000         0.00 ; ALLOW HEM
     NPH       FE      CPM     5    45.000000     0.000000   0.00000000         0.00 ; ALLOW HEM
     NPH       FE      NPH     5    90.000000   120.415520   0.00000000         0.00 ; ALLOW HEM
     NR2       FE       CM     5   180.000000   418.400000   0.00000000         0.00 ; ALLOW HEM
     NR2       FE      NPH     5    90.000000   418.400000   0.00000000         0.00 ; ALLOW HEM
      OM       CM       FE     5   180.000000   292.880000   0.00000000         0.00 ; ALLOW HEM
      OM       FE      NPH     5    90.000000    41.840000   0.00000000         0.00 ; ALLOW HEM
      OM       OM       FE     5   180.000000     0.000000   0.00000000         0.00 ; ALLOW HEM
       H      OH1       FE     5   108.000000   543.920000   0.00000000         0.00 ; patch PLOH
     OH1       FE      NPH     5    90.000000    41.840000   0.00000000         0.00 ; patch PLOH

; angle parameters from toppar_c36_jul22/stream/prot/toppar_all36_prot_model.str
;      i        j        k  func       theta0       ktheta          ub0          kub
      OC       CD       OC     5   120.000000   334.720000   0.22412700     83261.60 ; carbonate
      C3       C3       C3     5   111.000000   647.264800   0.25610000      6694.40 ; cyclopropane
      C3       C3      HB2     5   117.100000   192.464000   0.21790000     18853.10 ; cyclopropane
     HB2       C3      HB2     5   117.000000   192.464000   0.18020000      4518.72 ; cyclopropane
      CC      CT1       CC     5   108.000000   435.136000   0.00000000         0.00 ; from CT3  CT1  CC, for CGU
     HA1      CT1       CC     5   109.500000   276.144000   0.21630000     25104.00 ; from HA2  CT2  CC, for CGU
     CT1     CT2A      CT1     5   113.500000   488.272800   0.25610000      9338.69 ; from CT2  CT2  CT1, for CGU
     HA1      CT1     CT2A     5   110.100000   288.696000   0.21790000     18853.10 ; from HA1  CT1  CT2, for CGU
      CC      CT1       CD     5   108.000000   435.136000   0.00000000         0.00 ; from CT3  CT1  CC, for CGUP

; angle parameters from toppar_c36_jul22/stream/prot/toppar_all36_prot_modify_res.str
;      i        j        k  func       theta0       ktheta          ub0          kub
     CT1      CT2        C     5   108.000000   435.136000   0.00000000         0.00 ; DKAM, from CT1  CT2  CC , kevo
      SS       ZN       SS     5   111.770000   836.800000   0.00000000         0.00 ; Anionic Cys-Zn bond, equilibrium value based on PDB survey data
      CS       SS       ZN     5    95.000000   167.360000   0.00000000         0.00 ; Anionic Cys-Zn bond, Bo from ethylmethylsulfide CT2-S-CT3, FC guess
      ZN       SS       ZN     5   103.800000   836.800000   0.00000000         0.00 ; from PDB 6J9J ZN1801:ZN/CYS1516:SG/ZN1802:ZN = 103.793816, FC guess
    CPH2      NR2       ZN     5   120.650000   167.360000   0.00000000         0.00 ; 
    CPH1      NR2       ZN     5   125.980000   167.360000   0.00000000         0.00 ; 
      SS       ZN      NR2     5   108.110000   836.800000   0.00000000         0.00 ; Cys-Zn-His, equilibrium value based on PDB survey data
     NR2       ZN      NR2     5   107.850000   836.800000   0.00000000         0.00 ; His-Zn-His, equilibrium value based on PDB survey data but
      CT      NH1        C     5   120.000000   418.400000   0.00000000         0.00 ; ALLOW   ALI PEP POL ARO
     CT3       CT        C     5   108.000000   435.136000   0.00000000         0.00 ; ALLOW   ALI PEP POL ARO
       H      NH1       CT     5   117.000000   292.880000   0.00000000         0.00 ; ALLOW   PEP POL ARO ALI
     NH1        C       CT     5   116.500000   669.440000   0.00000000         0.00 ; ALLOW   ALI PEP POL ARO
     NH1       CT        C     5   107.000000   418.400000   0.00000000         0.00 ; ALLOW   PEP POL ARO ALI
     NH1       CT      CT3     5   113.500000   585.760000   0.00000000         0.00 ; ALLOW   ALI PEP POL ARO
       O        C       CT     5   121.000000   669.440000   0.00000000         0.00 ; ALLOW   ALI PEP POL ARO
      CY      CT2       CT     5   114.000000   488.272800   0.00000000         0.00 ; from TRP crystal, JWK
      CT      CT2       CA     5   107.500000   433.462400   0.00000000         0.00 ; ALLOW   ALI ARO
      CT      CT2       CC     5   108.000000   435.136000   0.00000000         0.00 ; ALLOW   ALI PEP POL ARO
      CT      CT2       CD     5   108.000000   435.136000   0.00000000         0.00 ; ALLOW   ALI PEP POL ARO
      CT      CT2     CPH1     5   113.000000   488.272800   0.00000000         0.00 ; ALLOW ARO
     CT2       CT        C     5   108.000000   435.136000   0.00000000         0.00 ; ALLOW   ALI PEP POL ARO
     CT3      CT2       CT     5   113.500000   488.272800   0.25610000      9338.69 ; ALLOW   ALI
     NH1       CT      CT2     5   113.500000   585.760000   0.00000000         0.00 ; ALLOW   ALI PEP POL ARO
     OH1      CT2       CT     5   110.100000   633.457600   0.00000000         0.00 ; ALLOW   ALI ALC ARO
       S      CT2       CT     5   112.500000   485.344000   0.00000000         0.00 ; ALLOW   ALI SUL ION
      SM      CT2       CT     5   112.500000   485.344000   0.00000000         0.00 ; ALLOW   ALI SUL ION
     NH1       CT     CT2A     5   113.500000   585.760000   0.00000000         0.00 ; from NH1  CT1  CT2
    CT2A       CT        C     5   108.000000   435.136000   0.00000000         0.00 ; from CT2  CT1  C
      CT     CT2A      HA2     5   110.100000   221.752000   0.21790000     18853.10 ; from HA2  CT2  CT1
      CT     CT2A      CT2     5   113.500000   488.272800   0.25610000      9338.69 ; from CT2  CT2  CT1
      CT     CT2A     CPH1     5   113.000000   488.272800   0.00000000         0.00 ; from CT1  CT2  CPH1
      CT     CT2A       CC     5   108.000000   435.136000   0.00000000         0.00 ; from CT1  CT2  CC
     CT1      CT2       CT     5   113.500000   488.272800   0.25610000      9338.69 ; ALLOW   ALI
    CT2A       CT      CT3     5   113.500000   488.272800   0.25610000      9338.69 ; ASM; from prot_retinol
     NH2       CT      CT2     5   110.000000   566.513600   0.00000000         0.00 ; From LSN NH2-CT2-CT2
     CT2       CT       CC     5   108.000000   435.136000   0.00000000         0.00 ; ALLOW   ALI PEP POL ARO
    CT2A       CT       CC     5   108.000000   435.136000   0.00000000         0.00 ; ALLOW   ALI PEP POL ARO
     CT2       CT       CD     5   108.000000   435.136000   0.00000000         0.00 ; ALLOW   ALI PEP POL ARO
     NH3       CT      CT2     5   110.000000   566.513600   0.00000000         0.00 ; ALLOW   ALI POL
     NH3       CT     CT2A     5   110.000000   566.513600   0.00000000         0.00 ; from NH3  CT1  CT2
    CT2A       CT       CD     5   108.000000   435.136000   0.00000000         0.00 ; from CT2  CT1  CD
       H      NH2       CT     5   111.000000   418.400000   0.00000000         0.00 ; From LSN HC-NH2-CT2
     NH2       CT      CT3     5   110.000000   566.513600   0.00000000         0.00 ; From LSN NH2-CT2-CT2
      CT       CD      OH1     5   110.500000   460.240000   0.00000000         0.00 ; From ASPP CT2-CD-OH1
     CP1       CD      OH1     5   110.500000   460.240000   0.00000000         0.00 ; From ASPP CT2-CD-OH1
     CT3       CT       CD     5   108.000000   435.136000   0.00000000         0.00 ; Ala cter
     NH2       CT        C     5   107.000000   418.400000   0.00000000         0.00 ; From ALA Dipep. NH1-CT2-C
     CT3       CT       CC     5   108.000000   435.136000   0.00000000         0.00 ; ALLOW   ALI PEP POL ARO
      HC      NH3       CT     5   109.500000   251.040000   0.20740000     16736.00 ; ALLOW   POL ALI
     NH1       CT       CC     5   107.000000   418.400000   0.00000000         0.00 ; ALLOW   PEP POL ARO ALI
     NH1       CT       CD     5   107.000000   418.400000   0.00000000         0.00 ; ALLOW   PEP POL ARO ALI
     NH2       CC       CT     5   116.500000   418.400000   0.24500000     41840.00 ; ALLOW   ALI PEP POL ARO
     NH3       CT        C     5   110.000000   365.681600   0.00000000         0.00 ; ALLOW   PEP POL ARO ALI
     NH3       CT       CC     5   110.000000   365.681600   0.00000000         0.00 ; ALLOW   PEP POL ARO ALI
     NH3       CT      CT3     5   110.000000   566.513600   0.00000000         0.00 ; ALLOW   ALI POL
       O       CC       CT     5   121.000000   125.520000   0.24400000     41840.00 ; ALLOW   ALI PEP POL ARO
      OB       CD       CT     5   125.000000   585.760000   0.24420000     16736.00 ; ALLOW   ALI PEP POL ARO
      OC       CC       CT     5   118.000000   334.720000   0.23880000     41840.00 ; ALLOW   ALI PEP POL ARO ION
      OS       CD       CT     5   109.000000   460.240000   0.23260000     16736.00 ; ALLOW POL PEP
       N        C       CT     5   112.500000   167.360000   0.00000000         0.00 ; From N   C   CT  For attachment to Pro
       C        N      CT3     5   119.500000   351.456000   0.00000000         0.00 ; DMA, dimethylacetamide, xxwy
       C        N      CT2     5   119.500000   351.456000   0.00000000         0.00 ; NMGLYD; from C N CT3, DMA (and angsum); kevo
     CT3        N      CT3     5   121.000000   376.560000   0.00000000         0.00 ; DMA, dimethylacetamide, xxwy
     CT2        N      CT3     5   121.000000   376.560000   0.00000000         0.00 ; NMGLYD; from CT3 N CT3, DMA (and angsum); kevo
       N      CT3      HA3     5   105.000000   418.400000   0.00000000         0.00 ; DMA, dimethylacetamide, xxwy
     CT2      CT2   NG2R51     5   113.500000   585.760000   0.00000000         0.00 ; protrz, from CG321 CG321 NG2S1, penalty= 11
  NG2R51      CT2      HA2     5   110.100000   279.742240   0.00000000         0.00 ; protrz, from NG2R51 CG331 HGA3, penalty= 6
  CG2R51   NG2R51      CT2     5   127.100000   585.760000   0.00000000         0.00 ; ETRZ, 1-Ethyl-1,2,3-trizaole, kevo
     CT2   NG2R51   NG2R50     5   117.900000   585.760000   0.00000000         0.00 ; ETRZ, 1-Ethyl-1,2,3-trizaole, kevo
     CT1      CT2   CG2R51     5   113.000000   488.272800   0.00000000         0.00 ; from CT1  CT2  CPH1, kevo
     CT2   CG2R51   CG2R51     5   130.000000   383.254400   0.00000000         0.00 ; from CT2  CPH1 CPH1, kevo
     HA2      CT2   CG2R51     5   109.500000   279.742240   0.00000000         0.00 ; from HA2  CT2  CPH1, kevo
  NG2R50   CG2R51      CT2     5   120.000000   383.254400   0.00000000         0.00 ; from NR2  CPH1 CT2 , kevo
     CP3      CP2      OH1     5   112.200000   418.400000   0.00000000         0.00 ; 
     CP2      CP2      OH1     5   112.500000   418.400000   0.00000000         0.00 ; 
     CP2      OH1        H     5   109.500000   551.451200   0.00000000         0.00 ; 
     HA1      CP2      OH1     5   111.000000   384.091200   0.00000000         0.00 ; 
     HA1      CP2      CP3     5   110.100000   221.752000   0.21790000     18853.10 ; 
     HA1      CP2      CP2     5   110.100000   221.752000   0.21790000     18853.10 ; 
    CPH1      NR1      CT3     5   126.250000   585.760000   0.00000000         0.00 ; NA 9-M-A, adm jr. sum = 360
    CPH2      NR1      CT3     5   126.250000   585.760000   0.00000000         0.00 ; NA 9-M-A, adm jr. sum = 360
    CPH1      NR3      CT3     5   126.000000   585.760000   0.00000000         0.00 ; NA 9-M-A, adm jr. sum = 360
    CPH2      NR3      CT3     5   126.000000   585.760000   0.00000000         0.00 ; NA 9-M-A, adm jr. sum = 360
     NR1      CT3      HA3     5   110.100000   279.742240   0.00000000         0.00 ; NA FOR 9-M-G(C), adm jr.
     NR3      CT3      HA3     5   110.100000   279.742240   0.00000000         0.00 ; NA FOR 9-M-G(C), adm jr.
     CT2      CT2      CE1     5   112.200000   267.776000   0.00000000         0.00 ; from CE1 CT2 CT3 and CG2D1  CG321  CG321
     CT1      CT2      CE1     5   112.200000   267.776000   0.00000000         0.00 ; from CE1 CT2 CT3 and CG2D1  CG321  CG321
     CT1      CT2    CG1T1     5   112.200000   267.776000   0.00000000         0.00 ; 
   CG1T1      CT2      HA2     5   111.500000   393.296000   0.00000000         0.00 ; CG1T1 CG331 HGA3    2BTY, 2-butyne, kevo
   CG1T2    CG1T1      CT2     5   180.000000    92.048000   0.00000000         0.00 ; CG1T2 CG1T1 CG331   PRPY, propene, kevo
  CG2R64        S      CT2     5    91.000000   552.288000   0.00000000         0.00 ; CG2R64 SG311 CG311 ! 2SMPYR
  NG2R62   CG2R64        S     5   116.000000   317.984000   0.00000000         0.00 ; NA Ade h2 %%% TEST 113.5 -> 118.9 %%%
     CT2      CT2    NG2S3     5   109.700000   228.446400   0.00000000         0.00 ; NESM
   NG2S3      CT2      HA2     5   105.200000   320.494400   0.00000000         0.00 ; NG2S3 CG331 HGA3 ! NESM
  CG2R64      NH3       HC     5   109.500000   251.040000   0.20740000     16736.00 ; 
     CT1      CT2     HGA3     5   110.100000   289.532800   0.00000000         0.00 ; CG321 CG331 HGA3 !
     CT2    NG2S3   CG2R64     5   120.000000   418.400000   0.00000000         0.00 ; CG201 NG2S1 CG2R6! 2AMP,2-amino pyridine
     CT2    NG2S3       HC     5   111.500000   353.966400   0.00000000         0.00 ; MMSM
  CG2R64    NG2S3       HC     5   113.500000   364.008000   0.00000000         0.00 ; 4MC, yxu
     CT2      NH3   CG2R64     5   120.000000   418.400000   0.00000000         0.00 ; CG201 NG2S1 CG2R6! 2AMP,2-amino pyridine
     NH3   CG2R64   NG2R62     5   121.700000   552.288000   0.00000000         0.00 ; 4MC
  CG2R61    CG321        S     5   115.200000   443.504000   0.00000000         0.00 ; CG2R61 CG321 NG2S1! NZAD,
     CT1      CT3   CG2R51     5   113.000000   488.272800   0.00000000         0.00 ; ALLOW ARO ! HIS
     HA3      CT3   CG2R51     5   109.500000   279.742240   0.00000000         0.00 ; ALLOW ARO ! HIS
     CT3   CG2R51   CG2R51     5   130.000000   383.254400   0.00000000         0.00 ; ALLOW ARO ! HIS
     CT3   CG2R51   NG2R50     5   124.000000   383.254400   0.00000000         0.00 ; ALLOW ARO ! HIS
  NG2R50   NG2R50      CT2     5   125.500000   251.040000   0.21500000     16736.00 ; ALLOW ARO
  CG2R51   NG2R50      CT2     5   125.500000   251.040000   0.21500000     16736.00 ; ALLOW ARO
  NG2R50      CT2      CT2     5   113.000000   488.272800   0.00000000         0.00 ; ALLOW ARO ! HIS
  NG2R50      CT2      HA2     5   109.500000   279.742240   0.00000000         0.00 ; ALLOW ARO ! HIS
     CT3        C    NG2D1     5   108.810000   669.440000   0.00000000         0.00 ; from CG311 CG201 NG2D1, sm035
     CT3        C    NG2S0     5   112.500000   167.360000   0.00000000         0.00 ; from CT1 C NG2S0, sm014
     CT3        C    NG2S1     5   116.500000   669.440000   0.00000000         0.00 ; from NH1 C CT2, sm154
   CG2O1      NH1      CT3     5   120.000000   418.400000   0.00000000         0.00 ; from CG201 NG2S1 CG321, sm014
   CG322    CG321      CT1     5   113.810000   476.055520   0.25000000      6694.40 ; from CG331 CG321 CG322, FGA4
    HGA2    CG321      CT1     5   110.100000   279.742240   0.21790000     18853.10 ; PROT alkanes 2MR OAS F2F TOX SGB CSPP 2AG 2CO HGA
   OG2D1    CG2O1      NH1     5   122.500000   669.440000   0.00000000         0.00 ; PROT NMA Vib Modes (LK) CRQ SWG I4G SUI HT7 CRF PXU B2H CRO MP8 FME MDO
       C      CT1    CG301     5   108.000000   435.136000   0.00000000         0.00 ; from CG2O1 CG311 CG311, PENALTY= 1.2 DMK HVA I2M
       C      CT1    CG311     5   108.000000   435.136000   0.00000000         0.00 ; PROT Alanine Dipeptide ab initio calc's (LK) BIU 0TD CTH LMQ
       C      CT1    CG324     5   108.000000   435.136000   0.00000000         0.00 ; from CG2O1 CG321 CG314, PENALTY= 4.6 DNP DPP GDPR
       C      CT1   CG3C51     5   108.000000   435.136000   0.00000000         0.00 ; from CG2O1 CG311 CG321, PENALTY= 10 IGL
   CG2O1    CG311      CT1     5   108.000000   435.136000   0.00000000         0.00 ; PROT Alanine Dipeptide ab initio calc's (LK) AHB AHB
   CG2O1      CT1      NH1     5   107.000000   418.400000   0.00000000         0.00 ; PROT Alanine Dipeptide ab initio calc's (LK) (LK) (LK)
   CG2O1      NH1        H     5   123.000000   284.512000   0.00000000         0.00 ; PROT NMA Vib Modes (LK) CRQ SWG I4G SUI HT7 CRF PXU B2H CRO MP8 FME MDO
   CG2O2    CG321      CT1     5   108.000000   435.136000   0.00000000         0.00 ; PROT adm jr. 5/02/91, acetic acid pure solvent ASB ASL PHD
   CG2O3    CG311      CT1     5   108.000000   435.136000   0.00000000         0.00 ; PROT adm jr. 4/05/91, for asn,asp,gln,glu and cters 0TD 2AS BHD
   CG2O4    CG311      CT1     5   108.000000   435.136000   0.00000000         0.00 ; from CG2O2 CG311 CG321, PENALTY= 2.6 LVN
   CG2O5    CG321      CT1     5   113.800000   502.080000   0.00000000         0.00 ; from CG2O5 CG321 CG321, PENALTY= 0.6 KYN
  CG2R51    CG311      CT1     5   114.000000   488.272800   0.00000000         0.00 ; from CG2R51 CG321 CG311, PENALTY= 4 HTR
  CG2R51    CG321      CT1     5   114.000000   488.272800   0.00000000         0.00 ; INDO/TRP TOX TTQ 0AF HIX THA3 DDE HRP 2HF1 DDEP TIH
  CG2R61    CG311      CT1     5   107.500000   433.462400   0.00000000         0.00 ; from CG2R61 CG311 CG321, PENALTY= 0.6 2GX BB8 DIPH
  CG2R61      CT1      HB1     5   111.000000   359.824000   0.00000000         0.00 ; NAMODEL difluorotoluene 3FG FPG4 D4P PRV CHP 004 CPG2 FPG2 FPG3
  CG2R61      CT1      NH1     5   115.200000   443.504000   0.00000000         0.00 ; from CG2R61 CG321 NG2S1, PENALTY= 4 3FG CPG2 D4P
   CG301      CT1      NH1     5   113.500000   585.760000   0.00000000         0.00 ; from CG311 CG311 NG2S1, PENALTY= 1.2 DMK HVA I2M
   CG311    CG2O1      NH1     5   116.500000   669.440000   0.00000000         0.00 ; PROT NMA Vib Modes (LK) FME FGL AYA MAA CXM
   CG311      CT1      HB1     5   110.100000   288.696000   0.21790000     18853.10 ; PROT alkane update, adm jr., 3/2/92 BIU CTH 0TD DILE HIL4
   CG311      CT1      NH1     5   113.500000   585.760000   0.00000000         0.00 ; PROT Alanine Dipeptide ab initio calc's (LK) BIU 0TD CTH LMQ
   CG321    CG321      CT1     5   113.500000   488.272800   0.25610000      9338.69 ; PROT alkanes 2MR HGA MCL ALY 26P 6CL 4CY CAN HHK
   CG321      CT1        C     5   108.000000   435.136000   0.00000000         0.00 ; PROT Alanine Dipeptide ab initio calc's (LK) 2MR F2F IYR OAS
   CG321      CT1      HB1     5   110.100000   288.696000   0.21790000     18853.10 ; PROT alkane update, adm jr., 3/2/92 2MR OAS 2CO F2F SGB
   CG321      CT1      NH1     5   113.500000   585.760000   0.00000000         0.00 ; PROT Alanine Dipeptide ab initio calc's (LK) 2MR F2F IYR OAS
   CG322      CT1      HB1     5   110.100000   289.532800   0.21790000     18853.10 ; from CG302 CG321 HGA2, PENALTY= 7.2 FVAL
   CG324      CT1      HB1     5   111.800000   221.752000   0.21790000     18853.10 ; FLAVOP PIP1,2,3 DPP DNP GDPR GDPR GDPR
   CG324      CT1      NH1     5   113.500000   585.760000   0.00000000         0.00 ; G3P(R/S), 01OH04 DPP DNP GDPR GDPR GDPR
   CG331    CG2O1      NH1     5   116.500000   669.440000   0.00000000         0.00 ; PROT NMA Vib Modes (LK)
  CG3C50    CG2O1      NH1     5   116.500000   669.440000   0.00000000         0.00 ; from CG3C51 CG2O1 NG2S1, PENALTY= 0.8 PXU
  CG3C51    CG2O1      NH1     5   116.500000   669.440000   0.00000000         0.00 ; PROT AcProNH2, ProNH2, AcProNHCH3 RLD 4/23/93 MP8 4FB PR4 HZP HYP 8LJ FP9 PRS
  CG3C51      CT1      HB1     5   110.100000   289.532800   0.21790000     18853.10 ; TF2M viv IGL IGL IGL
  CG3C51      CT1      NH1     5   113.500000   585.760000   0.00000000         0.00 ; from CG321 CG311 NG2S1, PENALTY= 10 IGL
       C    NG2S0    CG311     5   119.500000   351.456000   0.00000000         0.00 ; from CG2O1 NG2S0 CG331, PENALTY= 1.5 MAA
       C    NG2S0    CG321     5   119.500000   351.456000   0.00000000         0.00 ; from CG2O1 NG2S0 CG331, PENALTY= 0.9 I4G
       C    NG2S0    CG331     5   119.500000   351.456000   0.00000000         0.00 ; DMF, Dimethylformamide, xxwy MAA
       C    NG2S0   CG3C50     5   117.000000   502.080000   0.00000000         0.00 ; from CG2O1 NG2S0 CG3C51, PENALTY= 0.8 PXU
       C    NG2S0   CG3C51     5   117.000000   502.080000   0.00000000         0.00 ; PROT AcProNH2, ProNH2, AcProNHCH3 RLD 4/23/93 MP8 4FB HZP HYP 8LJ FP9 PRS
       C    NG2S0   CG3C52     5   117.000000   502.080000   0.00000000         0.00 ; PROT AcProNH2, ProNH2, AcProNHCH3 RLD 4/23/93 PXU MP8 4FB HZP HYP 8LJ FP9 PRS
       C    NG2S1    CG311     5   120.000000   418.400000   0.00000000         0.00 ; PROT NMA Vib Modes (LK) SWG HT7 CRF B2H CRO MDO PIA HMR FGL GYS CH6 CR8D
       C    NG2S1    CG321     5   120.000000   418.400000   0.00000000         0.00 ; PROT NMA Vib Modes (LK) CR2 GL3
       C    NG2S1    CG331     5   120.000000   418.400000   0.00000000         0.00 ; PROT NMA Vib Modes (LK)
       C    NG2S1   CG3C51     5   120.000000   418.400000   0.00000000         0.00 ; from CG2O1 NG2S1 CG321, PENALTY= 10 SUI
       C    NG2S1     HGP1     5   123.000000   284.512000   0.00000000         0.00 ; PROT NMA Vib Modes (LK) SWG SUI HT7 CRF B2H CRO MDO PIA HMR FGL GYS CH6
     CT1    CG2D1    CG2D2     5   126.000000   401.664000   0.00000000         0.00 ; from CG2D2 CG2D1 CG321, PENALTY= 0.6 LVG
     CT1    CG2D1     HGA4     5   116.000000   334.720000   0.00000000         0.00 ; from CG321 CG2D1 HGA4, PENALTY= 0.6 LVG
     CT1   CG2R51   CG2R51     5   130.000000   383.254400   0.00000000         0.00 ; from CG2R51 CG2R51 CG321, PENALTY= 0.6 THG2 THG3
     CT1   CG2R53   NG2R50     5   123.000000   383.254400   0.00000000         0.00 ; from CG321 CG2R53 NG2R50, PENALTY= 0.6 C12
     CT1   CG2R53   NG2R51     5   120.000000   383.254400   0.00000000         0.00 ; from CG321 CG2R53 NG2R51, PENALTY= 0.6 C12
     CT1   CG2R61   CG2R61     5   120.000000   383.254400   0.00000000         0.00 ; modified by kevo for improved transferability 3FG FPG4 CHP D4P PRV
     CT1   CG2R61   CG2R66     5   120.000000   383.254400   0.00000000         0.00 ; from CG2R66 CG2R61 CG331, PENALTY= 1.5 FPG2
     CT1    CG301    CG2O3     5   108.000000   435.136000   0.00000000         0.00 ; from CG2O3 CG301 CG331, PENALTY= 1.5 DMK
     CT1    CG301    CG311     5   113.500000   488.272800   0.25610000      9338.69 ; CA, CHOLIC ACID, cacha, 03/06 TS9 TS9 TS9
     CT1    CG301    CG321     5   113.500000   488.272800   0.25610000      9338.69 ; CA, CHOLIC ACID, cacha, 03/06 I2M M2S M2S M2S
     CT1    CG301    CG331     5   113.500000   488.272800   0.25610000      9338.69 ; CA, CHOLIC ACID, cacha, 03/06 I2M DMK HVA BUG LE1 M2S
     CT1    CG301    OG311     5   110.100000   633.457600   0.00000000         0.00 ; from CG331 CG301 OG311, PENALTY= 1.5 HVA TS9
     CT1    CG311    CG311     5   111.000000   446.432800   0.25610000      6694.40 ; PROT alkane update, adm jr., 3/2/92 HIL4 HL2 HLU ILX
     CT1    CG311    CG321     5   111.000000   446.432800   0.25610000      6694.40 ; PROT alkane update, adm jr., 3/2/92 BIU CTH DILE LME LMQ
     CT1    CG311    CG331     5   108.500000   446.432800   0.25610000      6694.40 ; PROT alkane update, adm jr., 3/2/92 BIU OLT 2AS ALO HIL4
     CT1    CG311     HGA1     5   110.100000   288.696000   0.21790000     18853.10 ; PROT alkane update, adm jr., 3/2/92 BIU CTH 0TD DILE HIL4
     CT1    CG311    OG301     5   109.700000   962.320000   0.00000000         0.00 ; from CG321 CG311 OG302, PENALTY= 1.1 OLT
     CT1    CG311    OG303     5   109.700000   962.320000   0.00000000         0.00 ; from CG331 CG311 OG303, PENALTY= 1.5 ALS
     CT1    CG311    OG311     5   110.100000   633.457600   0.00000000         0.00 ; PROT MeOH, EMB, 10/10/89 CTH ALO BHD HL2 AHB DDZ HLU
     CT1    CG311    SG311     5   112.500000   485.344000   0.00000000         0.00 ; from CG311 CG321 SG311, PENALTY= 4 0TD
     CT1    CG321    CG2D1     5   112.200000   267.776000   0.00000000         0.00 ; CHOLEST cholesterol 2AG 2AG 2AG
     CT1    CG321   CG2DC1     5   112.200000   267.776000   0.00000000         0.00 ; from CG2D1 CG321 CG311, PENALTY= 0.5 STYA TPQ TPQP
     CT1    CG321    CG2O1     5   108.000000   435.136000   0.00000000         0.00 ; PROT adm jr. 4/05/91, for asn,asp,gln,glu and cters MEN
     CT1    CG321    CG2O3     5   108.000000   435.136000   0.00000000         0.00 ; PROT adm jr. 4/05/91, for asn,asp,gln,glu and cters IAS
     CT1    CG321    CG2O4     5   113.800000   502.080000   0.00000000         0.00 ; from CG2O5 CG321 CG321, PENALTY= 1.1 AS2
     CT1    CG321   CG2R61     5   107.500000   433.462400   0.00000000         0.00 ; PROT PARALLH19 (JES) F2F NIY IYR 0A1 ALN 0BN 2LT BIF
     CT1    CG321    CG301     5   113.500000   488.272800   0.25610000      9338.69 ; from CG301 CG321 CG321, PENALTY= 0.6 ADAM
     CT1    CG321    CG311     5   113.500000   488.272800   0.25610000      9338.69 ; PROT alkanes GHG ARO CGU SYM LEF LED 3GL ALC CGUH
     CT1    CG321    CG324     5   110.500000   488.272800   0.25610000      9338.69 ; FLAVOP PIP1,2,3 GBUT DAB DAB DAB
     CT1    CG321    CG331     5   113.500000   488.272800   0.25610000      9338.69 ; PROT alkanes ABA DBB DBB DBB
     CT1    CG321   CG3C51     5   112.000000   443.504000   0.25610000      6694.40 ; from CG321 CG321 CG3C50, PENALTY= 1.4 CPA3
     CT1    CG321   NG2R51     5   120.000000   585.760000   0.00000000         0.00 ; from CG331 CG321 NG2R51, PENALTY= 1.5 PYZ1 TEZA TRZ4
     CT1    CG321    NG2S1     5   113.500000   585.760000   0.00000000         0.00 ; G3P(R/S), 01OH04, cacha from CG311 CG311 NG2S1 ==> ==> analogy DBZ
     CT1    CG321    OG302     5   110.100000   633.457600   0.00000000         0.00 ; LIPID acetic acid OAS BXT BXT BXT
     CT1    CG321    OG303     5   110.100000   633.457600   0.00000000         0.00 ; LIPID acetic acid SGB SEN SVY OSE SVX 4HH SEB SUN
     CT1    CG321    SG301     5   112.500000   485.344000   0.00000000         0.00 ; from CG311 CG321 SG311, PENALTY= 1 2CO CSO CSU
     CT1    CG321    SG311     5   112.500000   485.344000   0.00000000         0.00 ; PROT as in expt.MeEtS & DALC crystal, 5/15/92 CCS CML OCY
     CT1    CG321    SG3O1     5   105.500000   359.824000   0.00000000         0.00 ; from CG321 CG321 SG3O1, PENALTY= 0.6 OCS
     CT1    CG321    SG3O2     5   105.000000   376.560000   0.00000000         0.00 ; from CG331 CG321 SG3O2, PENALTY= 1.5 CSD
     CT1    CG322     FGA1     5   112.000000   368.192000   0.23690000     25104.00 ; from CG331 CG322 FGA1, PENALTY= 1.5 FVAL
     CT1    CG324     HGA2     5   111.800000   221.752000   0.21790000     18853.10 ; FLAVOP PIP1,2,3 DPP DNP GDPR GDPR GDPR
     CT1    CG324    NG2P1     5   110.000000   566.513600   0.00000000         0.00 ; from CG321 CG324 NG2P1, PENALTY= 0.6 GDPR
     CT1    CG324    NG3P3     5   110.000000   566.513600   0.00000000         0.00 ; from CG321 CG324 NG3P3, PENALTY= 0.6 DNP DPP
     CT1   CG3C51   CG3C52     5   115.000000   485.344000   0.25610000      6694.40 ; TF2M viv IGL IGL IGL
     CT1   CG3C51     HGA1     5   110.100000   289.532800   0.21790000     18853.10 ; TF2M viv IGL IGL IGL
     CT1        C    NG2S0     5   112.500000   167.360000   0.00000000         0.00 ; PROT AcProNH2, ProNH2, AcProNHCH3 RLD 4/23/93 I4G PXU MP8 4FB HZP HYP 8LJ FP9 PRS MAA
     CT1        C    NG2S1     5   116.500000   669.440000   0.00000000         0.00 ; PROT NMA Vib Modes (LK) SWG SUI HT7 CRF B2H CRO MDO PIA HMR FGL GYS CH6
     CT1      NH1    CG2O1     5   120.000000   418.400000   0.00000000         0.00 ; PROT NMA Vib Modes (LK) CRQ SWG I4G SUI HT7 CRF PXU B2H CRO MP8 FME MDO
     HB1      CT1    CG2D1     5   111.500000   376.560000   0.00000000         0.00 ; from CG2D1 CG321 HGA2, PENALTY= 4 LVG
     HB1      CT1   CG2R51     5   109.500000   460.240000   0.00000000         0.00 ; from CG2R51 CG321 HGA2, PENALTY= 4 THG2 THG3
     HB1      CT1   CG2R53     5   109.500000   460.240000   0.00000000         0.00 ; from CG2R53 CG321 HGA2, PENALTY= 4 C12
     HB1      CT1    CG301     5   110.100000   289.532800   0.21790000     18853.10 ; CA, CHOLIC ACID, cacha, 03/06 I2M DMK HVA BUG LE1 M2S
     NH1    CG2O1    CG321     5   116.500000   669.440000   0.00000000         0.00 ; PROT NMA Vib Modes (LK) CRQ SWG I4G SUI HT7 CRF B2H CRO MDO PIA HMR GYS
       O        C    NG2S0     5   124.000000   669.440000   0.00000000         0.00 ; DMF, Dimethylformamide, xxwy I4G PXU MP8 4FB HZP HYP 8LJ FP9 PRS MAA
       O        C    NG2S1     5   122.500000   669.440000   0.00000000         0.00 ; PROT NMA Vib Modes (LK) SWG SUI HT7 CRF B2H CRO MDO PIA HMR FGL GYS CH6
     CT1        C    NG2D1     5   108.810000   669.440000   0.00000000         0.00 ; from CG311 CG2O1 NG2D1, XYG
       O        C    NG2D1     5   120.540000   669.440000   0.00000000         0.00 ; from OG2D1 CG2O1 NG2D1, XYG
   SG2D1    CG2O1      NH1     5   126.520000   343.171680   0.00000000         0.00 ; GL3, by ac_aa
     CT1   CG2R51   SG2R50     5   123.700000   313.381600   0.00000000         0.00 ; from CG331 CG2R51 SG2R50, TIH
     CT1    CG301    SG311     5   109.230000   534.966240   0.00000000         0.00 ; from CG331 CG301 SG311, LE1
     CT1    CG321    CG312     5   111.630000   443.671360   0.25105000      6694.40 ; from CG331 CG321 CG312, OBF
     CT1    CG321    NG1T1     5   111.650000   310.954880   0.00000000         0.00 ; AZDA, by ac_aa
     CT1    CG321    SG2P1     5   110.310000   488.691200   0.00000000         0.00 ; from CG331 CG321 SG2P1, CSP
     CT1    CG322    CG331     5   122.040000   383.003360   0.25228000     25104.00 ; from CG331 CG322 CG331, FVAL
   CG2D1      CT1        C     5   108.000000   435.136000   0.00000000         0.00 ; from CT2 CT1 C, LVG
  CG2R51      CT1        C     5   109.730000   434.299200   0.00000000         0.00 ; THG2, by ac_aa
  CG2R61      CT1        C     5   107.500000   433.462400   0.00000000         0.00 ; from CG2O3 CG311 CG2R61, PENALTY= 13.5, 004
   CG322      CT1        C     5   108.590000   410.032000   0.00000000         0.00 ; FVAL, by ac_aa
     NH1      CT1    CG2D1     5   113.500000   585.760000   0.00000000         0.00 ; from NH1 CT1 CT2, LVG
     NH1      CT1   CG2R51     5   110.320000   443.169280   0.00000000         0.00 ; THG2, by ac_aa
     NH1      CT1    CG322     5   112.530000   572.705920   0.00000000         0.00 ; FVAL, by ac_aa
       C    NG2D1   CG2DC1     5   119.680000   369.698240   0.00000000         0.00 ; from CG2O1 NG2D1 CG2DC1, XYG
       C    NG2S1   CG2D1O     5   120.490000   360.911840   0.00000000         0.00 ; from CG2O1 NG2S1 CG2D1O, DYAP
       C     CTD1    CG311     5   108.000000   435.136000   0.00000000         0.00 ; PROT Alanine Dipeptide ab initio calc's (LK) BIU 0TD CTH LMQ
       C     CTD1    CG324     5   108.000000   435.136000   0.00000000         0.00 ; from CG2O1 CG321 CG314, PENALTY= 4.6 DNP DPP GDPR
  CG2R51    CG321     CTD1     5   114.000000   488.272800   0.00000000         0.00 ; INDO/TRP TOX TTQ 0AF HIX THA3 DDE HRP 2HF1 DDEP TIH
  CG2R51     CTD1        C     5   109.730000   434.299200   0.00000000         0.00 ; THG2, by ac_aa
  CG2R61    CG311     CTD1     5   107.500000   433.462400   0.00000000         0.00 ; from CG2R61 CG311 CG321, PENALTY= 0.6 2GX BB8 DIPH
  CG2R61     CTD1        C     5   107.500000   433.462400   0.00000000         0.00 ; from CG2O3 CG311 CG2R61, PENALTY= 13.5, 004
  CG2R61     CTD1      HB1     5   111.000000   359.824000   0.00000000         0.00 ; NAMODEL difluorotoluene 3FG FPG4 D4P PRV CHP 004 CPG2 FPG2 FPG3
  CG2R61     CTD1      NH1     5   115.200000   443.504000   0.00000000         0.00 ; from CG2R61 CG321 NG2S1, PENALTY= 4 3FG CPG2 D4P
   CG311     CTD1      HB1     5   110.100000   288.696000   0.21790000     18853.10 ; PROT alkane update, adm jr., 3/2/92 BIU CTH 0TD DILE HIL4
   CG311     CTD1      NH1     5   113.500000   585.760000   0.00000000         0.00 ; PROT Alanine Dipeptide ab initio calc's (LK) BIU 0TD CTH LMQ
   CG321    CG321     CTD1     5   113.500000   488.272800   0.25610000      9338.69 ; PROT alkanes 2MR HGA MCL ALY 26P 6CL 4CY CAN HHK
   CG321     CTD1        C     5   108.000000   435.136000   0.00000000         0.00 ; PROT Alanine Dipeptide ab initio calc's (LK) 2MR F2F IYR OAS
   CG321     CTD1      HB1     5   110.100000   288.696000   0.21790000     18853.10 ; PROT alkane update, adm jr., 3/2/92 2MR OAS 2CO F2F SGB
   CG321     CTD1      NH1     5   113.500000   585.760000   0.00000000         0.00 ; PROT Alanine Dipeptide ab initio calc's (LK) 2MR F2F IYR OAS
   CG322    CG321     CTD1     5   113.810000   476.055520   0.25000000      6694.40 ; from CG331 CG321 CG322, FGA4
   CG322     CTD1        C     5   108.590000   410.032000   0.00000000         0.00 ; FVAL, by ac_aa
   CG322     CTD1      HB1     5   110.100000   289.532800   0.21790000     18853.10 ; from CG302 CG321 HGA2, PENALTY= 7.2 FVAL
   CG324     CTD1      HB1     5   111.800000   221.752000   0.21790000     18853.10 ; FLAVOP PIP1,2,3 DPP DNP GDPR GDPR GDPR
   CG324     CTD1      NH1     5   113.500000   585.760000   0.00000000         0.00 ; G3P(R/S), 01OH04 DPP DNP GDPR GDPR GDPR
    CTD1   CG2R51   CG2R51     5   130.000000   383.254400   0.00000000         0.00 ; from CG2R51 CG2R51 CG321, PENALTY= 0.6 THG2 THG3
    CTD1   CG2R51   SG2R50     5   123.700000   313.381600   0.00000000         0.00 ; from CG331 CG2R51 SG2R50, TIH
    CTD1   CG2R61   CG2R61     5   120.000000   383.254400   0.00000000         0.00 ; modified by kevo for improved transferability 3FG FPG4 CHP D4P PRV
    CTD1   CG2R61   CG2R66     5   120.000000   383.254400   0.00000000         0.00 ; from CG2R66 CG2R61 CG331, PENALTY= 1.5 FPG2
    CTD1    CG311    CG311     5   111.000000   446.432800   0.25610000      6694.40 ; PROT alkane update, adm jr., 3/2/92 HIL4 HL2 HLU ILX
    CTD1    CG311    CG321     5   111.000000   446.432800   0.25610000      6694.40 ; PROT alkane update, adm jr., 3/2/92 BIU CTH DILE LME LMQ
    CTD1    CG311    CG331     5   108.500000   446.432800   0.25610000      6694.40 ; PROT alkane update, adm jr., 3/2/92 BIU OLT 2AS ALO HIL4
    CTD1    CG311     HGA1     5   110.100000   288.696000   0.21790000     18853.10 ; PROT alkane update, adm jr., 3/2/92 BIU CTH 0TD DILE HIL4
    CTD1    CG321   CG2DC1     5   112.200000   267.776000   0.00000000         0.00 ; from CG2D1 CG321 CG311, PENALTY= 0.5 STYA TPQ TPQP
    CTD1    CG321   CG2R61     5   107.500000   433.462400   0.00000000         0.00 ; PROT PARALLH19 (JES) F2F NIY IYR 0A1 ALN 0BN 2LT BIF
    CTD1    CG321    CG311     5   113.500000   488.272800   0.25610000      9338.69 ; PROT alkanes GHG ARO CGU SYM LEF LED 3GL ALC CGUH
    CTD1    CG321    CG324     5   110.500000   488.272800   0.25610000      9338.69 ; FLAVOP PIP1,2,3 GBUT DAB DAB DAB
    CTD1    CG321   CG3C51     5   112.000000   443.504000   0.25610000      6694.40 ; from CG321 CG321 CG3C50, PENALTY= 1.4 CPA3
    CTD1    CG321    NG1T1     5   111.650000   310.954880   0.00000000         0.00 ; AZDA, by ac_aa
    CTD1    CG321   NG2R51     5   120.000000   585.760000   0.00000000         0.00 ; from CG331 CG321 NG2R51, PENALTY= 1.5 PYZ1 TEZA TRZ4
    CTD1    CG322    CG331     5   122.040000   383.003360   0.25228000     25104.00 ; from CG331 CG322 CG331, FVAL
    CTD1    CG322     FGA1     5   112.000000   368.192000   0.23690000     25104.00 ; from CG331 CG322 FGA1, PENALTY= 1.5 FVAL
    CTD1    CG324     HGA2     5   111.800000   221.752000   0.21790000     18853.10 ; FLAVOP PIP1,2,3 DPP DNP GDPR GDPR GDPR
    CTD1    CG324    NG2P1     5   110.000000   566.513600   0.00000000         0.00 ; from CG321 CG324 NG2P1, PENALTY= 0.6 GDPR
     HB1     CTD1   CG2R51     5   109.500000   460.240000   0.00000000         0.00 ; from CG2R51 CG321 HGA2, PENALTY= 4 THG2 THG3
    HGA2    CG321     CTD1     5   110.100000   279.742240   0.21790000     18853.10 ; PROT alkanes 2MR OAS F2F TOX SGB CSPP 2AG 2CO HGA
     NH1     CTD1   CG2R51     5   110.320000   443.169280   0.00000000         0.00 ; THG2, by ac_aa
     NH1     CTD1    CG322     5   112.530000   572.705920   0.00000000         0.00 ; FVAL, by ac_aa
     CP1        C    NG2D1     5   116.500000   669.440000   0.00000000         0.00 ; from NH1 C CP1, ALLOW PEP PRO
     CP1        C    NG2S0     5   116.500000   669.440000   0.00000000         0.00 ; from NH1 C CP1, ALLOW PEP PRO
     CP1        C    NG2S1     5   116.500000   669.440000   0.00000000         0.00 ; from NH1 C CP1, ALLOW PEP PRO
     CT2        C    NG2D1     5   116.500000   669.440000   0.00000000         0.00 ; from NH1 C CT2, ALLOW ALI PEP POL ARO
     CT2        C    NG2S0     5   116.500000   669.440000   0.00000000         0.00 ; from NH1 C CT2, ALLOW ALI PEP POL ARO
     CT2        C    NG2S1     5   116.500000   669.440000   0.00000000         0.00 ; from NH1 C CT2, ALLOW ALI PEP POL ARO
  CG2D1O    CG2O1        N     5   116.500000   669.440000   0.00000000         0.00 ; from NH1 C CT1, ALLOW ALI PEP POL ARO
  CG2D1O    CG2O1      NH1     5   116.500000   669.440000   0.00000000         0.00 ; from CG2DC1 CG2O1 NG2S1
   CG311    CG2O1        N     5   116.500000   669.440000   0.00000000         0.00 ; from NH1 C CT1, ALLOW ALI PEP POL ARO
   CG321    CG2O1        N     5   116.500000   669.440000   0.00000000         0.00 ; from NH1 C CT2, ALLOW ALI PEP POL ARO
  CG3C50    CG2O1        N     5   116.500000   669.440000   0.00000000         0.00 ; from NH1 C CT1, ALLOW ALI PEP POL ARO
  CG3C51    CG2O1        N     5   116.500000   669.440000   0.00000000         0.00 ; from NH1 C CT1, ALLOW ALI PEP POL ARO
   OG2D1    CG2O1        N     5   122.500000   669.440000   0.00000000         0.00 ; from O C N, ALLOW PRO PEP POL ARO
   SG2D1    CG2O1        N     5   122.500000   669.440000   0.00000000         0.00 ; from O C N, ALLOW PRO PEP POL ARO
   CG2O1        N      CP1     5   117.000000   502.080000   0.00000000         0.00 ; from CP1 N C, ALLOW PRO
   CG2O1        N      CP3     5   117.000000   502.080000   0.00000000         0.00 ; from CP3 N C, ALLOW PRO
   CG2O1      NH1      CT2     5   120.000000   418.400000   0.00000000         0.00 ; from CT2 NH1 C, ALLOW ALI PEP POL ARO
     NH3      CT1    CG321     5   110.000000   566.513600   0.00000000         0.00 ; from NH3  CT1  CT2, ALLOW   ALI POL
   CG321      CT1       CC     5   108.000000   435.136000   0.00000000         0.00 ; from CT2  CT1  CC,   ALLOW   ALI PEP POL ARO

; angle parameters from toppar_c36_jul22/stream/prot/toppar_all36_prot_na_combined.str
;      i        j        k  func       theta0       ktheta          ub0          kub
      CA       CA     ON2B     5   120.000000   627.600000   0.00000000         0.00 ; phenol phosphate, 6/94, adm jr.
      CA     ON2B        P     5   120.000000   753.120000   0.23000000     16736.00 ; phenol phosphate, 6/94, adm jr.
     ON4        P     ON2B     5   108.000000   402.500800   0.00000000         0.00 ; phenol phosphate, 6/94, adm jr.
     ON3        P     ON2B     5   103.000000   827.595200   0.00000000         0.00 ; phenol phosphate, 6/94, adm jr.
     HA2      CT2        P     5   110.000000   753.120000   0.18020000      4518.72 ; 
      CA      CT2        P     5   111.000000   753.120000   0.23000000     16736.00 ; 
     CT2        P      ON4     5    94.000000   753.956800   0.00000000         0.00 ; 
     CT2        P      ON3     5   103.000000   827.595200   0.00000000         0.00 ; 
      CA       CA      CF2     5   120.000000   836.800000   0.00000000         0.00 ; 
      CA      CF2       F2     5   115.000000   418.400000   0.23570000     25104.00 ; 
      CA      CF2        P     5   117.000000   753.120000   0.23000000     16736.00 ; 
      F2      CF2        P     5   122.000000   418.400000   0.23570000     25104.00 ; 
     CF2        P      ON4     5    90.000000   753.956800   0.00000000         0.00 ; 
     CF2        P      ON3     5    94.000000   827.595200   0.00000000         0.00 ; 
     CT1      CT1      ON2     5   109.700000   962.320000   0.00000000         0.00 ; Ser-Phos, from CN7  CN7  ON2
     CT3      CT1      ON2     5   109.700000   962.320000   0.00000000         0.00 ; Ser-Phos, from CN8  CN7  ON2
     CT1      CT2      ON2     5   108.400000   585.760000   0.00000000         0.00 ; Ser-Phos, from CN7  CN8B ON2
     CT3      CT2      ON2     5   108.400000   585.760000   0.00000000         0.00 ; Thr-Phos, from CN7  CN8B ON2
     CN9      CN8      ON2     5   108.400000   585.760000   0.00000000         0.00 ; Thr-Phos, from CN7  CN8B ON2
     CT1      ON2        P     5   120.000000   167.360000   0.23300000     29288.00 ; from CN7 ON2 P
     CT2      ON2        P     5   120.000000   167.360000   0.23300000     29288.00 ; from CN8B ON2 P
     HA1      CT1      ON2     5   109.500000   502.080000   0.00000000         0.00 ; from HN7  CN7  ON2
     HA2      CT2      ON2     5   109.500000   502.080000   0.00000000         0.00 ; from HN8  CN8B ON2
     CN9      CN7      CN9     5   113.600000   488.272800   0.25610000      9338.69 ; alkane, from CN8  CN7  CN8
     ON2      CN7      CN9     5   109.700000   962.320000   0.00000000         0.00 ; from CN7  CN8  ON2
       S     CN8B      CN7     5   114.500000   485.344000   0.00000000         0.00 ; 
    CN8B        S      CT2     5    95.000000   284.512000   0.00000000         0.00 ; 
       S     CN8B      HN8     5   111.300000   385.764800   0.00000000         0.00 ; 
      SP      CT2      HA2     5   111.300000   385.764800   0.00000000         0.00 ; 
      SP      CT2      CT2     5   114.500000   485.344000   0.00000000         0.00 ; 
     CT2       SP      CT3     5    95.000000   284.512000   0.00000000         0.00 ; 
     CT2       SP     CN8B     5    95.000000   284.512000   0.00000000         0.00 ; 
      SP      CT3      HA3     5   111.300000   385.764800   0.00000000         0.00 ; 
     CT3       SP     CN8B     5    95.000000   284.512000   0.00000000         0.00 ; 
      SP     CN8B      CN7     5   114.500000   485.344000   0.00000000         0.00 ; 
      SP     CN8B      HN8     5   111.300000   385.764800   0.00000000         0.00 ; 
     ON6     CN7B      NR1     5   108.000000  1171.520000   0.00000000         0.00 ; k guessed, theta from ribo./desox. xtal (NF)
    ON6B     CN7B      NR1     5   108.000000  1171.520000   0.00000000         0.00 ; RNUS
     CN8     CN7B      NR1     5   113.700000  1171.520000   0.00000000         0.00 ; k guessed, theta from ribo./desox. xtal (NF)
    CN7B     CN7B      NR1     5   113.700000  1171.520000   0.00000000         0.00 ; RNUS
    CN7B      NR1     CPH2     5   127.000000  1087.840000   0.00000000         0.00 ; k guessed, theta from A/G xtal (NF)
    CN7B      NR1     CPH1     5   126.000000  1087.840000   0.00000000         0.00 ; k guessed, theta from A/G xtal (NF)
     HN7     CN7B      NR1     5   106.300000   251.040000   0.00000000         0.00 ; k guessed, theta from ai (NF)
     CT2        S      CN8     5    95.000000   284.512000   0.00000000         0.00 ; Methione
       S      CN8      CN8     5   114.500000   485.344000   0.00000000         0.00 ; Methione
       S      CN8      HN8     5   111.300000   385.764800   0.00000000         0.00 ; Methione

; angle parameters from toppar_c36_jul22/stream/prot/toppar_all36_prot_retinol.str
;      i        j        k  func       theta0       ktheta          ub0          kub
    CC1A     CC1A      CT3     5   123.500000   401.664000   0.00000000         0.00 ; 
     HA2      CT2     CC1A     5   111.500000   376.560000   0.00000000         0.00 ; 
     HA3      CT3     CC1A     5   111.500000   351.456000   0.00000000         0.00 ; 
     HA3      CT3     CC1B     5   111.500000   351.456000   0.00000000         0.00 ; 
     HE1     CC1A     CC1A     5   119.000000   351.456000   0.00000000         0.00 ; 
     HE1     CC1B     CC1B     5   119.000000   351.456000   0.00000000         0.00 ; 
     HE1     CC1A      CT3     5   117.500000   351.456000   0.00000000         0.00 ; 
     HE1     CC1B      CT3     5   117.500000   184.096000   0.00000000         0.00 ; 
     HE1     CC1A      CC2     5   118.000000   351.456000   0.00000000         0.00 ; 
     HE1     CC1B      CC2     5   118.000000   351.456000   0.00000000         0.00 ; 
     HE2      CC2     CC1A     5   120.500000   376.560000   0.00000000         0.00 ; 
     HE2      CC2     CC1B     5   120.500000   376.560000   0.00000000         0.00 ; 
     HE1     CC1B     CC1A     5   118.000000   351.456000   0.00000000         0.00 ; 
     HE1     CC1A     CC1B     5   118.000000   351.456000   0.00000000         0.00 ; 
    CC1B     CC1A      CC2     5   123.500000   401.664000   0.00000000         0.00 ; 
    CC1A     CC1B      CC2     5   123.500000   401.664000   0.00000000         0.00 ; 
     HE2      CC2      HE2     5   119.000000   158.992000   0.00000000         0.00 ; 
    CC1A     CC1B     CC1B     5   123.500000   401.664000   0.00000000         0.00 ; 
    CC1B     CC1B      CT3     5   123.500000   401.664000   0.00000000         0.00 ; 
    CC1A       CT      CT3     5   112.200000   267.776000   0.00000000         0.00 ; 
    CC1A       CT      CT2     5   112.200000   267.776000   0.00000000         0.00 ; 
    CC1A      CT2      CT2     5   112.200000   267.776000   0.00000000         0.00 ; 
    CC1A     CC1A     CC1B     5   123.500000   401.664000   0.00000000         0.00 ; 
    CC1A     CC1A       CT     5   123.500000   401.664000   0.00000000         0.00 ; 
    CC1A     CC1A      CT2     5   123.500000   401.664000   0.00000000         0.00 ; 
    CC1B     CC1A       CT     5   123.500000   401.664000   0.00000000         0.00 ; 
     CT2     CC1A      CT3     5   123.500000   401.664000   0.00000000         0.00 ; 
     CC2     CC1A      CT3     5   123.500000   401.664000   0.00000000         0.00 ; 
    CC1B     CC1A      CT3     5   113.000000   401.664000   0.00000000         0.00 ; 
     CT3     CC1B      CT3     5   113.000000   393.296000   0.00000000         0.00 ; 
     CT2       CT      CT3     5   113.500000   488.272800   0.25610000      9338.69 ; 
     CT3       CT      CT3     5   113.500000   488.272800   0.25610000      9338.69 ; 
      CT      CT2      CT2     5   113.500000   488.272800   0.25610000      9338.69 ; 
      CT      CT2      HA2     5   110.100000   221.752000   0.21790000     18853.10 ; 
      CT      CT3      HA3     5   110.100000   279.742240   0.21790000     18853.10 ; 
      CT     CC1A      CT3     5   123.500000   401.664000   0.00000000         0.00 ; 
      CA      NH1        C     5   120.000000   418.400000   0.00000000         0.00 ; 
       H      NH1       CA     5   117.000000   284.512000   0.00000000         0.00 ; 
     NH1       CA       CA     5   120.000000   334.720000   0.24162000     29288.00 ; 
     CT3     CC1A      CT3     5   125.200000   393.296000   0.00000000         0.00 ; 
    CC1A     CC1A        C     5   123.500000   401.664000   0.00000000         0.00 ; 
     HE1     CC1A        C     5   119.500000   435.136000   0.00000000         0.00 ; 
       O        C     CC1A     5   122.500000   669.440000   0.00000000         0.00 ; 
     NH1        C     CC1A     5   116.500000   669.440000   0.00000000         0.00 ; 
     HE1     CC1A      CT2     5   116.000000   334.720000   0.00000000         0.00 ; 
     OH1      CT2     CC1A     5   110.100000   633.457600   0.00000000         0.00 ; 
     CT2     CC1A      CC2     5   126.000000   234.304000   0.00000000         0.00 ; 
     CC2     CC1A       CD     5   120.000000   502.080000   0.00000000         0.00 ; 
    CC1A     CC1A       CD     5   120.000000   502.080000   0.00000000         0.00 ; 
     HE1     CC1A       CD     5   122.000000   267.776000   0.00000000         0.00 ; sum=242
    CC1A       CD        O     5   124.000000   627.600000   0.00000000         0.00 ; 
    CC1A       CD      HR1     5   115.000000   125.520000   0.00000000         0.00 ; 
     HE1     CC1A       CC     5   119.500000   435.136000   0.00000000         0.00 ; 
     CC2     CC1A       CC     5   119.000000   334.720000   0.25267000     29288.00 ; 
    CC1A       CC       OC     5   118.000000   334.720000   0.23880000     41840.00 ; 
    CC1A     CC1A       CC     5   123.500000   401.664000   0.00000000         0.00 ; 
     CT3      NS1     CC1B     5   111.000000   560.656000   0.00000000         0.00 ; 
     NS1     CC1B      CT3     5   123.000000   435.136000   0.00000000         0.00 ; sum=242.5
     NS1     CC1B      HE1     5   119.500000   317.984000   0.00000000         0.00 ; 
     HA3      CT3      NS1     5   113.500000   351.456000   0.00000000         0.00 ; 
     CT3      NS2     CC1B     5   123.600000   560.656000   0.00000000         0.00 ; 
     CT3      NS2       HC     5   117.400000   317.984000   0.00000000         0.00 ; 
    CC1B      NS2       HC     5   118.800000   317.984000   0.00000000         0.00 ; 
     NS2     CC1B      CT3     5   125.600000   334.720000   0.00000000         0.00 ; 
     NS2     CC1B      HR1     5   114.000000   317.984000   0.00000000         0.00 ; 
     CT3     CC1B      HR1     5   120.400000   351.456000   0.00000000         0.00 ; 
     HA3      CT3      NS2     5   110.100000   351.456000   0.00000000         0.00 ; 
     NS2     CC1B     CC1A     5   125.600000   334.720000   0.00000000         0.00 ; 
     HR1     CC1B     CC1A     5   120.400000   351.456000   0.00000000         0.00 ; 
     CT2      CT2      NS1     5   110.000000   566.513600   0.00000000         0.00 ; from lysine
     HA2      CT2      NS1     5   113.500000   351.456000   0.00000000         0.00 ; 
     CT2      NS1     CC1B     5   111.000000   560.656000   0.00000000         0.00 ; 
     NS1     CC1B     CC1A     5   123.000000   334.720000   0.00000000         0.00 ; 
     CT2      NS2     CC1B     5   123.600000   560.656000   0.00000000         0.00 ; 
     CT2      NS2       HC     5   117.400000   317.984000   0.00000000         0.00 ; 
     CT2      CT2      NS2     5   110.000000   566.513600   0.00000000         0.00 ; from lysine
     HA2      CT2      NS2     5   110.100000   351.456000   0.00000000         0.00 ; 

; angle parameters from toppar_c36_jul22/top_all36_prot.rtf
;      i        j        k  func       theta0       ktheta          ub0          kub

; angle parameters from toppar_c36_jul22/toppar_water_ions.str
;      i        j        k  func       theta0       ktheta          ub0          kub
      HT       OT       HT     5   104.520000   460.240000   0.00000000         0.00 ; FROM TIPS3P GEOMETRY
    HPER     OPER     OPER     5    99.920000   505.427200   0.00000000         0.00 ; H2O2


[ dihedraltypes ]

; specific (non-wildcard) dihedral parameters from 
;      i        j        k        l  func         phi0         kphi  mult

; specific (non-wildcard) dihedral parameters from toppar_c36_jul22/metals/CHARMM_METAL/par_all22_prot_metals.inp
;      i        j        k        l  func         phi0         kphi  mult
     CE1      CE1      CT3       HA     9     0.000000     0.125520     3 ; 
     CE2      CE1      CT2       HA     9     0.000000     0.502080     3 ; 
     CE2      CE1      CT3       HA     9   180.000000     0.209200     3 ; 
     CT3      CT2      CT2      CT3     9     0.000000     0.627600     1 ; ALLOW ALI
      HA       CA       CA       CA     9   180.000000    14.644000     2 ; ALLOW ARO
      HA       CA       CA      CPT     9   180.000000    14.644000     2 ; ALLOW   ARO
      HA       CA       CA       HA     9   180.000000    10.460000     2 ; ALLOW ARO
      HA       CA      CPT      CPT     9   180.000000    12.552000     2 ; ALLOW   ARO
      HA       CA      CPT       CY     9   180.000000    16.736000     2 ; ALLOW   ARO
      HA       CA       CY      CPT     9   180.000000     5.020800     2 ; ALLOW ARO
      HA       CA       CY      CT2     9   180.000000     5.020800     2 ; ALLOW ARO
      HA       CA       NY      CPT     9   180.000000    12.552000     2 ; ALLOW   ARO
      HA       CA       NY        H     9   180.000000     4.184000     2 ; ALLOW   ARO
      HA       CC      NH2        H     9   180.000000     5.857600     2 ; ALLOW PEP POL
      HA      CP3        N        C     9   180.000000     0.000000     3 ; ALLOW PRO PEP
      HA      CP3        N      CP1     9     0.000000     0.418400     3 ; ALLOW PRO
      HA      CP3       NP      CP1     9     0.000000     0.334720     3 ; ALLOW PRO
      HA      CT1      CT2       CA     9     0.000000     0.167360     3 ; ALLOW   ARO
      HA      CT2     CPH1     CPH1     9     0.000000     0.000000     3 ; ALLOW ARO
      HA      CT2       CY       CA     9   180.000000     1.046000     2 ; ALLOW ARO
      HA      CT2       CY      CPT     9   180.000000     1.046000     2 ; ALLOW ARO
      HA      CT2      NH1        C     9     0.000000     0.000000     3 ; ALLOW PEP
      HA      CT2      NH1        H     9     0.000000     0.000000     3 ; ALLOW PEP
      HA      CT2        S      CT3     9     0.000000     1.171520     3 ; ALLOW   ALI SUL ION
      HA      CT3     CPH1     CPH1     9     0.000000     0.000000     3 ; ALLOW ARO
      HA      CT3       CS       HA     9     0.000000     0.669440     3 ; ALLOW SUL
      HA      CT3      CT2       CA     9     0.000000     0.167360     3 ; ALLOW   ARO
      HA      CT3      NH1        C     9     0.000000     0.000000     3 ; ALLOW PEP
      HA      CT3      NH1        H     9     0.000000     0.000000     3 ; ALLOW PEP
      HA      CT3        S      CT2     9     0.000000     1.171520     3 ; ALLOW   ALI SUL ION
      HA       CY       CA      CPT     9   180.000000     5.020800     2 ; ALLOW   ARO
      HA       CY       CA       HA     9   180.000000     5.020800     2 ; ALLOW   ARO
      HA       CY      CPT       CA     9   180.000000    12.552000     2 ; ALLOW   ARO
      HA       CY      CPT      CPT     9   180.000000    12.552000     2 ; ALLOW   ARO
     HE1      CE1      CT2       HA     9     0.000000     0.000000     3 ; 
     HE1      CE1      CT3       HA     9     0.000000     0.000000     3 ; 
      HB      CP1        N        C     9     0.000000     3.347200     3 ; ALLOW PRO PEP
      HB      CP1        N      CP3     9     0.000000     0.418400     3 ; ALLOW PRO
      HB      CP1       NP      CP3     9     0.000000     0.334720     3 ; ALLOW PRO
      HB      CT1      NH1        C     9     0.000000     0.000000     1 ; ALLOW PEP
      HB      CT1      NH1        H     9     0.000000     0.000000     1 ; ALLOW PEP
      HB      CT2      NH1        C     9     0.000000     0.000000     1 ; ALLOW PEP
      HB      CT2      NH1        H     9     0.000000     0.000000     1 ; ALLOW PEP
      HB      CT3      NH1        C     9     0.000000     0.000000     1 ; ALLOW PEP
      HB      CT3      NH1        H     9     0.000000     0.000000     1 ; ALLOW PEP
      HC      NH2      CT2       HA     9     0.000000     0.460240     3 ; 
      HC      NH2      CT2       HB     9     0.000000     0.460240     3 ; 
      HC       NP      CP1       HB     9     0.000000     0.334720     3 ; ALLOW PRO
      HC       NP      CP3       HA     9     0.000000     0.334720     3 ; ALLOW PRO
      HS        S      CT2       HA     9     0.000000     0.836800     3 ; ALLOW   ALI SUL ION
      HS        S      CT3       HA     9     0.000000     0.836800     3 ; ALLOW   ALI SUL ION
       N        C      CP1       HB     9   180.000000     1.673600     1 ; ALLOW PEP PRO
       N        C      CP1       HB     9     0.000000     2.510400     2 ; ALLOW PEP PRO
       N        C      CT1       HB     9     0.000000     0.000000     1 ; ALLOW PEP PRO
       N        C      CT2       HB     9     0.000000     0.000000     1 ; ALLOW PEP PRO
       N        C      CT3       HA     9     0.000000     0.000000     1 ; ALLOW PEP PRO
     NH1        C      CP1       HB     9   180.000000     1.673600     1 ; ALLOW PEP PRO
     NH1        C      CP1       HB     9     0.000000     2.510400     2 ; ALLOW PEP PRO
     NH1        C      CT1       HB     9     0.000000     0.000000     1 ; ALLOW PEP
     NH1        C      CT2       HA     9     0.000000     0.000000     3 ; ALLOW PEP
     NH1        C      CT2       HB     9     0.000000     0.000000     1 ; ALLOW PEP
     NH1        C      CT3       HA     9     0.000000     0.000000     3 ; ALLOW PEP
     NH2       CC      CP1       HB     9   180.000000     1.673600     1 ; ALLOW PEP PRO
     NH2       CC      CP1       HB     9     0.000000     2.510400     2 ; ALLOW PEP PRO
     NH2       CC      CT2       HA     9   180.000000     0.000000     3 ; ALLOW POL
     NR1     CPH1      CT2       HA     9     0.000000     0.794960     3 ; ALLOW ARO
     NR1     CPH1      CT3       HA     9     0.000000     0.794960     3 ; ALLOW ARO
     NR2     CPH1      CT2       HA     9     0.000000     0.794960     3 ; ALLOW ARO
     NR2     CPH1      CT3       HA     9     0.000000     0.794960     3 ; ALLOW ARO
     NR3     CPH1      CT2      CT1     9     0.000000     0.794960     3 ; ALLOW ARO
     NR3     CPH1      CT2       HA     9     0.000000     0.794960     3 ; ALLOW ARO
     NR3     CPH1      CT3       HA     9     0.000000     0.794960     3 ; ALLOW ARO
      NY       CA       CY       HA     9   180.000000    14.644000     2 ; ALLOW   ARO
      NY      CPT       CA       HA     9   180.000000    16.736000     2 ; ALLOW   ARO
       O        C      CP1       HB     9     0.000000     1.673600     1 ; ALLOW PEP PRO
       O        C      CP1       HB     9     0.000000     2.510400     2 ; ALLOW PEP PRO
       O        C      CT1       HB     9     0.000000     0.000000     1 ; ALLOW PEP
       O        C      CT2       HA     9   180.000000     0.000000     3 ; ALLOW POL
       O        C      CT2       HB     9     0.000000     0.000000     1 ; ALLOW PEP
       O        C      CT3       HA     9   180.000000     0.000000     3 ; ALLOW POL
       O       CC      CP1       HB     9     0.000000     1.673600     1 ; ALLOW PEP PRO
       O       CC      CP1       HB     9     0.000000     2.510400     2 ; ALLOW PEP PRO
       O       CC      CT2       HA     9   180.000000     0.000000     3 ; ALLOW POL
      OC       CC      CP1       HB     9     0.000000     0.669440     3 ; ALLOW PEP PRO POL
       S      CT2      CT2       HA     9     0.000000     0.041840     3 ; ALLOW   ALI SUL ION
      SM      CT2      CT2       HA     9     0.000000     0.041840     3 ; ALLOW   ALI SUL ION
      SM       SM      CT2       HA     9     0.000000     0.661072     3 ; ALLOW   ALI SUL ION
      SM       SM      CT3       HA     9     0.000000     0.661072     3 ; ALLOW   ALI SUL ION
      SS       CS      CT3       HA     9     0.000000     0.627600     3 ; ALLOW SUL

; specific (non-wildcard) dihedral parameters from toppar_c36_jul22/metals/CHARMM_METAL/top_all22_prot_metals.inp
;      i        j        k        l  func         phi0         kphi  mult

; specific (non-wildcard) dihedral parameters from toppar_c36_jul22/par_all35_ethers.prm
;      i        j        k        l  func         phi0         kphi  mult
   CC31A    CC30A    CC32A    HCA2A     9     0.000000     0.836800     3 ; alkane, 3/92
   CC32A    CC30A    CC32A    HCA2A     9     0.000000     0.836800     3 ; alkane, 3/92
   CC33A    CC30A    CC32A    HCA2A     9     0.000000     0.836800     3 ; alkane, 3/92
   CC31A    CC30A    CC33A    HCA3A     9     0.000000     0.836800     3 ; alkane, 3/92
   CC32A    CC30A    CC32A    HCA3A     9     0.000000     0.836800     3 ; alkane, 3/92
   CC33A    CC30A    CC32A    HCA3A     9     0.000000     0.836800     3 ; alkane, 3/92
   HCA1A    CC31A    CC31A    HCA1A     9     0.000000     0.836800     3 ; alkane, 3/92
   CC31A    CC31A    CC31A    HCA1A     9     0.000000     0.836800     3 ; alkane, 3/92
   CC32A    CC31A    CC31A    HCA1A     9     0.000000     0.836800     3 ; alkane, 3/92
   CC33A    CC31A    CC31A    HCA1A     9     0.000000     0.836800     3 ; alkane, 3/92
   HCA1A    CC31A    CC32A    HCA2A     9     0.000000     0.836800     3 ; alkane, 3/92
   HCA1A    CC31A    CC32A    CC31A     9     0.000000     0.836800     3 ; alkane, 3/92
   HCA1A    CC31A    CC32A    CC32A     9     0.000000     0.836800     3 ; alkane, 3/92
   HCA1A    CC31A    CC32A    CC33A     9     0.000000     0.836800     3 ; alkane, 3/92
   CC31A    CC31A    CC32A    HCA2A     9     0.000000     0.836800     3 ; alkane, 3/92
   CC32A    CC31A    CC32A    HCA2A     9     0.000000     0.836800     3 ; alkane, 3/92
   CC33A    CC31A    CC32A    HCA2A     9     0.000000     0.836800     3 ; alkane, 3/92
   HCA1A    CC31A    CC33A    HCA3A     9     0.000000     0.836800     3 ; alkane, 3/92
   CC31A    CC31A    CC33A    HCA3A     9     0.000000     0.836800     3 ; alkane, 3/92
   CC32A    CC31A    CC33A    HCA3A     9     0.000000     0.836800     3 ; alkane, 3/92
   CC33A    CC31A    CC33A    HCA3A     9     0.000000     0.836800     3 ; alkane, 3/92
   HCA2A    CC32A    CC32A    HCA2A     9     0.000000     0.794960     3 ; alkane, 4/98, yin and mackerell
   CC30A    CC32A    CC32A    HCA2A     9     0.000000     0.794960     3 ; alkane, 4/98, yin and mackerell
   CC31A    CC32A    CC32A    HCA2A     9     0.000000     0.794960     3 ; alkane, 4/98, yin and mackerell
   CC32A    CC32A    CC32A    HCA2A     9     0.000000     0.794960     3 ; alkane, 4/98, yin and mackerell
   CC33A    CC32A    CC32A    HCA2A     9     0.000000     0.794960     3 ; alkane, 4/98, yin and mackerell
   HCA2A    CC32A    CC33A    HCA3A     9     0.000000     0.669440     3 ; alkane, 4/98, yin and mackerell
   CC30A    CC32A    CC33A    HCA3A     9     0.000000     0.669440     3 ; alkane, 4/98, yin and mackerell
   CC31A    CC32A    CC33A    HCA3A     9     0.000000     0.669440     3 ; alkane, 4/98, yin and mackerell
   CC32A    CC32A    CC33A    HCA3A     9     0.000000     0.669440     3 ; alkane, 4/98, yin and mackerell
   CC33A    CC32A    CC33A    HCA3A     9     0.000000     0.669440     3 ; alkane, 4/98, yin and mackerell
   CC33A    CC32A    CC32A    CC33A     9   180.000000     0.133009     6 ; alkane, c27r klauda et al 2004
   CC33A    CC32A    CC32A    CC33A     9     0.000000     0.159787     2 ; alkane, c27r klauda et al 2004
   CC33A    CC32A    CC32A    CC32A     9     0.000000     0.853159     5 ; alkane, c27r klauda et al 2004
   CC33A    CC32A    CC32A    CC32A     9     0.000000     0.452876     4 ; alkane, c27r klauda et al 2004
   CC33A    CC32A    CC32A    CC32A     9   180.000000     0.340285     3 ; alkane, c27r klauda et al 2004
   CC33A    CC32A    CC32A    CC32A     9     0.000000     0.629734     2 ; alkane, c27r klauda et al 2004
   CC32A    CC32A    CC32A    CC32A     9     0.000000     0.470742     5 ; alkane, c27r klauda et al 2004
   CC32A    CC32A    CC32A    CC32A     9     0.000000     0.395723     4 ; alkane, c27r klauda et al.2004
   CC32A    CC32A    CC32A    CC32A     9   180.000000     0.626554     3 ; alkane, c27r klauda et al 2004
   CC32A    CC32A    CC32A    CC32A     9     0.000000     0.269868     2 ; alkane, c27r klauda et al 2004
   CC33A   CC325A   CC325A    CC33A     9     0.000000     0.669440     3 ; alkane, 4/98, yin and mackerell, cpen, viv
   CC33A   CC325A   CC325A   CC325A     9     0.000000     0.669440     3 ; alkane, 4/98, yin and mackerell, cpen, viv
   CC33A   CC325A   CC325A   HCA25A     9     0.000000     0.669440     3 ; alkane, 4/98, yin and mackerell, cpen, viv
  HCA25A   CC325A   CC325A   HCA25A     9     0.000000     0.669440     3 ; alkane, 4/98, yin and mackerell, cpen, viv
  CC325A   CC325A   CC325A   HCA25A     9     0.000000     0.669440     3 ; alkane, 4/98, yin and mackerell, cpen, viv
  CC325A   CC325A   CC325A   CC325A     9   180.000000     1.715440     3 ; cpen, cyclopentane, viv 10/4/05
   CC33A   CC325B   CC325B    CC33A     9     0.000000     0.794960     3 ; alkane, 4/98, yin and mackerell, thf, viv
   CC33A   CC325B   CC325B   CC325B     9     0.000000     0.794960     3 ; alkane, 4/98, yin and mackerell, thf, viv
   CC33A   CC325B   CC325B   HCA25A     9     0.000000     0.794960     3 ; alkane, 4/98, yin and mackerell, thf, viv
  HCA25A   CC325B   CC325B   HCA25A     9     0.000000     0.794960     3 ; alkane, 4/98, yin and mackerell, thf, viv
  CC325B   CC325B   CC325B   HCA25A     9     0.000000     0.794960     3 ; alkane, 4/98, yin and mackerell, thf, viv
  OC305A   CC325B   CC325B   HCA25A     9     0.000000     0.794960     3 ; alkane, 4/98, yin and mackerell, thf viv
  HCA25A   CC325B    CC33A    HCA3A     9     0.000000     0.669440     3 ; alkane, 4/98, yin and mackerell, tf2m viv
  CC325B   CC325B    CC33A    HCA3A     9     0.000000     0.669440     3 ; alkane, 4/98, yin and mackerell, tf2m viv
  OC305A   CC325B    CC33A    HCA3A     9     0.000000     0.669440     3 ; alkane, 4/98, yin and mackerell, tf2m viv
  CC325B   CC325B   CC325B   CC325B     9   180.000000     1.715440     3 ; CPEN viv 10/4/05
  HCA25A   CC325B   OC305A   CC325B     9     0.000000     1.255200     3 ; THF, 05/30/06, viv
  OC305A   CC325B   CC325B   CC325B     9     0.000000     0.000000     3 ; THF, 05/30/06, viv
  CC325B   CC325B   OC305A   CC325B     9     0.000000     2.092000     3 ; THF, 05/30/06, viv
   CC33A   CC325B   OC305A   CC325B     9     0.000000     1.255200     3 ; THF, 05/30/06, viv
   CC33A   CC326A   CC326A    CC33A     9     0.000000     0.794960     3 ; alkane, 4/98, yin and mackerell, thp, viv
   CC33A   CC326A   CC326A   CC326A     9     0.000000     0.794960     3 ; alkane, 4/98, yin and mackerell, thp, viv
   CC33A   CC326A   CC326A    HCA2A     9     0.000000     0.794960     3 ; alkane, 4/98, yin and mackerell, thp, viv
   HCA2A   CC326A   CC326A    HCA2A     9     0.000000     0.794960     3 ; alkane, 4/98, yin and mackerell, thp, viv
   HCA2A   CC326A   CC326A   CC326A     9     0.000000     0.794960     3 ; alkane, 4/98, yin and mackerell, thp, viv
   OC30A   CC326A   CC326A    HCA2A     9     0.000000     0.794960     3 ; alkane, 4/98, yin and mackerell, thp viv
   HCA2A   CC326A    CC33A    HCA3A     9     0.000000     0.669440     3 ; alkane, 4/98, yin and mackerell, me-thp viv
  CC326A   CC326A    CC33A    HCA3A     9     0.000000     0.669440     3 ; alkane, 4/98, yin and mackerell, me-thp viv
   OC30A   CC326A    CC33A    HCA3A     9     0.000000     0.669440     3 ; alkane, 4/98, yin and mackerell, me-thp viv
  CC326A   CC326A   CC326A   CC326A     9     0.000000     2.084845     2 ; THP, viv
  CC326A   CC326A   CC326A   CC326A     9     0.000000    -2.503873     3 ; THP, viv
  CC326A   CC326A   CC326A   CC326A     9     0.000000     1.746653     4 ; THP, viv
  CC326A   CC326A   CC326A   CC326A     9     0.000000    -1.038845     5 ; THP, viv
   OC30A   CC326A   CC326A   CC326A     9     0.000000    -0.804374     1 ; THP, sng 1/06
   OC30A   CC326A   CC326A   CC326A     9     0.000000    -4.184000     2 ; THP, sng 1/06
   OC30A   CC326A   CC326A   CC326A     9     0.000000     2.487681     3 ; THP, sng 1/06
   OC30A   CC326A   CC326A   CC326A     9     0.000000    -0.328946     4 ; THP, sng 1/06
   HCA3A    CC33A    CC33A    HCA3A     9     0.000000     0.638060     3 ; ETHA, ethane,  4/98, yin and mackerell
  CC326A    OC30A   CC326A   CC326A     9     0.000000    -2.205052     1 ; THP, sng 1/06
  CC326A    OC30A   CC326A   CC326A     9     0.000000     2.857546     2 ; THP, sng 1/06
  CC326A    OC30A   CC326A   CC326A     9     0.000000    -0.877678     3 ; THP, sng 1/06
  CC326A    OC30A   CC326A   CC326A     9     0.000000     0.629148     4 ; THP, sng 1/06
  CC326A    OC30A   CC326A    HCA2A     9     0.000000     1.188256     3 ; DMET, viv
   HCA2A    CC32A    CC32A    OC30A     9     0.000000     0.794960     3 ; alkane, 4/98, yin and mackerell
   OC30A    CC32A    CC33A    HCA3A     9     0.000000     0.669440     3 ; alkane, 4/98, yin and mackerell
   HCA2A    CC32A    OC30A    CC32A     9     0.000000     1.188256     3 ; DEET, diethylether, alex
   HCA3A    CC33A    OC30A    CC32A     9     0.000000     1.188256     3 ; DEET, diethylether, alex
   HCA2A    CC32A    OC30A    CC33A     9     0.000000     1.188256     3 ; DEET, diethylether, alex
   HCA3A    CC33A    OC30A    CC33A     9     0.000000     1.188256     3 ; DME, viv
   CC33A    CC32A    OC30A    CC32A     9     0.000000     1.673600     1 ; diethylether, 2/12/05, ATM
   CC33A    CC32A    OC30A    CC32A     9     0.000000     2.050160     3 ; diethylether
   CC33A    CC32A    OC30A    CC33A     9     0.000000     1.673600     1 ; diethylether, 2/12/05, ATM, MEE viv
   CC33A    CC32A    OC30A    CC33A     9     0.000000     2.050160     3 ; diethylether, MEE viv
   CC32A    CC32A    OC30A    CC33A     9     0.000000     2.384880     1 ; 1,2 dimethoxyethane (DME), 2/12/05, ATM
   CC32A    CC32A    OC30A    CC33A     9     0.000000     1.213360     2 ; 1,2 dimethoxyethane (DME)
   CC32A    CC32A    OC30A    CC33A     9     0.000000     1.799120     3 ; 1,2 dimethoxyethane (DME)
   CC32A    CC32A    OC30A    CC32A     9     0.000000     2.384880     1 ; 1,2 dimethoxyethane, 2/12/05, ATM
   CC32A    CC32A    OC30A    CC32A     9     0.000000     1.213360     2 ; 1,2 dimethoxyethane
   CC32A    CC32A    OC30A    CC32A     9     0.000000     1.799120     3 ; 1,2 dimethoxyethane
   OC30A    CC32A    CC32A    OC30A     9   180.000000     2.468560     1 ; 1,2 dimethoxyethane, Aug 2007, HK Lee
   OC30A    CC32A    CC32A    OC30A     9     0.000000     4.853440     2 ; 1,2 dimethoxyethane
   OC30A    CC32A    CC32A    CC33A     9   180.000000     0.669440     1 ; methylpropylether, 2/12/05, ATM
   OC30A    CC32A    CC32A    CC33A     9     0.000000     1.631760     2 ; methylpropylether
   OC30A    CC32A    CC32A    CC32A     9   180.000000     0.669440     1 ; methylpropylether, 2/12/05, ATM
   OC30A    CC32A    CC32A    CC32A     9     0.000000     1.631760     2 ; methylpropylether

; specific (non-wildcard) dihedral parameters from toppar_c36_jul22/par_all36_carb.prm
;      i        j        k        l  func         phi0         kphi  mult
   CC312    CC312    CC312    CC2O3     9   180.000000     0.083680     1 ; erh ketone, n=6 polyol
   CC312    CC312    CC312    CC2O3     9     0.000000     0.251040     2 ; " RIMP2/cc-pVTZ//MP2/631gd
   CC312    CC312    CC312    CC2O3     9     0.000000    10.334480     3 ; " C2-C3-C4-C5
   CC312    CC312    CC2O3    CC322     9   180.000000     0.083680     1 ; erh ketone, n=6 polyol
   CC312    CC312    CC2O3    CC322     9     0.000000     0.251040     2 ; " RIMP2/cc-pVTZ//MP2/631gd
   CC312    CC312    CC2O3    CC322     9     0.000000    10.334480     3 ; " C2-C3-C4-C5
   CC2O3    CC312    CC312    OC311     9   180.000000    10.962080     1 ; erh ketone, fit psicose
   CC2O3    CC312    CC312    OC311     9   180.000000     1.171520     2 ; " RIMP2/cc-pVTZ//MP2/631gd
   CC2O3    CC312    CC312    OC311     9     0.000000     9.539520     3 ; " C2-C3-C4-O4
   CC312    CC312    CC2O3    OC2D3     9     0.000000     8.619040     1 ; erh ketone, fit psicose
   CC312    CC312    CC2O3    OC2D3     9     0.000000     0.543920     2 ; " RIMP2/cc-pVTZ//MP2/631gd
   CC312    CC312    CC2O3    OC2D3     9     0.000000    12.008080     3 ; " C4-C3-C2-O2
   CC312    CC2O3    CC322    OC311     9     0.000000    12.300960     1 ; erh ketone, fit psicose
   CC312    CC2O3    CC322    OC311     9   180.000000     6.192320     2 ; " RIMP2/cc-pVTZ//MP2/631gd
   CC312    CC2O3    CC322    OC311     9   180.000000     2.092000     3 ; " C3-C2-C1-O1
   CC322    CC2O3    CC322    OC311     9     0.000000     4.309520     1 ; erh ketone, fit psicose
   CC322    CC2O3    CC322    OC311     9   180.000000    10.208960     2 ; " RIMP2/cc-pVTZ//MP2/631gd
   CC322    CC2O3    CC322    OC311     9   180.000000     5.188160     3 ; " C1-C2-C3-O3
   CC322    CC2O3    CC312    OC311     9     0.000000     4.309520     1 ; erh ketone, fit psicose
   CC322    CC2O3    CC312    OC311     9   180.000000    10.208960     2 ; " RIMP2/cc-pVTZ//MP2/631gd
   CC322    CC2O3    CC312    OC311     9   180.000000     5.188160     3 ; " C1-C2-C3-O3
   OC2D3    CC2O3    CC312    OC311     9     0.000000     8.744560     1 ; erh ketone, fit psicose
   OC2D3    CC2O3    CC312    OC311     9   180.000000     0.711280     2 ; " RIMP2/cc-pVTZ//MP2/631gd
   OC2D3    CC2O3    CC312    OC311     9   180.000000     8.995600     3 ; " O2-C2-C3-O3
   OC2D3    CC2O3    CC322    OC311     9     0.000000    11.715200     1 ; erh ketone, fit psicose
   OC2D3    CC2O3    CC322    OC311     9   180.000000     3.138000     2 ; " RIMP2/cc-pVTZ//MP2/631gd
   OC2D3    CC2O3    CC322    OC311     9   180.000000     1.338880     3 ; " O2-C2-C1-O1
   CC331    CC2O3    CC331     HCA3     9     0.000000     0.418400     3 ; erh ketone RIMP2/cc-pVTZ//MP2/6-31G(d)
   CC2O3    CC312    CC312     HCA1     9     0.000000     0.418400     3 ; erh ketone RIMP2/cc-pVTZ//MP2/6-31G(d)
   CC322    CC2O3    CC312     HCA1     9     0.000000     0.418400     3 ; erh ketone RIMP2/cc-pVTZ//MP2/6-31G(d)
   CC312    CC2O3    CC322     HCA2     9     0.000000     0.418400     3 ; erh ketone RIMP2/cc-pVTZ//MP2/6-31G(d)
   CC322    CC2O3    CC322     HCA2     9     0.000000     0.418400     3 ; erh ketone RIMP2/cc-pVTZ//MP2/6-31G(d)
   OC2D3    CC2O3    CC331     HCA3     9     0.000000     0.000000     3 ; erh ketone RIMP2/cc-pVTZ//MP2/6-31G(d)
   OC2D3    CC2O3    CC322     HCA2     9     0.000000     0.000000     3 ; erh ketone RIMP2/cc-pVTZ//MP2/6-31G(d)
   OC2D3    CC2O3    CC312     HCA1     9     0.000000     0.000000     3 ; erh ketone RIMP2/cc-pVTZ//MP2/6-31G(d)
   CC2O3    CC312    OC311     HCP1     9     0.000000     1.464400     1 ; erh ketone, n=6 polyol
   CC2O3    CC312    OC311     HCP1     9     0.000000     1.548080     2 ; " RIMP2/cc-pVTZ//MP2/631gd
   CC2O3    CC312    OC311     HCP1     9   180.000000     0.794960     3 ; " C-C-O-H
   CC2O3    CC322    OC311     HCP1     9     0.000000     1.464400     1 ; erh ketone, n=6 polyol
   CC2O3    CC322    OC311     HCP1     9     0.000000     1.548080     2 ; " RIMP2/cc-pVTZ//MP2/631gd
   CC2O3    CC322    OC311     HCP1     9   180.000000     0.794960     3 ; " C-C-O-H
   CC312    CC312    CC312    CC2O4     9   180.000000     0.083680     1 ; erh aldehyde, n=6 polyol
   CC312    CC312    CC312    CC2O4     9     0.000000     0.251040     2 ; " RIMP2/cc-pVTZ//MP2/631gd
   CC312    CC312    CC312    CC2O4     9     0.000000    10.334480     3 ; " C2-C3-C4-C5
   CC312    CC312    CC2O4    OC2D4     9   180.000000     0.711280     1 ; erh aldehyde, fit allose
   CC312    CC312    CC2O4    OC2D4     9   180.000000     1.087840     2 ; " RIMP2/cc-pVTZ//MP2/631gd
   CC312    CC312    CC2O4    OC2D4     9   180.000000     4.351360     3 ; " C3-C2-C1-O1
   CC2O4    CC312    CC312    OC311     9     0.000000     4.811600     1 ; erh aldehyde, fit allose
   CC2O4    CC312    CC312    OC311     9     0.000000    12.552000     2 ; " RIMP2/cc-pVTZ//MP2/631gd
   CC2O4    CC312    CC312    OC311     9   180.000000     9.999760     3 ; " C1-C2-C3-O3
   OC2D4    CC2O4    CC312    OC311     9   180.000000     2.343040     1 ; erh aldehyde, fit allose
   OC2D4    CC2O4    CC312    OC311     9   180.000000     6.694400     2 ; " RIMP2/cc-pVTZ//MP2/631gd
   OC2D4    CC2O4    CC312    OC311     9     0.000000     3.891120     3 ; " O1-C1-C2-O2
    HCP1    OC311    CC312    CC2O4     9     0.000000     1.464400     1 ; erh aldehyde, n=6 polyol
    HCP1    OC311    CC312    CC2O4     9     0.000000     1.548080     2 ; " RIMP2/cc-pVTZ//MP2/631gd
    HCP1    OC311    CC312    CC2O4     9   180.000000     0.794960     3 ; " C-C-O-H
    HCR1    CC2O4    CC331     HCA3     9   180.000000     0.000000     3 ; acetaldehyde, adm
   OC2D4    CC2O4    CC331     HCA3     9   180.000000     0.836800     3 ; acetaldehyde, adm
   CC312    CC312    CC2O4     HCR1     9   180.000000     0.000000     6 ; aldehdye par22 X CT1 CD  X
   CC2O4    CC312    CC312     HCA1     9     0.000000     0.836800     3 ; aldehyde par22 X CT1 CT1 X
   OC2D4    CC2O4    CC312     HCA1     9   180.000000     0.000000     6 ; aldehdye par22 X CT1 CD  X
   OC311    CC312    CC2O4     HCR1     9   180.000000     0.000000     6 ; aldehdye par22 X CT1 CD  X
  CC3161   CC3161   CC3161   CC3162     9   180.000000     0.794960     3 ; og/sng cyclohexane
  CC3161   CC3161   CC3261   CC3062     9   180.000000     0.794960     3 ; og/sng cyclohexane
  CC3161   CC3161   CC3161   CC3163     9   180.000000     0.794960     3 ; og/sng cyclohexane
  CC3161   CC3161   CC3161   CC3263     9   180.000000     0.794960     3 ; og/sng cyclohexane
  CC3261   CC3161   CC3161   CC3163     9   180.000000     0.794960     3 ; og/sng cyclohexane
  CC3161   CC3161   CC3163    CC321     9     0.000000     0.836800     3 ; par27 X CTL1 CTL1 X
  CC3161   CC3161   CC3163    CC331     9     0.000000     0.836800     3 ; par27 X CTL1 CTL1 X
  CC3161   CC3161   CC3163    CC2O2     9     0.000000     0.836800     3 ; par27 X CTL1 CTL1 X
  CC3161   CC3261   CC3062    CC2O2     9     0.000000     0.836800     3 ; par27 X CTL1 CTL2 X
  CC3163    CC312    CC312    CC322     9     0.000000     0.836800     3 ; par27 X CTL1 CTL1 X
  CC3161   CC3161   CC3163    CC312     9     0.000000     0.836800     3 ; par27 X CTL1 CTL1 X
  CC3161   CC3163    CC312    CC312     9     0.000000     0.836800     3 ; par27 X CTL1 CTL1 X
   CC312    CC312    CC312    CC322     9   180.000000     0.083680     1 ; erh n=6 polyol
   CC312    CC312    CC312    CC322     9     0.000000     0.251040     2 ; " RIMP2/cc-pVTZ//MP2/631gd
   CC312    CC312    CC312    CC322     9     0.000000    10.334480     3 ; " C2-C3-C4-C5
   CC322    CC312    CC312    CC322     9   180.000000     0.083680     1 ; erh glycerol, n=6 polyol
   CC322    CC312    CC312    CC322     9     0.000000     0.251040     2 ; " RIMP2/cc-pVTZ//MP2/631gd
   CC322    CC312    CC312    CC322     9     0.000000    10.334480     3 ; " C2-C3-C4-C5
   CC312    CC312    CC312    CC312     9   180.000000     0.083680     1 ; erh n=6 polyol
   CC312    CC312    CC312    CC312     9     0.000000     0.251040     2 ; " RIMP2/cc-pVTZ//MP2/631gd
   CC312    CC312    CC312    CC312     9     0.000000    10.334480     3 ; " C2-C3-C4-C5
  CC3161   CC3161   CC3161   CC3161     9   180.000000     9.665040     3 ; erh fit inositol RIMP2/cc-pVTZ//MP2/631gd C1-C2-C3-C4
  CC311C   CC321C   CC321C   CC321C     9   180.000000     0.794960     3 ; og/sng cyclohexane
  CC321C   CC311C   CC321C   CC321C     9   180.000000     0.794960     3 ; og/sng cyclohexane
  CC321C   CC321C   CC321C   CC321C     9   180.000000     0.794960     3 ; og/sng cyclohexane
  CC321D   CC321C   CC311C   CC321C     9   180.000000     0.794960     3 ; og/sng cyclohexane
  CC321D   CC321C   CC321C   CC321C     9   180.000000     0.794960     3 ; og/sng cyclohexane
  CC321D   CC321C   CC321C   CC311C     9   180.000000     0.794960     3 ; og/sng cyclohexane
  CC321D   CC311C   CC321C   CC321C     9   180.000000     0.794960     3 ; og/sng cyclohexane
  CC311D   CC321C   CC321C   CC321C     9   180.000000     0.794960     3 ; og/sng cyclohexane
  CC3162   CC3163   CC3161   CC3161     9   180.000000     0.794960     3 ; og/sng cyclohexane
   CC321   CC311C   CC321C   CC321C     9     0.000000     0.836800     3 ; par27 X CTL1 CTL2 X og preserve ring def energy
  CC3161   CC3161   CC3162   OC3C61     9   180.000000     1.297040     3 ; og/sng thp
  CC3161   CC3261   CC3062   OC3C61     9   180.000000     1.297040     3 ; og/sng thp
  CC3161   CC3161   CC3163   OC3C61     9   180.000000     1.297040     3 ; og/sng thp
  CC3161   CC3161   CC3263   OC3C61     9   180.000000     1.297040     3 ; og/sng thp
  CC3161   CC3161   CC3161    OC311     9     0.000000     0.836800     3 ; par27 X CTL1 CTL1 X
  CC3161   CC3161   CC3162    OC311     9     0.000000     0.836800     3 ; par27 X CTL1 CTL1 X
  CC3161   CC3163    CC312    OC311     9     0.000000     0.836800     3 ; par27 X CTL1 CTL1 X
  CC3161   CC3163    CC321    OC311     9     0.000000     0.836800     3 ; par27 X CTL1 CTL2 X
  CC3161   CC3261   CC3062    OC311     9     0.000000     0.836800     3 ; par27 X CTL1 CTL2 X
  CC3162   CC3161   CC3161    OC311     9     0.000000     0.836800     3 ; par27 X CTL1 CTL1 X
  CC3062   CC3261   CC3161    OC311     9     0.000000     0.836800     3 ; par27 X CTL1 CTL2 X
  CC3163   CC3161   CC3161    OC311     9     0.000000     0.836800     3 ; par27 X CTL1 CTL1 X
  CC3163    CC312    CC312    OC311     9     0.000000     0.836800     3 ; par27 X CTL1 CTL1 X
  CC3263   CC3161   CC3161    OC311     9     0.000000     0.836800     3 ; par27 X CTL1 CTL1 X
   CC321   CC3163   CC3161    OC311     9     0.000000     0.836800     3 ; par27 X CTL1 CTL1 X
   CC331   CC3163   CC3161    OC311     9     0.000000     0.836800     3 ; par27 X CTL1 CTL1 X
   CC331   CC3163   CC3161    OC301     9     0.000000     0.836800     3 ; CC331   CC3163  CC3161  OC311, pram
   CC2O2   CC3163   CC3161    OC311     9     0.000000     0.836800     3 ; par27 X CTL1 CTL1 X
   CC2O2   CC3163   CC3161    OC301     9     0.000000     0.836800     3 ; par27 X CTL1 CTL1 X
   CC321   CC3163   CC3161    OC301     9     0.000000     0.836800     3 ; par27 X CTL1 CTL1 X
  CC3161   CC3161   CC3161    OC301     9     0.000000     0.836800     3 ; par27 X CTL1 CTL1 X
  CC3161   CC3161   CC3162    OC301     9     0.000000     0.836800     3 ; par27 X CTL1 CTL1 X
  CC3161   CC3161   CC3162    OC302     9     0.000000     0.836800     3 ; par27 X CTL1 CTL1 X
  CC3162   CC3161   CC3161    OC301     9     0.000000     0.836800     3 ; par27 X CTL1 CTL1 X
  CC3163   CC3161   CC3161    OC301     9     0.000000     0.836800     3 ; par27 X CTL1 CTL1 X
   CC312    CC312   CC3163   OC3C61     9     0.000000     0.836800     3 ; par27 X CTL1 CTL1 X
   CC321    CC321    CC321    OC301     9     0.000000     0.794960     3 ; par27 X CTL2 CTL2 X
   CC322    CC312    CC312    OC311     9     0.000000     1.464400     1 ; erh n=6 polyol
   CC322    CC312    CC312    OC311     9     0.000000     2.886960     2 ; " RIMP2/cc-pVTZ//MP2/631gd
   CC322    CC312    CC312    OC311     9   180.000000    11.673360     3 ; " C1-C2-C3-O3
   CC312    CC312    CC322    OC311     9     0.000000     1.464400     1 ; erh n=6 polyol
   CC312    CC312    CC322    OC311     9     0.000000     2.886960     2 ; " RIMP2/cc-pVTZ//MP2/631gd
   CC312    CC312    CC322    OC311     9   180.000000    11.673360     3 ; " C3-C2-C1-O1
   CC312    CC312    CC312    OC311     9     0.000000     1.464400     1 ; erh n=6 polyol
   CC312    CC312    CC312    OC311     9     0.000000     2.886960     2 ; " RIMP2/cc-pVTZ//MP2/631gd
   CC312    CC312    CC312    OC311     9   180.000000    11.673360     3 ; " C4-C3-C2-O2
   CC322    CC312    CC322    OC311     9     0.000000     1.464400     1 ; erh glycerol, n=6 polyol
   CC322    CC312    CC322    OC311     9     0.000000     2.886960     2 ; " RIMP2/cc-pVTZ//MP2/631gd
   CC322    CC312    CC322    OC311     9   180.000000    11.673360     3 ; " C1-C2-C3-O3
  CC3161   CC3163    CC2O2    OC2D2     9   180.000000     0.209200     6 ; par22 X CT1 CC X
   OC2D2    CC2O2    CC311    CC331     9   180.000000     0.209200     6 ; par22 X CT1 CC X
   OC2D2    CC2O2    CC301    CC331     9   180.000000     0.209200     6 ; par22 X CT1 CC X
   OC2D2    CC2O2   CC3062   CC3261     9   180.000000     0.209200     6 ; par22 X CT1 CC X
  CC321C   CC321C   CC321C   OC3C61     9   180.000000     1.297040     3 ; og/sng thp
  CC321C   CC321C   CC311C   OC3C61     9   180.000000     1.297040     3 ; og/sng thp
  CC321C   CC311C   CC321C   OC3C61     9   180.000000     1.297040     3 ; og/sng thp
  CC321C   CC321C   CC321D   OC3C61     9   180.000000     1.297040     3 ; og/sng thp
  CC321C   CC311C   CC321D   OC3C61     9   180.000000     1.297040     3 ; og/sng thp
  CC321C   CC321C   CC311D   OC3C61     9   180.000000     1.297040     3 ; og/sng thp
  CC311C   CC321C   CC321C   OC3C61     9   180.000000     1.297040     3 ; og/sng thp
  CC311C   CC321C   CC321D   OC3C61     9   180.000000     1.297040     3 ; og/sng thp
   OC301   CC311C   CC321C   CC321C     9     0.000000     0.836800     3 ; par27 X CTL1 CTL2 X
   OC301   CC311C   CC321C   CC321D     9     0.000000     0.836800     3 ; par27 X CTL1 CTL2 X
   OC301   CC311D   CC321C   CC321C     9     0.000000     0.836800     3 ; par27 X CTL1 CTL2 X
   OC302   CC311D   CC321C   CC321C     9     0.000000     0.836800     3 ; par27 X CTL1 CTL2 X
   OC2D2    CC2O2    CC321    CC331     9   180.000000     0.209200     6 ; par22 X CT2  CC   X
  CC321C   CC311C    CC321    OC301     9   180.000000     4.602400     1 ; og compounds 11 and 12
  CC321C   CC311C    CC321    OC301     9   180.000000     0.292880     2 ; "  MCSA fit
  CC321C   CC311C    CC321    OC301     9     0.000000     0.627600     3 ; "  MP2/cc-pVTZ//MP2/6-31G*
  CC3161   CC3163    CC321    OC301     9   180.000000     2.092000     1 ; dpatel, modified
  CC3161   CC3163    CC321    OC301     9   180.000000     1.548080     2 ; LS fit
  CC3161   CC3163    CC321    OC301     9     0.000000     0.627600     3 ; 
   NC2D1   CC3161   CC3161   CC3161     9     0.000000     0.836800     3 ; par27 X CTL1 CTL1 X
   NC2D1   CC3161   CC3161   CC3261     9     0.000000     0.836800     3 ; par27 X CTL1 CTL1 X, reinstated og, 2021
   CC312   CC3163   CC3161    NC2D1     9     0.000000     0.836800     3 ; par27 X CTL1 CTL1 X, reinstated og, 2021
  CC3161   CC3162   OC3C61   CC3163     9     0.000000     0.836800     3 ; og/sng thp
  CC3161   CC3162   OC3C61   CC3263     9     0.000000     0.836800     3 ; og/sng thp
  CC3161   CC3163   OC3C61   CC3162     9     0.000000     0.836800     3 ; og/sng thp
  CC3161   CC3163   OC3C61   CC3062     9     0.000000     0.836800     3 ; og/sng thp
  CC3161   CC3263   OC3C61   CC3162     9     0.000000     0.836800     3 ; og/sng thp
   CC321   CC3163   OC3C61   CC3162     9     0.000000     0.836800     3 ; og/sng thp
   CC312   CC3163   OC3C61   CC3062     9     0.000000     0.836800     3 ; og/sng thp
   CC331   CC3163   OC3C61   CC3162     9     0.000000     0.836800     3 ; og/sng thp
   CC2O2   CC3163   OC3C61   CC3162     9     0.000000     0.836800     3 ; og/sng thp
   CC2O2   CC3062   OC3C61   CC3163     9     0.000000     0.836800     3 ; og/sng thp
   CC331    OC301    CC311    CC331     9     0.000000     1.673600     1 ; par35
   CC331    OC301    CC311    CC331     9     0.000000     2.050160     3 ; " CC33A CC32A OC30A CC33A
   CC331    OC301    CC301    CC331     9     0.000000     1.673600     1 ; par35
   CC331    OC301    CC301    CC331     9     0.000000     2.050160     3 ; " CC33A CC32A OC30A CC33A
  CC3162    OC301    CC321    CC321     9     0.000000     1.673600     1 ; par35
  CC3162    OC301    CC321    CC321     9     0.000000     2.050160     3 ; " CC33A CC32A OC30A CC32A
   CC2O2    CC301    OC301    CC331     9     0.000000     0.836800     3 ; og/sng thp CC321C CC321C OC3C61 CC321C
   CC2O2    CC311    OC301    CC331     9     0.000000     0.836800     3 ; og/sng thp CC321C CC321C OC3C61 CC321C
  CC3261   CC3062   OC3C61   CC3163     9     0.000000     0.836800     3 ; og/sng thp
  CC311C   CC321C   OC3C61   CC321D     9     0.000000     0.836800     3 ; og/sng thp
  CC321C   CC321C   OC3C61   CC321C     9     0.000000     0.836800     3 ; og/sng thp
  CC321C   CC321C   OC3C61   CC321D     9     0.000000     0.836800     3 ; og/sng thp
  CC321C   CC321D   OC3C61   CC311C     9     0.000000     0.836800     3 ; og/sng thp
  CC321C   CC321C   OC3C61   CC311D     9     0.000000     0.836800     3 ; og/sng thp
  CC321C   CC321D   OC3C61   CC321C     9     0.000000     0.836800     3 ; og/sng thp
  CC311C   CC321D   OC3C61   CC321C     9     0.000000     0.836800     3 ; og/sng thp
  CC321C   CC311C   OC3C61   CC321D     9     0.000000     0.836800     3 ; og/sng thp
  CC321C   CC311D   OC3C61   CC321C     9     0.000000     0.836800     3 ; og/sng thp
  CC321C   CC311D    OC301    CC331     9     0.000000     0.920480     1 ; og OMeTHP compounds 2 and 3
  CC321C   CC311D    OC301    CC331     9   180.000000     1.171520     2 ; "  MCSA fit
  CC321C   CC311D    OC301    CC331     9     0.000000     3.723760     3 ; "  MP2/cc-pVTZ//MP2/6-31G*
  CC3161   CC3162    OC301    CC331     9     0.000000     0.920480     1 ; og OMeTHP compounds 2 and 3
  CC3161   CC3162    OC301    CC331     9   180.000000     1.171520     2 ; "  MCSA fit
  CC3161   CC3162    OC301    CC331     9     0.000000     3.723760     3 ; "  MP2/cc-pVTZ//MP2/6-31G*
  CC3161   CC3162    OC301    CC321     9     0.000000     0.920480     1 ; og OMeTHP compounds 2 and 3
  CC3161   CC3162    OC301    CC321     9   180.000000     1.171520     2 ; "  MCSA fit
  CC3161   CC3162    OC301    CC321     9     0.000000     3.723760     3 ; "  MP2/cc-pVTZ//MP2/6-31G*
  CC321C   CC311D    OC302   CC311D     9     0.000000     3.054320     1 ; og THP-1-O-1-THP
  CC321C   CC311D    OC302   CC311D     9   180.000000     2.552240     2 ; "  MCSA fit
  CC321C   CC311D    OC302   CC311D     9   180.000000     0.000000     3 ; "  MP2/cc-pVTZ//MP2/6-31G*
  CC3161   CC3162    OC302   CC3162     9     0.000000     3.054320     1 ; og THP-1-O-1-THP
  CC3161   CC3162    OC302   CC3162     9   180.000000     2.552240     2 ; "  MCSA fit
  CC3161   CC3162    OC302   CC3162     9   180.000000     0.000000     3 ; "  MP2/cc-pVTZ//MP2/6-31G*
  CC321C   CC311D    OC301   CC311C     9   180.000000     1.715440     1 ; og THP-1-O-2-CYHX
  CC321C   CC311D    OC301   CC311C     9   180.000000     2.761440     2 ; "  MCSA fit
  CC321C   CC311D    OC301   CC311C     9     0.000000     6.694400     3 ; "  MP2/cc-pVTZ//MP2/6-31G*
  CC3161   CC3162    OC301   CC3161     9   180.000000     1.715440     1 ; og THP-1-O-2-CYHX
  CC3161   CC3162    OC301   CC3161     9   180.000000     2.761440     2 ; "  MCSA fit
  CC3161   CC3162    OC301   CC3161     9     0.000000     6.694400     3 ; "  MP2/cc-pVTZ//MP2/6-31G*
  CC321D   CC311C    OC301   CC311D     9   180.000000     0.543920     1 ; og THP-1-O-2-CYHX
  CC321D   CC311C    OC301   CC311D     9   180.000000     1.046000     2 ; "  MCSA fit
  CC321D   CC311C    OC301   CC311D     9   180.000000     0.251040     3 ; "  MP2/cc-pVTZ//MP2/6-31G*
  CC3162   CC3161    OC301   CC3162     9   180.000000     0.543920     1 ; og THP-1-O-2-CYHX
  CC3162   CC3161    OC301   CC3162     9   180.000000     1.046000     2 ; "  MCSA fit
  CC3162   CC3161    OC301   CC3162     9   180.000000     0.251040     3 ; "  MP2/cc-pVTZ//MP2/6-31G*
  CC321C   CC311C    OC301   CC311D     9   180.000000     0.543920     1 ; og THP-1-O-2-CYHX
  CC321C   CC311C    OC301   CC311D     9   180.000000     1.046000     2 ; "  MCSA fit
  CC321C   CC311C    OC301   CC311D     9   180.000000     0.251040     3 ; "  MP2/cc-pVTZ//MP2/6-31G*
  CC3161   CC3161    OC301   CC3162     9   180.000000     0.543920     1 ; og THP-1-O-2-CYHX
  CC3161   CC3161    OC301   CC3162     9   180.000000     1.046000     2 ; "  MCSA fit
  CC3161   CC3161    OC301   CC3162     9   180.000000     0.251040     3 ; "  MP2/cc-pVTZ//MP2/6-31G*
  CC3163   CC3161    OC301   CC3162     9   180.000000     0.543920     1 ; og THP-1-O-2-CYHX
  CC3163   CC3161    OC301   CC3162     9   180.000000     1.046000     2 ; "  MCSA fit
  CC3163   CC3161    OC301   CC3162     9   180.000000     0.251040     3 ; "  MP2/cc-pVTZ//MP2/6-31G*
  CC321D   OC3C61   CC311C    CC321     9     0.000000     1.188256     3 ; from CC321C OC3C61 CC311D HCA1
  CC311C    CC321    OC301    CC331     9   180.000000     2.677760     1 ; og compounds 11 and 12
  CC311C    CC321    OC301    CC331     9   180.000000     0.125520     2 ; "  MCSA fit
  CC311C    CC321    OC301    CC331     9     0.000000     2.552240     3 ; "  MP2/cc-pVTZ//MP2/6-31G*
  CC3163    CC321    OC301   CC3162     9   180.000000     2.677760     1 ; og compounds 11 and 12
  CC3163    CC321    OC301   CC3162     9   180.000000     0.125520     2 ; "  MCSA fit
  CC3163    CC321    OC301   CC3162     9     0.000000     2.552240     3 ; "  MP2/cc-pVTZ//MP2/6-31G*
   OC311   CC3161   CC3161    OC311     9   180.000000    11.087600     1 ; og ethylene glycol combo
   OC311   CC3161   CC3161    OC311     9     0.000000     0.000000     2 ; "
   OC311   CC3161   CC3161    OC311     9   180.000000     0.543920     3 ; "
   OC311   CC3162   CC3161    OC311     9   180.000000    11.087600     1 ; og ethylene glycol combo
   OC311   CC3162   CC3161    OC311     9     0.000000     0.000000     2 ; "
   OC311   CC3162   CC3161    OC311     9   180.000000     0.543920     3 ; "
   OC301   CC3162   CC3161    OC311     9   180.000000    11.087600     1 ; og ethylene glycol combo
   OC301   CC3162   CC3161    OC311     9     0.000000     0.000000     2 ; "
   OC301   CC3162   CC3161    OC311     9   180.000000     0.543920     3 ; "
   OC302   CC3162   CC3161    OC311     9   180.000000    11.087600     1 ; og ethylene glycol combo
   OC302   CC3162   CC3161    OC311     9     0.000000     0.000000     2 ; "
   OC302   CC3162   CC3161    OC311     9   180.000000     0.543920     3 ; "
   OC301   CC3161   CC3161    OC311     9   180.000000    11.087600     1 ; og ethylene glycol combo
   OC301   CC3161   CC3161    OC311     9     0.000000     0.000000     2 ; "
   OC301   CC3161   CC3161    OC311     9   180.000000     0.543920     3 ; "
   OC301   CC3161   CC3162    OC311     9   180.000000    11.087600     1 ; og ethylene glycol combo
   OC301   CC3161   CC3162    OC311     9     0.000000     0.000000     2 ; "
   OC301   CC3161   CC3162    OC311     9   180.000000     0.543920     3 ; "
   OC301   CC3161   CC3162    OC301     9   180.000000     2.468560     1 ; par35 OC30A CC32A CC32A OC30A
   OC301   CC3161   CC3162    OC301     9     0.000000     4.853440     2 ; " og/rmv RESMOR and FABYOW10
   OC311    CC312    CC322    OC311     9   180.000000     5.606560     1 ; erh n=6 polyol
   OC311    CC312    CC322    OC311     9     0.000000     4.978960     2 ; " RIMP2/cc-pVTZ//MP2/631gd
   OC311    CC312    CC322    OC311     9     0.000000    10.794720     3 ; " O2-C2-C1-O1
   OC311    CC312    CC312    OC311     9   180.000000     5.606560     1 ; erh n=6 polyol
   OC311    CC312    CC312    OC311     9     0.000000     4.978960     2 ; " RIMP2/cc-pVTZ//MP2/631gd
   OC311    CC312    CC312    OC311     9     0.000000    10.794720     3 ; " O2-C2-C3-O3
   OC301   CC3161   CC3162   OC3C61     9   180.000000    11.506000     1 ; from
   OC301   CC3161   CC3162   OC3C61     9   180.000000     1.087840     2 ; " OC311 CC3161 CC3162 OC3C61
   OC301   CC3161   CC3162   OC3C61     9     0.000000     0.418400     3 ; "
   OC301   CC3161   CC3163   OC3C61     9   180.000000     5.690240     1 ; from
   OC301   CC3161   CC3163   OC3C61     9     0.000000     0.669440     2 ; " OC311 CC3161 CC3163 OC3C61
   OC301   CC3161   CC3163   OC3C61     9     0.000000     4.225840     3 ; "
   OC2D2    CC2O2    CC311    OC301     9   180.000000     2.677760     2 ; og amop mp2/ccpvtz
   OC301    CC301    CC2O2    OC2D2     9   180.000000     2.677760     2 ; og amop mp2/ccpvtz
  OC3C61   CC3163    CC2O2    OC2D2     9   180.000000     2.677760     2 ; og amop mp2/ccpvtz
  OC3C61   CC3062    CC2O2    OC2D2     9   180.000000     2.677760     2 ; from OC301 CC301 CC2O2 OC2D2
   OC311    CC301    CC2O2    OC2D2     9   180.000000     4.644240     2 ; og amol mp2/ccpvtz
   OC311   CC3062    CC2O2    OC2D2     9   180.000000     4.644240     2 ; from OC311 CC301 CC2O2 OC2D2
  OC311M    CC321    CC321   OC311M     9     0.000000     1.380720     1 ; og ethylene glycol combo_star
  OC311M    CC321    CC321   OC311M     9     0.000000     9.079280     2 ; "  *** ONLY for RESI EGLY ***
  OC311M    CC321    CC321   OC311M     9     0.000000     1.882800     3 ; "  use "combo" for all else
   OC301   CC311C   CC321C   OC3C61     9     0.000000     0.836800     3 ; par27 X CTL1 CTL2 X
   OC301   CC311C   CC321D   OC3C61     9     0.000000     0.836800     3 ; par27 X CTL1 CTL2 X
   OC301    CC321   CC311C   OC3C61     9   180.000000     8.075120     1 ; og compounds 11 and 12
   OC301    CC321   CC311C   OC3C61     9     0.000000     1.799120     2 ; "  MCSA fit
   OC301    CC321   CC311C   OC3C61     9   180.000000     0.502080     3 ; "  MP2/cc-pVTZ//MP2/6-31G*
   OC301    CC321   CC3163   OC3C61     9   180.000000     6.236670     1 ; dpatel modified by LS fitting
   OC301    CC321   CC3163   OC3C61     9     0.000000     1.572766     2 ; "
   OC301    CC321   CC3163   OC3C61     9     0.000000     2.475254     3 ; "
    HCP1    OC311   CC3161     HCA1     9     0.000000     0.753120     3 ; og methanol
    HCP1    OC311   CC3162     HCA1     9     0.000000     0.753120     3 ; og methanol
    HCP1    OC311    CC321     HCA2     9     0.000000     0.753120     3 ; og methanol
    HCP1    OC311    CC322     HCA2     9     0.000000     0.753120     3 ; og methanol
    HCP1    OC311    CC312     HCA1     9     0.000000     0.753120     3 ; og methanol
    HCA3    CC331   OC311M     HCP1     9     0.000000     0.753120     3 ; og methanol
    HCA2    CC321   OC311M     HCP1     9     0.000000     0.753120     3 ; og methanol
    HCA2    CC321   OC311M    HCP1M     9     0.000000     0.753120     3 ; og methanol for egly
    HCA1    CC311   OC311M     HCP1     9     0.000000     0.753120     3 ; og methanol
    HCA1   CC3161   CC3161    OC311     9     0.000000     0.585760     3 ; og ethanol
    HCA1   CC3161   CC3162    OC311     9     0.000000     0.585760     3 ; og ethanol
    HCA2   CC3261   CC3161    OC311     9     0.000000     0.585760     3 ; og ethanol
    HCA2   CC3261   CC3062    OC311     9     0.000000     0.585760     3 ; og ethanol
    HCA1   CC3162   CC3161    OC311     9     0.000000     0.585760     3 ; og ethanol
    HCA1   CC3163   CC3161    OC311     9     0.000000     0.585760     3 ; og ethanol
    HCA1   CC3163    CC321    OC311     9     0.000000     0.585760     3 ; og ethanol
    HCA1   CC3163    CC312    OC311     9     0.000000     0.585760     3 ; og ethanol
    HCA2   CC3263   CC3161    OC311     9     0.000000     0.585760     3 ; og ethanol
    HCA3    CC331    CC301    OC311     9     0.000000     0.585760     3 ; og ethanol
    HCA1   CC3161   CC3163   OC3C61     9     0.000000     0.836800     3 ; par27 X CTL1 CTL1 X
    HCA1   CC3161   CC3263   OC3C61     9     0.000000     0.836800     3 ; par27 X CTL1 CTL2 X
    HCA1   CC3161   CC3162   OC3C61     9     0.000000     0.836800     3 ; par27 X CTL1 CTL1 X
    HCA2   CC3261   CC3062   OC3C61     9     0.000000     0.836800     3 ; par27 X CTL1 CTL2 X
    HCA1   CC3161   CC3162    OC301     9     0.000000     0.836800     3 ; par27 X CTL1 CTL1 X
    HCA1   CC3161   CC3162    OC302     9     0.000000     0.836800     3 ; par27 X CTL1 CTL1 X
    HCA1    CC312   CC3163   OC3C61     9     0.000000     0.836800     3 ; par27 X CTL1 CTL1 X
    HCA2    CC321   CC3163   OC3C61     9     0.000000     0.836800     3 ; par27 X CTL1 CTL2 X
    HCA3    CC331   CC3163   OC3C61     9     0.000000     0.836800     3 ; par27 X CTL1 CTL3 X
    HCA3    CC331    CC311    OC301     9     0.000000     0.836800     3 ; par27 X CTL1 CTL3 X
    HCA3    CC331    CC301    OC301     9     0.000000     0.836800     3 ; par27 X CTL1 CTL3 X
    HCA2    CC321    CC321    OC301     9     0.000000     0.794960     3 ; par27 X CTL2 CTL2 X
    HCA1    CC311    CC2O2    OC2D2     9   180.000000     0.209200     6 ; par22 X CT1  CC   X
    HCA1   CC3163    CC2O2    OC2D2     9   180.000000     0.209200     6 ; par22 X CT1  CC   X
    HCA3    CC331    CC2O1    OC2D1     9   180.000000     0.000000     3 ; par22 O C    CT3  HA
    HCA2    CC322    CC312    OC311     9     0.000000     0.585760     3 ; og ethanol
    HCA1    CC312    CC322    OC311     9     0.000000     0.585760     3 ; og ethanol
    HCA1    CC312    CC312    OC311     9     0.000000     0.585760     3 ; og ethanol
  OC311M    CC321    CC331     HCA3     9     0.000000     0.585760     3 ; og ethanol
  OC311M    CC311    CC331     HCA3     9     0.000000     0.585760     3 ; og ethanol
  OC311M    CC321    CC321     HCA2     9     0.000000     0.585760     3 ; og ethanol
  OC3C61   CC321C   CC321C     HCA2     9     0.000000     0.669440     3 ; thp H-Cring-Cring-O
  OC3C61   CC321D   CC321C     HCA2     9     0.000000     0.669440     3 ; thp H-Cring-Cring-O
  OC3C61   CC311C   CC321C     HCA2     9     0.000000     0.836800     3 ; par27 X CTL1 CTL2 X
  OC3C61   CC311D   CC321C     HCA2     9     0.000000     0.836800     3 ; par27 X CTL1 CTL2 X
  OC3C61   CC311C    CC321     HCA2     9     0.000000     0.836800     3 ; par27 X CTL1 CTL2 X
  OC3C61   CC321C   CC311C     HCA1     9     0.000000     0.836800     3 ; par27 X CTL1 CTL1 X
  OC3C61   CC321D   CC311C     HCA1     9     0.000000     0.836800     3 ; par27 X CTL1 CTL2 X
   OC301   CC311D   CC321C     HCA2     9     0.000000     0.836800     3 ; par27 X CTL1 CTL2 X
   OC302   CC311D   CC321C     HCA2     9     0.000000     0.836800     3 ; par27 X CTL1 CTL2 X
   OC301   CC311C   CC321C     HCA2     9     0.000000     0.836800     3 ; par27 X CTL1 CTL2 X
   OC301    CC321   CC311C     HCA1     9     0.000000     0.836800     3 ; par27 X CTL1 CTL2 X
   OC301    CC321   CC3163     HCA1     9     0.000000     0.836800     3 ; par27 X CTL1 CTL2 X
   OC301   CC3161   CC3161     HCA1     9     0.000000     0.836800     3 ; par27 X CTL1 CTL1 X
   OC301   CC311C   CC321D     HCA2     9     0.000000     0.836800     3 ; par27 X CTL1 CTL2 X
   OC301   CC3161   CC3162     HCA1     9     0.000000     0.836800     3 ; par27 X CTL1 CTL1 X
   OC301   CC3161   CC3163     HCA1     9     0.000000     0.836800     3 ; par27 X CTL1 CTL1 X
    HCA2    CC321    CC2O2    OC2D2     9   180.000000     0.209200     6 ; par22 X CT2  CC   X
    HCA1   CC3161   CC3161    NC2D1     9     0.000000     0.836800     3 ; par27 X CTL1 CTL1 X
    HCA1   CC3162   CC3161    NC2D1     9     0.000000     0.836800     3 ; par27 X CTL1 CTL1 X
    HCA1   CC3163   CC3161    NC2D1     9     0.000000     0.836800     3 ; par27 X CTL1 CTL1 X
   NC2D1    CC311    CC331     HCA3     9     0.000000     0.836800     3 ; par27 X CTL1 CTL3 X
   NC2D1    CC2O1    CC331     HCA3     9     0.000000     0.000000     3 ; par22 NH1 C CT3 HA
   OC301   CC3162   CC3161    NC2D1     9     0.000000     0.836800     3 ; par27 X CTL1 CTL1 X
   OC302   CC3162   CC3161    NC2D1     9     0.000000     0.836800     3 ; par27 X CTL1 CTL1 X
   OC311   CC3162   CC3161    NC2D1     9     0.000000     0.836800     3 ; par27 X CTL1 CTL1 X
   OC301   CC3161   CC3161    NC2D1     9     0.000000     0.836800     3 ; par27 X CTL1 CTL1 X
   OC311   CC3161   CC3161    NC2D1     9     0.000000     0.836800     3 ; par27 X CTL1 CTL1 X
  OC3C61   CC3162   CC3161    NC2D1     9     0.000000     0.836800     3 ; par27 X CTL1 CTL1 X
  OC3C61   CC3163   CC3161    NC2D1     9     0.000000     0.836800     3 ; par27 X CTL1 CTL1 X, reinstated og, 2021
   OC2D1    CC2O1    NC2D1    CC311     9   180.000000    10.460000     2 ; par22 O C NH1 CT1
   OC2D1    CC2O1    NC2D1   CC3161     9   180.000000    10.460000     2 ; par22 O C NH1 CT1
   OC2D1    CC2O1    NC2D1    CC331     9   180.000000    10.460000     2 ; par22 O C NH1 CT3
   CC311    NC2D1    CC2O1    CC331     9     0.000000     6.694400     1 ; par22 CT1 NH1 C CT3
   CC311    NC2D1    CC2O1    CC331     9   180.000000    10.460000     2 ; "
  CC3161    NC2D1    CC2O1    CC331     9     0.000000     6.694400     1 ; par22 CT1 NH1 C CT3
  CC3161    NC2D1    CC2O1    CC331     9   180.000000    10.460000     2 ; "
   CC331    NC2D1    CC2O1    CC331     9     0.000000     6.694400     1 ; par22 CT3 NH1 C CT3
   CC331    NC2D1    CC2O1    CC331     9   180.000000    10.460000     2 ; "
   CC2O1    NC2D1    CC311    CC331     9   180.000000     2.092000     1 ; og fit to IPAA
  CC3162   CC3161    NC2D1    CC2O1     9     0.000000     9.906875     1 ; ahaile_2019
  CC3162   CC3161    NC2D1    CC2O1     9   180.000000     2.547638     2 ; ahaile_2019
  CC3162   CC3161    NC2D1    CC2O1     9   180.000000     1.535946     3 ; ahaile_2019
  CC3162   CC3161    NC2D1    CC2O1     9   180.000000     0.257316     6 ; ahaile_2019
   CC2O1    NC2D1   CC3161   CC3161     9   180.000000     2.092000     1 ; og fit to IPAA
  CC3163   CC3161    NC2D1    CC2O1     9     0.000000     3.578994     1 ; ahaile_2019
  CC3163   CC3161    NC2D1    CC2O1     9     0.000000     1.867738     2 ; ahaile_2019
  CC3163   CC3161    NC2D1    CC2O1     9   180.000000     3.548032     3 ; ahaile_2019
  CC3163   CC3161    NC2D1    CC2O1     9   180.000000     1.695775     6 ; ahaile_2019
    HCA1   CC3161   CC3161     HCA1     9     0.000000     0.836800     3 ; par27 X CTL1 CTL1 X
    HCA1   CC3162   CC3161     HCA1     9     0.000000     0.836800     3 ; par27 X CTL1 CTL1 X
    HCA1   CC3161   CC3163     HCA1     9     0.000000     0.836800     3 ; par27 X CTL1 CTL1 X
    HCA1   CC3161   CC3263     HCA2     9     0.000000     0.836800     3 ; par27 X CTL1 CTL2 X
    HCA2   CC3261   CC3161     HCA1     9     0.000000     0.836800     3 ; par27 X CTL1 CTL2 X
    HCA1   CC3163    CC321     HCA2     9     0.000000     0.836800     3 ; par27 X CTL1 CTL2 X
    HCA1   CC3163    CC312     HCA1     9     0.000000     0.836800     3 ; par27 X CTL1 CTL1 X
    HCA1   CC311C   CC321C     HCA2     9     0.000000     0.836800     3 ; par27 X CTL1 CTL2 X
    HCA1   CC311C   CC321D     HCA2     9     0.000000     0.836800     3 ; par27 X CTL1 CTL2 X
    HCA1   CC311C    CC321     HCA2     9     0.000000     0.836800     3 ; par27 X CTL1 CTL2 X
    HCA1   CC311D   CC321C     HCA2     9     0.000000     0.836800     3 ; par27 X CTL1 CTL2 X
    HCA1    CC311    CC331     HCA3     9     0.000000     0.836800     3 ; par27 X CTL1 CTL3 X
    HCA1   CC3163    CC331     HCA3     9     0.000000     0.836800     3 ; par27 X CTL1 CTL3 X
    HCA2    CC321    CC321     HCA2     9     0.000000     0.794960     3 ; par27 X CTL2 CTL2 X
    HCA2   CC321C   CC321C     HCA2     9     0.000000     0.794960     3 ; par27 X CTL2 CTL2 X
    HCA2   CC321D   CC321C     HCA2     9     0.000000     0.794960     3 ; par27 X CTL2 CTL2 X
    HCA2    CC321    CC331     HCA3     9     0.000000     0.669440     3 ; par27 X CTL2 CTL3 X
    HCA1    CC312    CC322     HCA2     9     0.000000     0.836800     3 ; par27 X CTL1 CTL2 X
    HCA1    CC312    CC312     HCA1     9     0.000000     0.836800     3 ; par27 X CTL1 CTL1 X
    HCA1    CC312    CC2O4     HCR1     9   180.000000     0.000000     6 ; par22 X CT3  CD X
    HCA1   CC3162   OC3C61   CC3163     9     0.000000     1.188256     3 ; par35 HCA2 CC32A OC30A CC32A
    HCA1   CC3162   OC3C61   CC3263     9     0.000000     1.188256     3 ; par35 HCA2 CC32A OC30A CC32A;erh transferred by analogy
    HCA1   CC3163   OC3C61   CC3162     9     0.000000     1.188256     3 ; par35 HCA2 CC32A OC30A CC32A
    HCA1   CC3163   OC3C61   CC3062     9     0.000000     1.188256     3 ; par35 HCA2 CC32A OC30A CC32A
    HCA2   CC3263   OC3C61   CC3162     9     0.000000     1.188256     3 ; par35 HCA2 CC32A OC30A CC32A;erh transferred by analogy
    HCA1    CC311    OC301    CC331     9     0.000000     1.188256     3 ; par35 HCA2 CC32A OC30A CC32A
   CC311    OC301    CC331     HCA3     9     0.000000     1.188256     3 ; par35 HCA3 CC33A OC30A CC32A
   CC301    OC301    CC331     HCA3     9     0.000000     1.188256     3 ; par35 HCA3 CC33A OC30A CC32A
   CC331    OC301   CC311D     HCA1     9     0.000000     1.188256     3 ; par35 HCA2 CC32A OC30A CC32A
   CC331    OC301   CC3162     HCA1     9     0.000000     1.188256     3 ; par35 HCA2 CC32A OC30A CC32A
   CC321    OC301   CC3162     HCA1     9     0.000000     1.188256     3 ; par35 HCA2 CC32A OC30A CC32A
  CC321C   OC3C61   CC321C     HCA2     9     0.000000     1.188256     3 ; par35 HCA2 CC32A OC30A CC32A
  CC321D   OC3C61   CC321C     HCA2     9     0.000000     1.188256     3 ; par35 HCA2 CC32A OC30A CC32A
  CC311D   OC3C61   CC321C     HCA2     9     0.000000     1.188256     3 ; par35 HCA2 CC32A OC30A CC32A
  CC321C   OC3C61   CC321D     HCA2     9     0.000000     1.188256     3 ; par35 HCA2 CC32A OC30A CC32A
  CC311C   OC3C61   CC321D     HCA2     9     0.000000     1.188256     3 ; par35 HCA2 CC32A OC30A CC32A
  CC321C   OC3C61   CC311D     HCA1     9     0.000000     1.188256     3 ; par35 HCA2 CC32A OC30A CC32A
  CC321D   OC3C61   CC311C     HCA1     9     0.000000     1.188256     3 ; par35 HCA2 CC32A OC30A CC32A
  CC311C    OC301   CC311D     HCA1     9     0.000000     1.188256     3 ; par35 HCA2 CC32A OC30A CC32A
  CC3161    OC301   CC3162     HCA1     9     0.000000     1.188256     3 ; par35 HCA2 CC32A OC30A CC32A
  CC311D    OC302   CC311D     HCA1     9     0.000000     1.188256     3 ; par35 HCA2 CC32A OC30A CC32A
  CC3162    OC302   CC3162     HCA1     9     0.000000     1.188256     3 ; par35 HCA2 CC32A OC30A CC32A
  CC311D    OC301   CC311C     HCA1     9     0.000000     1.188256     3 ; par35 HCA2 CC32A OC30A CC32A
  CC3162    OC301   CC3161     HCA1     9     0.000000     1.188256     3 ; par35 HCA2 CC32A OC30A CC32A
   CC321    OC301    CC331     HCA3     9     0.000000     1.188256     3 ; par35 HCA3 CC33A OC30A CC32A
  CC311D    OC301    CC331     HCA3     9     0.000000     1.188256     3 ; par35 HCA3 CC33A OC30A CC32A
  CC3162    OC301    CC331     HCA3     9     0.000000     1.188256     3 ; par35 HCA3 CC33A OC30A CC32A
  CC3162    OC301    CC321     HCA2     9     0.000000     1.188256     3 ; par35 HCA2 CC32A OC30A CC32A
   CC331    OC301    CC321     HCA2     9     0.000000     1.188256     3 ; par35 HCA2 CC32A OC30A CC33A
    HCA1   CC3161   CC3161   CC3161     9     0.000000     0.836800     3 ; par27 X CTL1 CTL1 X
    HCA1   CC3162   CC3161   CC3161     9     0.000000     0.836800     3 ; par27 X CTL1 CTL1 X
    HCA1   CC3161   CC3161   CC3163     9     0.000000     0.836800     3 ; par27 X CTL1 CTL1 X
    HCA1   CC3161   CC3161   CC3261     9     0.000000     0.836800     3 ; par27 X CTL1 CTL1 X
    HCA1   CC3161   CC3161   CC3263     9     0.000000     0.836800     3 ; par27 X CTL1 CTL1 X
    HCA1   CC3161   CC3163    CC312     9     0.000000     0.836800     3 ; par27 X CTL1 CTL1 X
    HCA1    CC312    CC312    CC322     9     0.000000     0.836800     3 ; par27 X CTL1 CTL1 X
    HCA1    CC312   CC3163   CC3161     9     0.000000     0.836800     3 ; par27 X CTL1 CTL1 X
    HCA1   CC3161   CC3161   CC3162     9     0.000000     0.836800     3 ; par27 X CTL1 CTL1 X
    HCA1   CC3163   CC3161   CC3161     9     0.000000     0.836800     3 ; par27 X CTL1 CTL1 X
    HCA1   CC3163    CC312    CC312     9     0.000000     0.836800     3 ; par27 X CTL1 CTL1 X
    HCA2   CC3263   CC3161   CC3161     9     0.000000     0.836800     3 ; par27 X CTL1 CTL2 X
    HCA1   CC3161   CC3163    CC321     9     0.000000     0.836800     3 ; par27 X CTL1 CTL1 X
    HCA1   CC3161   CC3163    CC331     9     0.000000     0.836800     3 ; par27 X CTL1 CTL1 X
    HCA1   CC3161   CC3163    CC2O2     9     0.000000     0.836800     3 ; par27 X CTL1 CTL1 X
    HCA1   CC3161   CC3261   CC3062     9     0.000000     0.836800     3 ; par27 X CTL1 CTL2 X
    HCA2    CC321   CC311C   CC321C     9     0.000000     0.836800     3 ; par27 X CTL1 CTL2 X
    HCA2    CC321   CC3163   CC3161     9     0.000000     0.836800     3 ; par27 X CTL1 CTL2 X
    HCA2   CC3261   CC3062    CC2O2     9     0.000000     0.836800     3 ; par27 X CTL1 CTL2 X
    HCA2   CC3261   CC3161   CC3161     9     0.000000     0.836800     3 ; par27 X CTL1 CTL2 X
    HCA3    CC331   CC3163   CC3161     9     0.000000     0.836800     3 ; par27 X CTL1 CTL3 X
   CC2O2    CC311    CC331     HCA3     9     0.000000     0.836800     3 ; par27 X CTL1 CTL3 X
   CC2O2    CC301    CC331     HCA3     9     0.000000     0.836800     3 ; par27 X CTL1 CTL3 X
   CC312    CC312    CC312     HCA1     9     0.000000     0.836800     3 ; par27 X CTL1 CTL1 X
  CC3163    CC312    CC312     HCA1     9     0.000000     0.836800     3 ; par27 X CTL1 CTL1 X
   CC312    CC312    CC322     HCA2     9     0.000000     0.836800     3 ; par27 X CTL1 CTL2 X
   CC322    CC312    CC322     HCA2     9     0.000000     0.836800     3 ; par27 X CTL1 CTL2 X
  CC321C   CC321C   CC311C     HCA1     9     0.000000     0.836800     3 ; par27 X CTL1 CTL2 X
  CC321C   CC321C   CC311D     HCA1     9     0.000000     0.836800     3 ; par27 X CTL1 CTL2 X
  CC321D   CC321C   CC311C     HCA1     9     0.000000     0.836800     3 ; par27 X CTL1 CTL2 X
   CC321   CC311C   CC321C     HCA2     9     0.000000     0.836800     3 ; par27 X CTL1 CTL2 X
  CC321C   CC311C   CC321C     HCA2     9     0.000000     0.836800     3 ; par27 X CTL1 CTL2 X
  CC321C   CC311C   CC321D     HCA2     9     0.000000     0.836800     3 ; par27 X CTL1 CTL2 X
  CC321D   CC311C   CC321C     HCA2     9     0.000000     0.836800     3 ; par27 X CTL1 CTL2 X
   CC331    CC311    CC331     HCA3     9     0.000000     0.836800     3 ; par27 X CTL1 CTL3 X
  CC311C   CC321C   CC321C     HCA2     9     0.000000     0.794960     3 ; par27 X CTL2 CTL2 X
  CC311C   CC321C   CC321D     HCA2     9     0.000000     0.794960     3 ; par27 X CTL2 CTL2 X
   CC321    CC321    CC321     HCA2     9     0.000000     0.794960     3 ; par27 X CTL2 CTL2 X
   CC331    CC321    CC321     HCA2     9     0.000000     0.794960     3 ; par27 X CTL2 CTL2 X
  CC321C   CC321C   CC321C     HCA2     9     0.000000     0.794960     3 ; par27 X CTL2 CTL2 X
  CC321C   CC321C   CC321D     HCA2     9     0.000000     0.794960     3 ; par27 X CTL2 CTL2 X
  CC321D   CC321C   CC321C     HCA2     9     0.000000     0.794960     3 ; par27 X CTL2 CTL2 X
  CC311D   CC321C   CC321C     HCA2     9     0.000000     0.794960     3 ; par27 X CTL2 CTL2 X
   CC321    CC321    CC331     HCA3     9     0.000000     0.669440     3 ; par27 X CTL2 CTL3 X
   CC2O2    CC321    CC331     HCA3     9     0.000000     0.669440     3 ; par27 X CTL2 CTL3 X
    HCP1    NC2D1   CC3161   CC3161     9     0.000000     0.000000     1 ; par22 H NH1 CT1 CT1
    HCP1    NC2D1   CC3161   CC3162     9     0.000000     0.000000     1 ; par22 H NH1 CT1 CT1
    HCP1    NC2D1   CC3161   CC3163     9     0.000000     0.000000     1 ; par22 H NH1 CT1 CT1
    HCP1    NC2D1    CC311    CC331     9     0.000000     0.000000     1 ; par22 H NH1 CT1 CT3
    HCP1    NC2D1    CC2O1    CC331     9   180.000000    10.460000     2 ; par22 H NH1 C   CT3
    HCP1    NC2D1   CC3161     HCA1     9     0.000000     0.000000     1 ; par22 HB CT1 NH1 H
    HCP1    NC2D1    CC311     HCA1     9     0.000000     0.000000     1 ; par22 HB CT1 NH1 H
    HCP1    NC2D1    CC331     HCA3     9     0.000000     0.000000     3 ; par22 HA CT3 NH1 H
    HCP1    NC2D1    CC2O1    OC2D1     9   180.000000    10.460000     2 ; par22 O C NH1 H
   CC2O1    NC2D1   CC3161     HCA1     9     0.000000     0.000000     1 ; par22 HB CT1 NH1 C
   CC2O1    NC2D1    CC311     HCA1     9     0.000000     0.000000     1 ; par22 HB CT1 NH1 C
   CC2O1    NC2D1    CC331     HCA3     9     0.000000     0.000000     3 ; par22 HA CT3 NH1 C
   CC312    CC322    OC311     HCP1     9     0.000000     1.464400     1 ; erh n=6 polyol
   CC312    CC322    OC311     HCP1     9     0.000000     1.548080     2 ; " RIMP2/cc-pVTZ//MP2/631gd
   CC312    CC322    OC311     HCP1     9   180.000000     0.794960     3 ; " C2-C1-O1-HO1
   CC322    CC312    OC311     HCP1     9     0.000000     1.464400     1 ; erh n=6 polyol
   CC322    CC312    OC311     HCP1     9     0.000000     1.548080     2 ; " RIMP2/cc-pVTZ//MP2/631gd
   CC322    CC312    OC311     HCP1     9   180.000000     0.794960     3 ; " C1-C2-O2-HO2
   CC312    CC312    OC311     HCP1     9     0.000000     1.464400     1 ; erh n=6 polyol
   CC312    CC312    OC311     HCP1     9     0.000000     1.548080     2 ; " RIMP2/cc-pVTZ//MP2/631gd
   CC312    CC312    OC311     HCP1     9   180.000000     0.794960     3 ; " C2-C3-O3-HO3
   CC2O2    CC301    OC311     HCP1     9   180.000000     3.430880     3 ; og amol mp2/ccpvtz
   CC2O2   CC3062    OC311     HCP1     9   180.000000     3.430880     3 ; from CC2O2 CC301 OC311 HCP1
    HCP1    OC311    CC301    CC331     9     0.000000     1.004160     3 ; og ethanol
    HCP1    OC311    CC301    CC331     9     0.000000     0.585760     2 ; "
    HCP1    OC311    CC301    CC331     9     0.000000     4.727920     1 ; "
    HCP1   OC311M    CC321    CC331     9     0.000000     1.004160     3 ; og ethanol
    HCP1   OC311M    CC321    CC331     9     0.000000     0.585760     2 ; "
    HCP1   OC311M    CC321    CC331     9     0.000000     4.727920     1 ; "
    HCP1   OC311M    CC311    CC331     9     0.000000     1.004160     3 ; og ethanol
    HCP1   OC311M    CC311    CC331     9     0.000000     0.585760     2 ; "
    HCP1   OC311M    CC311    CC331     9     0.000000     4.727920     1 ; "
   HCP1M   OC311M    CC321    CC321     9   180.000000     1.673600     1 ; og ethylene glycol combo_star
   HCP1M   OC311M    CC321    CC321     9     0.000000     0.041840     2 ; "  *** NOT suitable for
   HCP1M   OC311M    CC321    CC321     9     0.000000     1.087840     3 ; "  *** HO-C-C-C- type alcohols
   OC311    CC301    OC301    CC331     9   180.000000     1.715440     1 ; from
   OC311    CC301    OC301    CC331     9     0.000000     3.723760     2 ; " CC3163 OC3C61 CC3162 OC311
   OC311    CC301    OC301    CC331     9     0.000000     0.209200     3 ; "
  CC321C   OC3C61   CC311D    OC301     9     0.000000     2.594080     1 ; og OMeTHP compounds 2 and 3
  CC321C   OC3C61   CC311D    OC301     9     0.000000     6.443360     2 ; "  MCSA fit
  CC321C   OC3C61   CC311D    OC301     9     0.000000     2.008320     3 ; "  MP2/cc-pVTZ//MP2/6-31G*
  CC321C   OC3C61   CC311D    OC302     9     0.000000     2.594080     1 ; og OMeTHP compounds 2 and 3
  CC321C   OC3C61   CC311D    OC302     9     0.000000     6.443360     2 ; "  MCSA fit
  CC321C   OC3C61   CC311D    OC302     9     0.000000     2.008320     3 ; "  MP2/cc-pVTZ//MP2/6-31G*
  CC3163   OC3C61   CC3162    OC301     9   180.000000     1.715440     1 ; og from
  CC3163   OC3C61   CC3162    OC301     9     0.000000     3.723760     2 ; " CC3163 OC3C61 CC3162 OC311
  CC3163   OC3C61   CC3162    OC301     9     0.000000     0.209200     3 ; "
  CC3163   OC3C61   CC3162    OC302     9   180.000000     1.715440     1 ; og from
  CC3163   OC3C61   CC3162    OC302     9     0.000000     3.723760     2 ; " CC3163 OC3C61 CC3162 OC311
  CC3163   OC3C61   CC3162    OC302     9     0.000000     0.209200     3 ; "
   CC331    OC301   CC311D   OC3C61     9     0.000000     0.585760     1 ; og OMeTHP compounds 2 and 3
   CC331    OC301   CC311D   OC3C61     9     0.000000     4.058480     2 ; "  MCSA fit
   CC331    OC301   CC311D   OC3C61     9   180.000000     0.460240     3 ; "  MP2/cc-pVTZ//MP2/6-31G*
   CC331    OC301   CC3162   OC3C61     9     0.000000     0.585760     1 ; og OMeTHP compounds 2 and 3
   CC331    OC301   CC3162   OC3C61     9     0.000000     4.058480     2 ; "  MCSA fit
   CC331    OC301   CC3162   OC3C61     9   180.000000     0.460240     3 ; "  MP2/cc-pVTZ//MP2/6-31G*
   CC321    OC301   CC3162   OC3C61     9     0.000000     0.585760     1 ; og OMeTHP compounds 2 and 3
   CC321    OC301   CC3162   OC3C61     9     0.000000     4.058480     2 ; "  MCSA fit
   CC321    OC301   CC3162   OC3C61     9   180.000000     0.460240     3 ; "  MP2/cc-pVTZ//MP2/6-31G*
  CC311D    OC302   CC311D   OC3C61     9     0.000000     2.217520     1 ; og THP-1-O-1-THP
  CC311D    OC302   CC311D   OC3C61     9     0.000000     3.096160     2 ; "  MCSA fit
  CC311D    OC302   CC311D   OC3C61     9     0.000000     0.669440     3 ; "  MP2/cc-pVTZ//MP2/6-31G*
  CC3162    OC302   CC3162   OC3C61     9     0.000000     2.217520     1 ; og THP-1-O-1-THP
  CC3162    OC302   CC3162   OC3C61     9     0.000000     3.096160     2 ; "  MCSA fit
  CC3162    OC302   CC3162   OC3C61     9     0.000000     0.669440     3 ; "  MP2/cc-pVTZ//MP2/6-31G*
  CC311C    OC301   CC311D   OC3C61     9   180.000000     0.209200     1 ; og THP-1-O-2-CYHX
  CC311C    OC301   CC311D   OC3C61     9     0.000000     3.807440     2 ; "  MCSA fit
  CC311C    OC301   CC311D   OC3C61     9   180.000000     5.313680     3 ; "  MP2/cc-pVTZ//MP2/6-31G*
  CC3161    OC301   CC3162   OC3C61     9   180.000000     0.209200     1 ; og THP-1-O-2-CYHX
  CC3161    OC301   CC3162   OC3C61     9     0.000000     3.807440     2 ; "  MCSA fit
  CC3161    OC301   CC3162   OC3C61     9   180.000000     5.313680     3 ; "  MP2/cc-pVTZ//MP2/6-31G*
    HCP1    OC311    CC301    OC301     9     0.000000     6.485200     1 ; from HCP1 OC311 CC3162 OC3C61
    HCP1    OC311    CC301    OC301     9     0.000000     4.895280     2 ; "
    HCP1    OC311    CC301    OC301     9     0.000000     4.476880     3 ; "
  CC3163    CC321    OC311     HCP1     9     0.000000     1.213360     1 ; 
  CC3163    CC321    OC311     HCP1     9     0.000000     2.594080     2 ; 
  CC3163    CC321    OC311     HCP1     9     0.000000     0.209200     3 ; 
  CC3161   CC3162    OC311     HCP1     9     0.000000     1.213360     1 ; 
  CC3161   CC3162    OC311     HCP1     9     0.000000     2.594080     2 ; 
  CC3161   CC3162    OC311     HCP1     9     0.000000     0.209200     3 ; 
    HCP1    OC311   CC3162   OC3C61     9     0.000000     6.485200     1 ; 
    HCP1    OC311   CC3162   OC3C61     9     0.000000     4.895280     2 ; 
    HCP1    OC311   CC3162   OC3C61     9     0.000000     4.476880     3 ; 
  CC3162   CC3161    OC311     HCP1     9     0.000000     1.213360     1 ; 
  CC3162   CC3161    OC311     HCP1     9     0.000000     2.594080     2 ; 
  CC3162   CC3161    OC311     HCP1     9     0.000000     0.209200     3 ; 
  CC3161   CC3161    OC311     HCP1     9     0.000000     1.213360     1 ; 
  CC3161   CC3161    OC311     HCP1     9     0.000000     2.594080     2 ; 
  CC3161   CC3161    OC311     HCP1     9     0.000000     0.209200     3 ; 
  CC3163   CC3161    OC311     HCP1     9     0.000000     1.213360     1 ; 
  CC3163   CC3161    OC311     HCP1     9     0.000000     2.594080     2 ; 
  CC3163   CC3161    OC311     HCP1     9     0.000000     0.209200     3 ; 
   OC311   CC3161   CC3162   OC3C61     9   180.000000    11.506000     1 ; 
   OC311   CC3161   CC3162   OC3C61     9   180.000000     1.087840     2 ; 
   OC311   CC3161   CC3162   OC3C61     9     0.000000     0.418400     3 ; 
  CC3163   OC3C61   CC3162    OC311     9   180.000000     1.715440     1 ; 
  CC3163   OC3C61   CC3162    OC311     9     0.000000     3.723760     2 ; 
  CC3163   OC3C61   CC3162    OC311     9     0.000000     0.209200     3 ; 
   OC311   CC3161   CC3163   OC3C61     9   180.000000     5.690240     1 ; 
   OC311   CC3161   CC3163   OC3C61     9     0.000000     0.669440     2 ; 
   OC311   CC3161   CC3163   OC3C61     9     0.000000     4.225840     3 ; 
   OC311    CC321   CC3163   OC3C61     9   180.000000     3.138000     1 ; 
   OC311    CC321   CC3163   OC3C61     9     0.000000     0.711280     2 ; 
   OC311    CC321   CC3163   OC3C61     9   180.000000     1.046000     3 ; og empirical lower barrier by 1.5 kcal
  CC3163   OC3C61   CC3062    OC311     9   180.000000     1.715440     1 ; from CC3163 OC3C61 CC3162 OC311
  CC3163   OC3C61   CC3062    OC311     9     0.000000     3.723760     2 ; "
  CC3163   OC3C61   CC3062    OC311     9     0.000000     0.209200     3 ; "
    HCP1    OC311   CC3062   OC3C61     9     0.000000     6.485200     1 ; from HCP1 OC311 CC3162 OC3C61
    HCP1    OC311   CC3062   OC3C61     9     0.000000     4.895280     2 ; "
    HCP1    OC311   CC3062   OC3C61     9     0.000000     4.476880     3 ; "
  CC3261   CC3062    OC311     HCP1     9     0.000000     1.213360     1 ; from CC3161 CC3162 OC311 HCP1
  CC3261   CC3062    OC311     HCP1     9     0.000000     2.594080     2 ; "
  CC3261   CC3062    OC311     HCP1     9     0.000000     0.209200     3 ; "
  CC3163    CC312    OC311     HCP1     9     0.000000     1.213360     1 ; from CC3163 CC321 OC311 HCP1
  CC3163    CC312    OC311     HCP1     9     0.000000     2.594080     2 ; "
  CC3163    CC312    OC311     HCP1     9     0.000000     0.209200     3 ; 
   OC311    CC312   CC3163   OC3C61     9   180.000000     3.138000     1 ; from OC311 CC321 CC3163 OC3C61
   OC311    CC312   CC3163   OC3C61     9     0.000000     0.711280     2 ; "
   OC311    CC312   CC3163   OC3C61     9   180.000000     1.046000     3 ; "
  CC3261   CC3161    OC311     HCP1     9     0.000000     1.213360     1 ; from CC3161 CC3161 OC311 HCP1
  CC3261   CC3161    OC311     HCP1     9     0.000000     2.594080     2 ; "
  CC3261   CC3161    OC311     HCP1     9     0.000000     0.209200     3 ; "
  CC3263   CC3161    OC311     HCP1     9     0.000000     1.213360     1 ; 
  CC3263   CC3161    OC311     HCP1     9     0.000000     2.594080     2 ; 
  CC3263   CC3161    OC311     HCP1     9     0.000000     0.209200     3 ; 
  CC3263   OC3C61   CC3162    OC311     9   180.000000     1.715440     1 ; 
  CC3263   OC3C61   CC3162    OC311     9     0.000000     3.723760     2 ; 
  CC3263   OC3C61   CC3162    OC311     9     0.000000     0.209200     3 ; 
   OC311   CC3161   CC3263   OC3C61     9   180.000000     5.690240     1 ; 
   OC311   CC3161   CC3263   OC3C61     9     0.000000     0.669440     2 ; 
   OC311   CC3161   CC3263   OC3C61     9     0.000000     4.225840     3 ; 
  CC3161   CC3161    OC301   CC3062     9   180.000000     0.543920     1 ; from CC3161 CC3161 OC301 CC3162
  CC3161   CC3161    OC301   CC3062     9   180.000000     1.046000     2 ; "
  CC3161   CC3161    OC301   CC3062     9   180.000000     0.251040     3 ; "
  CC3161    OC301   CC3062   OC3C61     9   180.000000     0.209200     1 ; from CC3161 OC301 CC3162 OC3C61
  CC3161    OC301   CC3062   OC3C61     9     0.000000     3.807440     2 ; "
  CC3161    OC301   CC3062   OC3C61     9   180.000000     5.313680     3 ; "
  CC3261   CC3062    OC301   CC3161     9   180.000000     1.715440     1 ; from CC3161 CC3162 OC301 CC3161
  CC3261   CC3062    OC301   CC3161     9   180.000000     2.761440     2 ; "
  CC3261   CC3062    OC301   CC3161     9     0.000000     6.694400     3 ; "
  CC3161    OC301   CC3062    CC2O2     9     0.000000     1.188256     3 ; from CC3161 OC301 CC3162 HCA1
  CC3062    OC301   CC3161     HCA1     9     0.000000     1.188256     3 ; from CC3162 OC301 CC3161 HCA1
   OC301   CC3062    CC2O2    OC2D2     9   180.000000     2.677760     2 ; from OC301 CC301 CC2O2 OC2D2
  CC3163   OC3C61   CC3062    OC301     9   180.000000     1.715440     1 ; from CC3163 OC3C61 CC3162 OC301
  CC3163   OC3C61   CC3062    OC301     9     0.000000     3.723760     2 ; "
  CC3163   OC3C61   CC3062    OC301     9     0.000000     0.209200     3 ; "
    HCA2   CC3261   CC3062    OC301     9     0.000000     0.836800     3 ; from HCA1 CC3161 CC3162 OC301
  CC3161   CC3261   CC3062    OC301     9     0.000000     0.836800     3 ; from CC3161 CC3161 CC3162 OC301
   OC301   CC3161   CC3161    OC301     9   180.000000     2.468560     1 ; from OC301 CC3161 CC3162 OC301
   OC301   CC3161   CC3161    OC301     9     0.000000     4.853440     2 ; "
  CC3263   CC3161    OC301   CC3162     9   180.000000     0.543920     1 ; from CC3163  CC3161  OC301   CC3162
  CC3263   CC3161    OC301   CC3162     9   180.000000     1.046000     2 ; "
  CC3263   CC3161    OC301   CC3162     9   180.000000     0.251040     3 ; "
   OC301   CC3161   CC3263     HCA2     9     0.000000     0.836800     3 ; from OC301   CC3161  CC3163  HCA1
   OC301   CC3161   CC3263   OC3C61     9   180.000000     5.690240     1 ; from OC301   CC3161  CC3163  OC3C61
   OC301   CC3161   CC3263   OC3C61     9     0.000000     0.669440     2 ; "
   OC301   CC3161   CC3263   OC3C61     9     0.000000     4.225840     3 ; "
  CC3263   OC3C61   CC3162    OC301     9   180.000000     1.715440     1 ; from CC3163  OC3C61  CC3162  OC301
  CC3263   OC3C61   CC3162    OC301     9     0.000000     3.723760     2 ; "
  CC3263   OC3C61   CC3162    OC301     9     0.000000     0.209200     3 ; "
  HCA2C2   CC322C   CC322C   HCA2C2     9     0.000000     0.794960     3 ; alkane, 4/98, yin and mackerell!from X-CCT2-CCT2-X thf, viv
  CC322C   CC322C   CC322C   HCA2C2     9     0.000000     0.794960     3 ; alkane, 4/98, yin and mackerell!from X-CCT2-CCT2-X thf, viv
  OC3C5M   CC322C   CC322C   HCA2C2     9     0.000000     0.794960     3 ; alkane, 4/98, yin and mackerell!from X-CCT2-CCT2-X thf viv
  CC322C   CC322C   CC322C   CC322C     9   180.000000     1.715440     3 ; cpen viv 10/4/05 !from CCP2-CCP2-CCP2-CCP2 THF, 05/30/06, viv
  HCA2C2   CC322C   OC3C5M   CC322C     9     0.000000     1.255200     3 ; THF, 05/30/06, viv
  OC3C5M   CC322C   CC322C   CC322C     9     0.000000     0.000000     3 ; THF, 05/30/06, viv
  CC322C   CC322C   OC3C5M   CC322C     9     0.000000     2.092000     3 ; THF, 05/30/06, viv
   CC331   CC312C   CC312C    CC331     9     0.000000     0.836800     3 ; par22 X CT1 CT1 X
   CC331   CC312C   CC322C   CC322C     9     0.000000     0.836800     3 ; par22 X CT1 CT2 X
   CC331   CC312C   CC322C   HCA2C2     9     0.000000     0.836800     3 ; par22 X CT1 CT2 X
  HCA1C2   CC312C    CC331     HCA3     9     0.000000     0.836800     3 ; par22 X CT1 CT3 X
  CC322C   CC312C    CC331     HCA3     9     0.000000     0.836800     3 ; par22 X CT1 CT3 X
  OC3C5M   CC312C    CC331     HCA3     9     0.000000     0.836800     3 ; par22 X CT1 CT3 X
  HCA1C2   CC312C   CC322C   HCA2C2     9     0.000000     0.836800     3 ; par22 X CT1 CT2 X
  CC322C   CC312C   CC322C   HCA2C2     9     0.000000     0.836800     3 ; par22 X CT1 CT2 X
  CC322C   CC322C   CC312C   HCA1C2     9     0.000000     0.836800     3 ; par22 X CT1 CT2 X
  OC3C5M   CC312C   CC322C   HCA2C2     9     0.000000     0.836800     3 ; par22 X CT1 CT2 X
  CC312C   CC322C   CC322C   HCA2C2     9     0.000000     0.794960     3 ; alkane, 4/98, yin and mackerell!from X-CCT2-CCT2-X thf, viv
  CC312C   CC322C   CC322C   CC322C     9   180.000000     1.715440     3 ; cpen viv 10/4/05 !from CCP2-CCP2-CCP2-CCP2 THF, 05/30/06, viv;
  CC322C   CC312C   CC322C   CC322C     9   180.000000     1.715440     3 ; cpen viv 10/4/05 !from CCP2-CCP2-CCP2-CCP2 THF, 05/30/06, viv;
  HCA2C2   CC322C   OC3C5M   CC312C     9     0.000000     1.255200     3 ; THF, 05/30/06, viv; erh 7/08
  HCA1C2   CC312C   OC3C5M   CC322C     9     0.000000     1.255200     3 ; THF, 05/30/06, viv; erh 7/08
  OC3C5M   CC312C   CC322C   CC322C     9     0.000000     0.000000     3 ; THF, 05/30/06, viv; erh 7/08
  CC322C   CC312C   OC3C5M   CC322C     9     0.000000     2.092000     3 ; THF, 05/30/06, viv; erh 7/08
  CC322C   CC322C   OC3C5M   CC312C     9     0.000000     2.092000     3 ; THF, 05/30/06, viv; erh 7/08
   CC331   CC312C   OC3C5M   CC322C     9     0.000000     1.255200     3 ; THF, 05/30/06, viv ! from TF2M viv
  CC312C    OC301    CC331     HCA3     9     0.000000     1.188256     3 ; par35 HCA2 CC32A OC30A CC32A
  HCA1C2   CC312C    OC301    CC331     9     0.000000     1.188256     3 ; par35 HCA2 CC32A OC30A CC32A
   OC301   CC312C   CC322C   HCA2C2     9     0.000000     0.836800     3 ; par27 X CTL1 CTL2 X
  CC322C   CC322C   CC312C    OC301     9     0.000000     0.836800     3 ; par27 X CTL2 CTL1 X
   OC301   CC312C   OC3C5M   CC322C     9     0.000000     1.255200     3 ; THF, 05/30/06, viv
  CC322C   CC312C    OC301    CC331     9   180.000000     0.878640     1 ; erh OMeTHF patch for model THF
  CC322C   CC312C    OC301    CC331     9   180.000000     1.422560     2 ; "  MCSA fit
  CC322C   CC312C    OC301    CC331     9   180.000000     3.096160     3 ; "  MP2/cc-pVTZ//MP2/6-31G*
   CC331    OC301   CC312C   OC3C5M     9     0.000000     0.334720     1 ; erh OMeTHF patch for model THF
   CC331    OC301   CC312C   OC3C5M     9     0.000000     3.179840     2 ; "  MCSA fit
   CC331    OC301   CC312C   OC3C5M     9     0.000000     4.937120     3 ; "  MP2/cc-pVTZ//MP2/6-31G*
  OC3C51   CC3152    OC311     HCP1     9     0.000000     4.895280     1 ; erh aldopentose monosac
  OC3C51   CC3152    OC311     HCP1     9     0.000000     3.556400     2 ; " MCSA fit
  OC3C51   CC3152    OC311     HCP1     9     0.000000     1.548080     3 ; " MP2/cc-pVTZ//MP2/6-31G*
  OC3C51   CC3051    OC311     HCP1     9     0.000000     3.765600     1 ; erh ketopentose monosac
  OC3C51   CC3051    OC311     HCP1     9     0.000000     4.769760     2 ; " MCSA fit
  OC3C51   CC3051    OC311     HCP1     9   180.000000     0.460240     3 ; " MP2/cc-pVTZ//MP2/6-31G*
  OC3C51   CC3152   CC3251     HCA2     9     0.000000     0.836800     3 ; par22 X CT1 CT2 X
  OC3C51   CC3051   CC3251     HCA2     9     0.000000     0.836800     3 ; par22 X CT1 CT2 X
  OC3C51   CC3152   CC3151     HCA1     9     0.000000     0.836800     3 ; par22 X CT1 CT1 X
  OC3C51   CC3051   CC3151     HCA1     9     0.000000     0.836800     3 ; par22 X CT1 CT1 X
  OC3C51   CC3153   CC3151     HCA1     9     0.000000     0.836800     3 ; par22 X CT1 CT1 X
  OC3C51   CC3153    CC321     HCA2     9     0.000000     0.836800     3 ; par22 X CT1 CT2 X
  OC3C51   CC3152    CC321     HCA2     9     0.000000     0.836800     3 ; par22 X CT1 CT2 X
  OC3C51   CC3051    CC321     HCA2     9     0.000000     0.836800     3 ; par22 X CT1 CT2 X
   OC311   CC3152   CC3251     HCA2     9     0.000000     0.585760     3 ; ethanol, par_carb HCA2 CC3263 CC3161 OC311
   OC311   CC3051   CC3251     HCA2     9     0.000000     0.585760     3 ; ethanol, par_carb HCA2 CC3263 CC3161 OC311
   OC311   CC3051    CC321     HCA2     9     0.000000     0.585760     3 ; ethanol, par_carb HCA2 CC3263 CC3161 OC311; erh 3/08
   OC311   CC3151   CC3251     HCA2     9     0.000000     0.585760     3 ; ethanol, par_carb HCA2 CC3263 CC3161 OC311
   OC311   CC3151   CC3153     HCA1     9     0.000000     0.585760     3 ; ethanol, par_carb HCA1 CC3163 CC3161 OC311
   OC311   CC3151   CC3152     HCA1     9     0.000000     0.585760     3 ; ethanol, par_carb HCA1 CC3162 CC3161 OC311
   OC311   CC3151   CC3151     HCA1     9     0.000000     0.585760     3 ; ethanol, par_carb HCA1 CC3161 CC3161 OC311
   OC311   CC3152   CC3151     HCA1     9     0.000000     0.585760     3 ; ethanol, par_carb HCA1 CC3161 CC3162 OC311
   OC311   CC3051   CC3151     HCA1     9     0.000000     0.585760     3 ; ethanol, par_carb HCA1 CC3161 CC3162 OC311
   OC311    CC321   CC3153     HCA1     9     0.000000     0.585760     3 ; ethanol, par_carb HCA1 CC3163 CC321  OC311
  OC3C51   CC3153   CC3151    OC311     9     0.000000     0.585760     1 ; erh aldopentose monosac
  OC3C51   CC3153   CC3151    OC311     9     0.000000     2.928800     2 ; " MCSA fit
  OC3C51   CC3153   CC3151    OC311     9     0.000000     0.753120     3 ; " MP2/cc-pVTZ//MP2/6-31G*
  OC3C51   CC3152   CC3151    OC311     9   180.000000     5.271840     1 ; erh aldopentose monosac
  OC3C51   CC3152   CC3151    OC311     9     0.000000     5.313680     2 ; " MCSA fit
  OC3C51   CC3152   CC3151    OC311     9     0.000000     2.217520     3 ; " MP2/cc-pVTZ//MP2/6-31G*
  OC3C51   CC3051   CC3151    OC311     9   180.000000     1.338880     1 ; erh ketopentose monosac
  OC3C51   CC3051   CC3151    OC311     9   180.000000     2.719600     2 ; " MCSA fit
  OC3C51   CC3051   CC3151    OC311     9     0.000000    10.962080     3 ; " MP2/cc-pVTZ//MP2/6-31G*
  OC3C51   CC3153    CC321    OC311     9   180.000000     6.276000     1 ; erh aldopentose monosac
  OC3C51   CC3153    CC321    OC311     9     0.000000     2.426720     2 ; " MCSA fit
  OC3C51   CC3153    CC321    OC311     9     0.000000     2.259360     3 ; " MP2/cc-pVTZ//MP2/6-31G*
  OC3C51   CC3051    CC321    OC311     9     0.000000     2.175680     1 ; erh ketopentose monosac
  OC3C51   CC3051    CC321    OC311     9   180.000000     4.853440     2 ; " MCSA fit
  OC3C51   CC3051    CC321    OC311     9   180.000000     1.380720     3 ; " MP2/cc-pVTZ//MP2/6-31G*
   OC311   CC3152   CC3151    OC311     9   180.000000    12.008080     1 ; erh aldopentose monosac
   OC311   CC3152   CC3151    OC311     9     0.000000     0.125520     2 ; " MCSA fit
   OC311   CC3152   CC3151    OC311     9     0.000000     0.962320     3 ; " MP2/cc-pVTZ//MP2/6-31G*
   OC311   CC3051   CC3151    OC311     9   180.000000     0.502080     1 ; erh ketopentose monosac
   OC311   CC3051   CC3151    OC311     9   180.000000     7.824080     2 ; " MCSA fit
   OC311   CC3051   CC3151    OC311     9   180.000000     6.861760     3 ; " MP2/cc-pVTZ//MP2/6-31G*
   OC311   CC3151   CC3151    OC311     9   180.000000    12.008080     1 ; erh aldopentose monosac
   OC311   CC3151   CC3151    OC311     9     0.000000     0.125520     2 ; " MCSA fit
   OC311   CC3151   CC3151    OC311     9     0.000000     0.962320     3 ; " MP2/cc-pVTZ//MP2/6-31G*
   OC311   CC3051    CC321    OC311     9     0.000000     0.292880     1 ; erh ketopentose monosac
   OC311   CC3051    CC321    OC311     9   180.000000     8.326160     2 ; " MCSA fit
   OC311   CC3051    CC321    OC311     9   180.000000     7.196480     3 ; " MP2/cc-pVTZ//MP2/6-31G*
   OC311   CC3152   OC3C51   CC3153     9   180.000000     3.179840     1 ; erh aldopentose monosac
   OC311   CC3152   OC3C51   CC3153     9     0.000000     5.230000     2 ; " MCSA fit
   OC311   CC3152   OC3C51   CC3153     9   180.000000     2.008320     3 ; " MP2/cc-pVTZ//MP2/6-31G*
   OC311   CC3051   OC3C51   CC3153     9   180.000000     0.794960     1 ; erh ketopentose monosac
   OC311   CC3051   OC3C51   CC3153     9   180.000000    11.924400     2 ; " MCSA fit
   OC311   CC3051   OC3C51   CC3153     9     0.000000     3.598240     3 ; " MP2/cc-pVTZ//MP2/6-31G*
  CC3152   CC3251   CC3151   CC3153     9     0.000000     7.656720     3 ; erh deoxy aldopentose MCSA fit
  CC3051   CC3251   CC3151   CC3153     9     0.000000     7.656720     3 ; erh xfer from deoxyaldopentose
  CC3152   CC3151   CC3151   CC3153     9   180.000000     2.677760     3 ; erh aldopentose MCSA fit
  CC3051   CC3151   CC3151   CC3153     9     0.000000     9.916080     3 ; erh ketopentose MCSA fit
  CC3251   CC3151   CC3153    CC321     9     0.000000     0.836800     3 ; par22 X CT1 CT1 X
  CC3151   CC3151   CC3153    CC321     9     0.000000     0.836800     3 ; par22 X CT1 CT1 X
  CC3151   CC3151   CC3051    CC321     9     0.000000     0.836800     3 ; par22 X CT1 CT1 X
  CC3152   CC3251   CC3151    OC311     9     0.000000     1.631760     1 ; erh deoxy aldopentose monosac
  CC3152   CC3251   CC3151    OC311     9     0.000000     5.020800     2 ; " MCSA fit
  CC3152   CC3251   CC3151    OC311     9   180.000000     5.941280     3 ; " MP2/cc-pVTZ//MP2/6-31G*
  CC3051   CC3251   CC3151    OC311     9     0.000000     1.631760     1 ; erh deoxy aldopentose monosac
  CC3051   CC3251   CC3151    OC311     9     0.000000     5.020800     2 ; " transferred
  CC3051   CC3251   CC3151    OC311     9   180.000000     5.941280     3 ; "
  CC3153   CC3151   CC3151    OC311     9   180.000000     0.041840     1 ; erh aldopentose monosac
  CC3153   CC3151   CC3151    OC311     9     0.000000     3.012480     2 ; " MCSA fit
  CC3153   CC3151   CC3151    OC311     9     0.000000     3.054320     3 ; " MP2/cc-pVTZ//MP2/6-31G*
  CC3152   CC3151   CC3151    OC311     9   180.000000     3.389040     1 ; erh aldopentose monosac
  CC3152   CC3151   CC3151    OC311     9     0.000000     4.476880     2 ; " MCSA fit
  CC3152   CC3151   CC3151    OC311     9     0.000000     0.460240     3 ; " MP2/cc-pVTZ//MP2/6-31G*
  CC3051   CC3151   CC3151    OC311     9     0.000000     8.660880     1 ; erh ketopentose monosac
  CC3051   CC3151   CC3151    OC311     9     0.000000     8.911920     2 ; " MCSA fit
  CC3051   CC3151   CC3151    OC311     9   180.000000    11.338640     3 ; " MP2/cc-pVTZ//MP2/6-31G*
  CC3151   CC3251   CC3152    OC311     9   180.000000     2.343040     1 ; erh deoxy aldopentose monosac
  CC3151   CC3251   CC3152    OC311     9   180.000000     1.255200     2 ; " MCSA fit
  CC3151   CC3251   CC3152    OC311     9   180.000000     1.464400     3 ; " MP2/cc-pVTZ//MP2/6-31G*
  CC3151   CC3251   CC3051    OC311     9   180.000000     2.343040     1 ; erh deoxy aldopentose monosac
  CC3151   CC3251   CC3051    OC311     9   180.000000     1.255200     2 ; " transferred
  CC3151   CC3251   CC3051    OC311     9   180.000000     1.464400     3 ; "
  CC3151   CC3151   CC3152    OC311     9   180.000000     0.460240     1 ; erh aldopentose monosac
  CC3151   CC3151   CC3152    OC311     9     0.000000     2.761440     2 ; " MCSA fit
  CC3151   CC3151   CC3152    OC311     9   180.000000     0.083680     3 ; " MP2/cc-pVTZ//MP2/6-31G*
  CC3151   CC3151   CC3051    OC311     9     0.000000     9.330320     1 ; erh ketopentose monosac
  CC3151   CC3151   CC3051    OC311     9     0.000000    12.552000     2 ; " MCSA fit
  CC3151   CC3151   CC3051    OC311     9   180.000000     3.681920     3 ; " MP2/cc-pVTZ//MP2/6-31G*
  CC3151   CC3153    CC321    OC311     9     0.000000     0.041840     1 ; erh aldopentose monosac
  CC3151   CC3153    CC321    OC311     9     0.000000     0.585760     2 ; " MCSA fit
  CC3151   CC3153    CC321    OC311     9   180.000000     2.928800     3 ; " MP2/cc-pVTZ//MP2/6-31G*
  CC3151   CC3051    CC321    OC311     9     0.000000     6.652560     1 ; erh ketopentose monosac
  CC3151   CC3051    CC321    OC311     9   180.000000     3.974800     2 ; " MCSA fit
  CC3151   CC3051    CC321    OC311     9     0.000000     8.158800     3 ; " MP2/cc-pVTZ//MP2/6-31G*
   CC321   CC3153   CC3151    OC311     9   180.000000     3.179840     1 ; erh aldopentose monosac
   CC321   CC3153   CC3151    OC311     9   180.000000     1.673600     2 ; " MCSA fit
   CC321   CC3153   CC3151    OC311     9   180.000000     1.673600     3 ; " MP2/cc-pVTZ//MP2/6-31G*
   CC321   CC3051   CC3151    OC311     9     0.000000     3.932960     1 ; erh ketopentose monosac
   CC321   CC3051   CC3151    OC311     9   180.000000     6.652560     2 ; " MCSA fit
   CC321   CC3051   CC3151    OC311     9     0.000000     3.514560     3 ; " MP2/cc-pVTZ//MP2/6-31G*
  CC3151   CC3151   CC3153   OC3C51     9     0.000000     5.188160     3 ; erh aldopentose monosac MCSA
  CC3151   CC3151   CC3152   OC3C51     9     0.000000     5.188160     3 ; erh aldopentose monosac MCSA
  CC3251   CC3151   CC3153   OC3C51     9     0.000000     3.932960     3 ; erh deoxy aldopentose MCSA
  CC3151   CC3251   CC3152   OC3C51     9     0.000000     3.932960     3 ; erh deoxy aldopentose MCSA
  CC3151   CC3251   CC3051   OC3C51     9     0.000000     3.932960     3 ; erh deoxy aldopentose transfer
  CC3151   CC3151   CC3051   OC3C51     9     0.000000     2.594080     3 ; erh ketopentose monosac MCSA
  CC3251   CC3152    OC311     HCP1     9     0.000000     2.468560     1 ; erh deoxy aldopentose monosac
  CC3251   CC3152    OC311     HCP1     9     0.000000     1.589920     2 ; " MCSA fit
  CC3251   CC3152    OC311     HCP1     9     0.000000     0.543920     3 ; " MP2/cc-pVTZ//MP2/6-31G*
  CC3251   CC3051    OC311     HCP1     9     0.000000     2.468560     1 ; erh deoxy aldopentose monosac
  CC3251   CC3051    OC311     HCP1     9     0.000000     1.589920     2 ; " transferred
  CC3251   CC3051    OC311     HCP1     9     0.000000     0.543920     3 ; "
   CC321   CC3051    OC311     HCP1     9   180.000000     1.673600     1 ; erh ketopentose monosac
   CC321   CC3051    OC311     HCP1     9     0.000000     2.008320     2 ; " MCSA fit
   CC321   CC3051    OC311     HCP1     9     0.000000     0.794960     3 ; " MP2/cc-pVTZ//MP2/6-31G*
  CC3151   CC3152    OC311     HCP1     9     0.000000     1.213360     1 ; erh aldopentose monosac
  CC3151   CC3152    OC311     HCP1     9     0.000000     2.301200     2 ; " MCSA fit
  CC3151   CC3152    OC311     HCP1     9     0.000000     0.334720     3 ; " MP2/cc-pVTZ//MP2/6-31G*
  CC3151   CC3051    OC311     HCP1     9   180.000000     1.673600     1 ; erh ketopentose monosac
  CC3151   CC3051    OC311     HCP1     9     0.000000     2.008320     2 ; " MCSA fit
  CC3151   CC3051    OC311     HCP1     9     0.000000     0.794960     3 ; " MP2/cc-pVTZ//MP2/6-31G*
  CC3151   CC3151    OC311     HCP1     9     0.000000     1.213360     1 ; erh aldopentose monosac
  CC3151   CC3151    OC311     HCP1     9     0.000000     2.301200     2 ; " MCSA fit
  CC3151   CC3151    OC311     HCP1     9     0.000000     0.334720     3 ; " MP2/cc-pVTZ//MP2/6-31G*
  CC3152   CC3151    OC311     HCP1     9     0.000000     1.213360     1 ; erh aldopentose monosac
  CC3152   CC3151    OC311     HCP1     9     0.000000     2.301200     2 ; " MCSA fit
  CC3152   CC3151    OC311     HCP1     9     0.000000     0.334720     3 ; " MP2/cc-pVTZ//MP2/6-31G*
  CC3051   CC3151    OC311     HCP1     9   180.000000     1.673600     1 ; erh ketopentose monosac
  CC3051   CC3151    OC311     HCP1     9     0.000000     2.008320     2 ; " MCSA fit
  CC3051   CC3151    OC311     HCP1     9     0.000000     0.794960     3 ; " MP2/cc-pVTZ//MP2/6-31G*
  CC3251   CC3151    OC311     HCP1     9     0.000000     2.468560     1 ; erh deoxy aldopentose monosac
  CC3251   CC3151    OC311     HCP1     9     0.000000     1.589920     2 ; " MCSA fit
  CC3251   CC3151    OC311     HCP1     9     0.000000     0.543920     3 ; " MP2/cc-pVTZ//MP2/6-31G*
  CC3153   CC3151    OC311     HCP1     9     0.000000     1.213360     1 ; erh aldopentose monosac
  CC3153   CC3151    OC311     HCP1     9     0.000000     2.301200     2 ; " MCSA fit
  CC3153   CC3151    OC311     HCP1     9     0.000000     0.334720     3 ; " MP2/cc-pVTZ//MP2/6-31G*
  CC3153    CC321    OC311     HCP1     9     0.000000     0.502080     1 ; erh aldopentose monosac
  CC3153    CC321    OC311     HCP1     9     0.000000     1.757280     2 ; " MCSA fit
  CC3153    CC321    OC311     HCP1     9     0.000000     1.213360     3 ; " MP2/cc-pVTZ//MP2/6-31G*
  CC3051    CC321    OC311     HCP1     9   180.000000     1.673600     1 ; erh ketopentose monosac
  CC3051    CC321    OC311     HCP1     9     0.000000     2.008320     2 ; " MCSA fit
  CC3051    CC321    OC311     HCP1     9     0.000000     0.794960     3 ; " MP2/cc-pVTZ//MP2/6-31G*
  CC3152   CC3251   CC3151     HCA1     9     0.000000     0.836800     3 ; par22 X CT2 CT1 X
  CC3051   CC3251   CC3151     HCA1     9     0.000000     0.836800     3 ; par22 X CT2 CT1 X
  CC3151   CC3251   CC3152     HCA1     9     0.000000     0.836800     3 ; par22 X CT2 CT1 X
  CC3151   CC3151   CC3152     HCA1     9     0.000000     0.836800     3 ; par22 X CT1 CT1 X
  CC3151   CC3151   CC3153     HCA1     9     0.000000     0.836800     3 ; par22 X CT1 CT1 X
  CC3151   CC3153    CC321     HCA2     9     0.000000     0.836800     3 ; par22 X CT2 CT1 X
  CC3151   CC3152    CC321     HCA2     9     0.000000     0.836800     3 ; par22 X CT2 CT1 X erh 3/08
  CC3151   CC3051    CC321     HCA2     9     0.000000     0.836800     3 ; par22 X CT2 CT1 X erh 3/08
  CC3153   CC3151   CC3251     HCA2     9     0.000000     0.836800     3 ; par22 X CT2 CT1 X
  CC3153   CC3151   CC3151     HCA1     9     0.000000     0.836800     3 ; par22 X CT1 CT1 X
  CC3152   CC3151   CC3151     HCA1     9     0.000000     0.836800     3 ; par22 X CT1 CT1 X
  CC3051   CC3151   CC3151     HCA1     9     0.000000     0.836800     3 ; par22 X CT1 CT1 X
   CC321   CC3153   CC3151     HCA1     9     0.000000     0.836800     3 ; par22 X CT1 CT1 X
   CC321   CC3152   CC3151     HCA1     9     0.000000     0.836800     3 ; par22 X CT1 CT1 X erh3/08
   CC321   CC3051   CC3151     HCA1     9     0.000000     0.836800     3 ; par22 X CT1 CT1 X erh3/08
  CC3251   CC3151   CC3153     HCA1     9     0.000000     0.836800     3 ; par22 X CT1 CT1 X
  CC3152   OC3C51   CC3153   CC3151     9     0.000000     4.184000     3 ; erh aldopentose MCSA
  CC3153   OC3C51   CC3152   CC3151     9     0.000000     4.184000     3 ; erh aldopentose MCSA
  CC3153   OC3C51   CC3152   CC3251     9     0.000000     1.882800     3 ; erh deoxy aldopentose MCSA
  CC3153   OC3C51   CC3051   CC3151     9     0.000000     2.552240     3 ; erh ketopentose MCSA
  CC3153   OC3C51   CC3051   CC3251     9     0.000000     2.552240     3 ; erh from ketopentose
  CC3051   OC3C51   CC3153   CC3151     9     0.000000     1.799120     3 ; erh ketopentose MCSA
  CC3152   OC3C51   CC3153    CC321     9     0.000000     1.255200     3 ; TF2M par_carb CC331C CC322C OC3C5M CC322C
  CC3051   OC3C51   CC3153    CC321     9     0.000000    10.794720     1 ; erh ketopentose monosac
  CC3051   OC3C51   CC3153    CC321     9   180.000000     1.004160     2 ; " MCSA fit
  CC3051   OC3C51   CC3153    CC321     9   180.000000     1.506240     3 ; " MP2/cc-pVTZ//MP2/6-31G*
  CC3153   OC3C51   CC3051    CC321     9     0.000000     1.004160     1 ; erh ketopentose monosac
  CC3153   OC3C51   CC3051    CC321     9   180.000000    12.552000     2 ; " MCSA fit
  CC3153   OC3C51   CC3051    CC321     9   180.000000     5.773920     3 ; " MP2/cc-pVTZ//MP2/6-31G*
  CC3152   OC3C51   CC3153     HCA1     9     0.000000     1.255200     3 ; THF par_carb HCA2C2 CC322C OC3C5M CC322C
  CC3051   OC3C51   CC3153     HCA1     9     0.000000     1.255200     3 ; THF par_carb HCA2C2 CC322C OC3C5M CC322C
  CC3153   OC3C51   CC3152     HCA1     9     0.000000     1.255200     3 ; THF par_carb HCA2C2 CC322C OC3C5M CC322C
    HCA1   CC3152   CC3251     HCA2     9     0.000000     0.836800     3 ; par22 X CT1 CT2 X
    HCA2   CC3251   CC3151     HCA1     9     0.000000     0.836800     3 ; par22 X CT2 CT1 X
    HCA1   CC3151   CC3153     HCA1     9     0.000000     0.836800     3 ; par22 X CT1 CT1 X
    HCA1   CC3151   CC3152     HCA1     9     0.000000     0.836800     3 ; par22 X CT1 CT1 X
    HCA1   CC3151   CC3151     HCA1     9     0.000000     0.836800     3 ; par22 X CT1 CT1 X
    HCA1   CC3153    CC321     HCA2     9     0.000000     0.836800     3 ; par22 X CT1 CT2 X
    HCP1    OC311   CC3152     HCA1     9     0.000000     0.753120     3 ; methanol par_carb HCP1 OC311 CC3162 HCA1
    HCP1    OC311   CC3151     HCA1     9     0.000000     0.753120     3 ; methanol par_carb HCP1 OC311 CC3161 HCA1
   OC301   CC3152   CC3151    OC311     9   180.000000    12.008080     1 ; erh aldopentose monosac
   OC301   CC3152   CC3151    OC311     9     0.000000     0.125520     2 ; " MCSA fit
   OC301   CC3152   CC3151    OC311     9     0.000000     0.962320     3 ; " MP2/cc-pVTZ//MP2/6-31G*
  CC3152    OC301    CC331     HCA3     9     0.000000     1.188256     3 ; par35 HCA2 CC32A OC30A CC32A
    HCA1   CC3152    OC301    CC331     9     0.000000     1.188256     3 ; par35 HCA2 CC32A OC30A CC32A
   OC301   CC3152   CC3151     HCA1     9     0.000000     0.836800     3 ; par27 X CTL1 CTL1 X
  CC3151   CC3151   CC3152    OC301     9   180.000000     0.460240     1 ; erh aldopentose monosac
  CC3151   CC3151   CC3152    OC301     9     0.000000     2.761440     2 ; " MCSA fit
  CC3151   CC3151   CC3152    OC301     9   180.000000     0.083680     3 ; " MP2/cc-pVTZ//MP2/6-31G*
  CC3151   CC3151   CC3051    OC301     9     0.000000     9.330320     1 ; erh ketopentose monosac
  CC3151   CC3151   CC3051    OC301     9     0.000000    12.552000     2 ; " MCSA fit
  CC3151   CC3151   CC3051    OC301     9   180.000000     3.681920     3 ; " MP2/cc-pVTZ//MP2/6-31G*
   OC301   CC3152   OC3C51   CC3153     9   180.000000     3.179840     1 ; erh aldopentose monosac
   OC301   CC3152   OC3C51   CC3153     9     0.000000     5.230000     2 ; " MCSA fit
   OC301   CC3152   OC3C51   CC3153     9   180.000000     2.008320     3 ; " MP2/cc-pVTZ//MP2/6-31G*
  CC3153   OC3C51   CC3051    OC301     9   180.000000     0.794960     1 ; erh ketopentose monosac
  CC3153   OC3C51   CC3051    OC301     9   180.000000    11.924400     2 ; " MCSA fit
  CC3153   OC3C51   CC3051    OC301     9     0.000000     3.598240     3 ; " MP2/cc-pVTZ//MP2/6-31G*
  CC3151   CC3152    OC301    CC331     9   180.000000     0.878640     1 ; erh OMeTHF patch for model THF
  CC3151   CC3152    OC301    CC331     9   180.000000     1.422560     2 ; "  MCSA fit
  CC3151   CC3152    OC301    CC331     9   180.000000     3.096160     3 ; "  MP2/cc-pVTZ//MP2/6-31G*
   CC331    OC301   CC3152   OC3C51     9     0.000000     0.334720     1 ; erh OMeTHF patch for model THF
   CC331    OC301   CC3152   OC3C51     9     0.000000     3.179840     2 ; "  MCSA fit
   CC331    OC301   CC3152   OC3C51     9     0.000000     4.937120     3 ; "  MP2/cc-pVTZ//MP2/6-31G*
  CC321D   CC311D    OC30P       PC     9   180.000000     0.083680     3 ; 
  CC3161   CC3162    OC30P       PC     9   180.000000     0.083680     3 ; 
  CC3161   CC3161    OC30P       PC     9   180.000000     0.083680     3 ; 
  CC321C   CC311D    OC30P       PC     9   180.000000     0.083680     3 ; 
  CC311D   CC311D    OC30P       PC     9   180.000000     0.083680     3 ; 
    HCA1   CC311D    OC30P       PC     9     0.000000     1.188256     3 ; dmp,eps, H-C3'-O3'-P || from the par_all27_na.prm
    HCA1   CC3161    OC30P       PC     9     0.000000     1.188256     3 ; dmp,eps, H-C3'-O3'-P || from the par_all27_na.prm
    HCA1   CC3162    OC30P       PC     9     0.000000     1.188256     3 ; dmp,eps, H-C3'-O3'-P || from the par_all27_na.prm
  OC3C61   CC311D    OC30P       PC     9     0.000000     1.589920     2 ; 
  OC3C61   CC311D    OC30P       PC     9   180.000000     1.715440     3 ; 
  OC3C61   CC3162    OC30P       PC     9     0.000000     1.589920     2 ; 
  OC3C61   CC3162    OC30P       PC     9   180.000000     1.715440     3 ; 
    HCA1   CC311D   CC311D     HCA1     9     0.000000     0.836800     3 ; par27 X CTL1 CTL2 X
    HCA2   CC321D   CC311D     HCA1     9     0.000000     0.836800     3 ; par27 X CTL1 CTL2 X
  OC3C61   CC311D   CC311D     HCA1     9     0.000000     0.836800     3 ; par27 X CTL1 CTL1 X
  OC3C61   CC321D   CC311D     HCA1     9     0.000000     0.836800     3 ; par27 X CTL1 CTL2 X
  CC321D   CC311D   CC321C     HCA2     9     0.000000     0.836800     3 ; par27 X CTL1 CTL2 X
  CC321C   CC311D   CC321C     HCA2     9     0.000000     0.836800     3 ; par27 X CTL1 CTL2
  CC311D   CC311D   CC321C     HCA2     9     0.000000     0.836800     3 ; par27 X CTL1 CTL2 X
  CC321C   CC311D   CC311D     HCA1     9     0.000000     0.836800     3 ; par27 X CTL1 CTL2 X
  CC321C   CC311D   CC321D     HCA2     9     0.000000     0.836800     3 ; par27 X CTL1 CTL2 X
  CC321C   CC311D   CC321C   CC321C     9   180.000000     0.794960     3 ; og/sng cyclohexane
  CC311D   CC311D   CC321C   CC321C     9   180.000000     0.794960     3 ; og/sng cyclohexane
  CC321D   CC311D   CC321C   CC321C     9   180.000000     0.794960     3 ; og/sng cyclohexane
  OC3C61   CC311D   CC311D   CC321C     9   180.000000     1.297040     3 ; og/sng thp
  OC3C61   CC321D   CC311D   CC321C     9   180.000000     1.297040     3 ; og/sng thp
  CC311D   CC311D   OC3C61   CC321C     9     0.000000     0.836800     3 ; og/sng thp
  CC311D   CC321D   OC3C61   CC321C     9     0.000000     0.836800     3 ; og/sng thp
    HCA1   CC3161   CC3162    OC30P     9     0.000000     0.836800     3 ; par27 X CTL1 CTL2 X
    HCA1   CC3162   CC3161    OC30P     9     0.000000     0.836800     3 ; par27 X CTL1 CTL2 X
    HCA1   CC3163   CC3161    OC30P     9     0.000000     0.836800     3 ; par27 X CTL1 CTL2 X
    HCA1   CC3161   CC3161    OC30P     9     0.000000     0.836800     3 ; par27 X CTL1 CTL2 X
    HCA1   CC311D   CC311D    OC30P     9     0.000000     0.836800     3 ; par27 X CTL1 CTL2 X
    HCA2   CC321C   CC311D    OC30P     9     0.000000     0.836800     3 ; par27 X CTL1 CTL2 X
    HCA2   CC321D   CC311D    OC30P     9     0.000000     0.836800     3 ; par27 X CTL1 CTL2 X
    HCA1   CC311C    CC321    OC30P     9   180.000000     0.000000     6 ; 
    HCA1   CC3163    CC321    OC30P     9   180.000000     0.000000     6 ; 
  CC321C   CC311C    CC321    OC30P     9     0.000000     1.799120     3 ; 
  CC3161   CC3163    CC321    OC30P     9     0.000000     1.799120     3 ; 
  CC3161   CC3161   CC3162    OC30P     9     0.000000     7.363840     1 ; 
  CC3161   CC3161   CC3162    OC30P     9     0.000000    10.711040     2 ; 
  CC3161   CC3161   CC3162    OC30P     9     0.000000     0.041840     3 ; 
  CC321C   CC321C   CC311D    OC30P     9     0.000000     7.363840     1 ; 
  CC321C   CC321C   CC311D    OC30P     9     0.000000    10.711040     2 ; 
  CC321C   CC321C   CC311D    OC30P     9     0.000000     0.041840     3 ; 
  CC3161   CC3161   CC3161    OC30P     9     0.000000     7.363840     1 ; 
  CC3161   CC3161   CC3161    OC30P     9     0.000000    10.711040     2 ; 
  CC3161   CC3161   CC3161    OC30P     9     0.000000     0.041840     3 ; 
  CC3162   CC3161   CC3161    OC30P     9     0.000000     7.363840     1 ; 
  CC3162   CC3161   CC3161    OC30P     9     0.000000    10.711040     2 ; 
  CC3162   CC3161   CC3161    OC30P     9     0.000000     0.041840     3 ; 
  CC3163   CC3161   CC3161    OC30P     9     0.000000     7.363840     1 ; 
  CC3163   CC3161   CC3161    OC30P     9     0.000000    10.711040     2 ; 
  CC3163   CC3161   CC3161    OC30P     9     0.000000     0.041840     3 ; 
  CC321C   CC311D   CC311D    OC30P     9     0.000000     7.363840     1 ; 
  CC321C   CC311D   CC311D    OC30P     9     0.000000    10.711040     2 ; 
  CC321C   CC311D   CC311D    OC30P     9     0.000000     0.041840     3 ; 
  CC321C   OC3C61   CC311D    OC30P     9   180.000000    10.208960     3 ; 
  CC3163   OC3C61   CC3162    OC30P     9   180.000000    10.208960     3 ; 
   OC30P   CC3161   CC3161    OC311     9   180.000000    10.460000     1 ; 
   OC30P   CC3161   CC3161    OC311     9     0.000000     8.368000     2 ; 
   OC30P   CC3161   CC3161    OC311     9     0.000000    10.460000     3 ; 
   OC30P   CC311D   CC3161    OC311     9   180.000000    10.460000     1 ; 
   OC30P   CC311D   CC3161    OC311     9     0.000000     8.368000     2 ; 
   OC30P   CC311D   CC3161    OC311     9     0.000000    10.460000     3 ; 
   OC30P   CC3162   CC3161    OC311     9   180.000000    10.460000     1 ; 
   OC30P   CC3162   CC3161    OC311     9     0.000000     8.368000     2 ; 
   OC30P   CC3162   CC3161    OC311     9     0.000000    10.460000     3 ; 
   OC30P   CC3161   CC3162    OC301     9   180.000000    10.460000     1 ; 
   OC30P   CC3161   CC3162    OC301     9     0.000000     8.368000     2 ; 
   OC30P   CC3161   CC3162    OC301     9     0.000000    10.460000     3 ; 
   OC30P   CC3161   CC3161    OC301     9   180.000000    10.460000     1 ; 
   OC30P   CC3161   CC3161    OC301     9     0.000000     8.368000     2 ; 
   OC30P   CC3161   CC3161    OC301     9     0.000000    10.460000     3 ; 
   OC30P   CC3161   CC3161    OC30P     9     0.000000     5.313680     3 ; 
   OC30P   CC311D   CC311D    OC30P     9     0.000000     5.313680     3 ; 
  OC3C61   CC311D   CC311D    OC30P     9     0.000000     2.552240     3 ; 
  OC3C61   CC321D   CC311D    OC30P     9     0.000000     2.552240     3 ; 
  OC3C61   CC3162   CC3161    OC30P     9     0.000000     2.552240     3 ; 
  OC3C61   CC3163   CC3161    OC30P     9     0.000000     2.552240     3 ; 
  OC3C61   CC311C    CC321    OC30P     9     0.000000     0.251040     1 ; 
  OC3C61   CC311C    CC321    OC30P     9     0.000000     3.263520     2 ; 
  OC3C61   CC311C    CC321    OC30P     9   180.000000     3.096160     3 ; 
  OC3C61   CC3163    CC321    OC30P     9     0.000000     0.251040     1 ; 
  OC3C61   CC3163    CC321    OC30P     9     0.000000     3.263520     2 ; 
  OC3C61   CC3163    CC321    OC30P     9   180.000000     3.096160     3 ; 
  CC3161    OC30P       PC    OC2DP     9     0.000000     1.380720     3 ; 
  CC3162    OC30P       PC    OC2DP     9     0.000000     1.380720     3 ; 
  CC311D    OC30P       PC    OC2DP     9     0.000000     1.380720     3 ; 
  CC311D    OC30P       PC    OC312     9     0.000000     6.066800     2 ; 
   OC312       PC    OC312     HCP1     9     0.000000     1.255200     3 ; terminal phosphate
   OC30P       PC    OC312     HCP1     9     0.000000     1.255200     3 ; terminal phosphate
   OC2DP       PC    OC312     HCP1     9     0.000000     1.255200     3 ; terminal phosphate
  CC3161    OC30P       PC    OC312     9     0.000000     6.066800     2 ; CC311D   OC30P     PC        OC312    1.45   2      0.0
  CC3162    OC30P       PC    OC312     9     0.000000     6.066800     2 ; 
  CC321C   CC311D    OC30P       SC     9     0.000000     0.878640     3 ; 
  CC3162   CC3161    OC30P       SC     9     0.000000     0.878640     3 ; 
  CC3163   CC3161    OC30P       SC     9     0.000000     0.878640     3 ; 
  CC3161   CC3161    OC30P       SC     9     0.000000     0.878640     3 ; 
    HCA1   CC311D    OC30P       SC     9     0.000000     0.000000     3 ; methylsulfate
    HCA1   CC3161    OC30P       SC     9     0.000000     0.000000     3 ; methylsulfate
    HCA2    CC321    OC30P       SC     9     0.000000     1.188256     3 ; 
  OC3C61   CC311D    OC30P       SC     9     0.000000     3.179840     1 ; 
  OC3C61   CC311D    OC30P       SC     9     0.000000     2.845120     2 ; 
  OC3C61   CC311D    OC30P       SC     9   180.000000     1.087840     3 ; 
  CC311C    CC321    OC30P       SC     9   180.000000     5.899440     1 ; 
  CC311C    CC321    OC30P       SC     9     0.000000     1.673600     2 ; 
  CC311C    CC321    OC30P       SC     9   180.000000     0.878640     3 ; 
  CC3163    CC321    OC30P       SC     9   180.000000     5.899440     1 ; 
  CC3163    CC321    OC30P       SC     9     0.000000     1.673600     2 ; 
  CC3163    CC321    OC30P       SC     9   180.000000     0.878640     3 ; 
  CC3161    OC30P       SC    OC2DP     9     0.000000     0.711280     3 ; 
  CC311D    OC30P       SC    OC2DP     9     0.000000     0.711280     3 ; 
   CC321    OC30P       SC    OC2DP     9     0.000000     0.711280     3 ; 
   CC321   CC3163   CC3161    OC30P     9     0.000000     0.836800     3 ; par27 X CTL1 CTL1 X
   CC321    OC301   CC311D     HCA1     9     0.000000     1.188256     3 ; OMeTHP CC331   OC301   CC311D  HCA1
   OC301    CC321    CC331     HCA3     9     0.000000     0.836800     3 ; OC301   CC321   CC3163  HCA1
  CC311D    OC301    CC321     HCA2     9     0.000000     1.188256     3 ; OMeTHP CC311D  OC301   CC331   HCA3
   CC321    OC301   CC311D   OC3C61     9   180.000000     1.506240     1 ; pr, 1-ethoxy-THP2 QM phi-psi scan
   CC321    OC301   CC311D   OC3C61     9     0.000000     2.175680     2 ; " MCSA fit "
   CC321    OC301   CC311D   OC3C61     9   180.000000     3.472720     3 ; " MP2/cc-pVTZ//MP2/6-31G*
  CC311D    OC301    CC321    CC331     9   180.000000     3.012480     1 ; pr, 1-ethoxy-THP2 QM phi-psi scan
  CC311D    OC301    CC321    CC331     9   180.000000     1.422560     2 ; " MCSA fit "
  CC311D    OC301    CC321    CC331     9   180.000000     0.502080     3 ; " MP2/cc-pVTZ//MP2/6-31G*
   CC321    OC301   CC311D   CC321C     9   180.000000     2.426720     1 ; pr, 1-ethoxy-THP2 QM phi-psi scan
   CC321    OC301   CC311D   CC321C     9   180.000000     2.886960     2 ; " MCSA fit "
   CC321    OC301   CC311D   CC321C     9     0.000000     4.853440     3 ; " MP2/cc-pVTZ//MP2/6-31G*
  CC322C   CC322C   CC312D    OC301     9     0.000000     8.284320     1 ; pram OMeTHF compound 5 (raman et al)
  CC322C   CC322C   CC312D    OC301     9     0.000000    10.711040     2 ; "  MCSA fit
  CC322C   CC322C   CC312D    OC301     9     0.000000     7.531200     3 ; "  MP2/cc-pVTZ//MP2/6-31G*
  CC322C   OC3C5M   CC312D    OC301     9     0.000000     7.865920     1 ; pram OMeTHF compound 5 (raman et al)
  CC322C   OC3C5M   CC312D    OC301     9     0.000000     9.121120     2 ; "  MCSA fit
  CC322C   OC3C5M   CC312D    OC301     9     0.000000     1.004160     3 ; "  MP2/cc-pVTZ//MP2/6-31G*
  CC322C   CC312D    OC301    CC331     9   180.000000     4.058480     1 ; pram OMeTHF compound 5 (raman et al)
  CC322C   CC312D    OC301    CC331     9   180.000000     1.840960     3 ; "  MCSA fit
   CC331    OC301   CC312D   OC3C5M     9     0.000000     4.100320     2 ; pram OMeTHF compound 5 (raman et al)
   CC331    OC301   CC312D   OC3C5M     9     0.000000     6.276000     3 ; "  MCSA fit
  CC312D    OC301    CC331     HCA3     9     0.000000     1.188256     3 ; OMe-THF  CC312C  OC301   CC331   HCA3
    HCA1   CC312D    OC301    CC331     9     0.000000     1.188256     3 ; OMe-THF  HCA1C2  CC312C  OC301   CC331
   OC301   CC312D   CC322C   HCA2C2     9     0.000000     0.836800     3 ; OMe-THF  OC301   CC312C  CC322C  HCA2C2
  CC312D    OC302   CC311D   OC3C61     9     0.000000     0.878640     1 ; pram model compound 1 (raman et al)
  CC312D    OC302   CC311D   OC3C61     9     0.000000     3.598240     2 ; "  MCSA fit
  CC312D    OC302   CC311D   OC3C61     9   180.000000     1.464400     3 ; "  MP2/cc-pVTZ//MP2/6-31G*
  CC311D    OC302   CC312D   OC3C5M     9   180.000000     2.928800     1 ; pram model compound 1 (raman et al)
  CC311D    OC302   CC312D   OC3C5M     9     0.000000     5.899440     2 ; "  MCSA fit
  CC311D    OC302   CC312D   OC3C5M     9     0.000000     3.138000     3 ; "  MP2/cc-pVTZ//MP2/6-31G*
  CC311D    OC302   CC312D   CC322C     9   180.000000     5.146320     1 ; pram model compound 1 (raman et al)
  CC311D    OC302   CC312D   CC322C     9     0.000000     0.627600     2 ; "  MCSA fit
  CC311D    OC302   CC312D   CC322C     9   180.000000     2.259360     3 ; "  MP2/cc-pVTZ//MP2/6-31G*
  CC312D    OC302   CC311D   CC321C     9   180.000000     0.753120     1 ; pram model compound 1 (raman et al)
  CC312D    OC302   CC311D   CC321C     9   180.000000     1.882800     2 ; "  MCSA fit
  CC312D    OC302   CC311D   CC321C     9     0.000000     3.138000     3 ; "  MP2/cc-pVTZ//MP2/6-31G*
  CC312D    OC302   CC311D     HCA1     9     0.000000     1.188256     3 ; CC311D  OC302   CC311D  HCA1
  CC322C   CC322C   CC312D    OC302     9     0.000000     8.284320     1 ; pram model compound 5 (raman et al)
  CC322C   CC322C   CC312D    OC302     9     0.000000    10.711040     2 ; pram model compound 5 (raman et al)
  CC322C   CC322C   CC312D    OC302     9     0.000000     7.531200     3 ; pram model compound 5 (raman et al)
  CC322C   OC3C5M   CC312D    OC302     9     0.000000     7.865920     1 ; pram model compound 5 (raman et al)
  CC322C   OC3C5M   CC312D    OC302     9     0.000000     9.121120     2 ; pram model compound 5 (raman et al)
  CC322C   OC3C5M   CC312D    OC302     9     0.000000     1.004160     3 ; pram model compound 5 (raman et al)
   OC302   CC312D   CC322C   HCA2C2     9     0.000000     0.836800     3 ; OMe-THF    OC301   CC312C  CC322C  HCA2C2
  OC3C5M   CC312D   CC322C   HCA2C2     9     0.000000     0.836800     3 ; THF w/me   OC3C5M CC312C CC322C HCA2C2
  OC3C5M   CC312D   CC322C   CC322C     9     0.000000     0.000000     3 ; THF w/me   OC3C5M CC312C CC322C CC322C
  CC322C   CC322C   OC3C5M   CC312D     9     0.000000     2.092000     3 ; THF w/me   CC322C  CC322C  OC3C5M  CC322C
  CC312D   CC322C   CC322C   HCA2C2     9     0.000000     0.794960     3 ; THF w/me   CC312C CC322C CC322C HCA2C2
  CC312D   CC322C   CC322C   CC322C     9   180.000000     1.715440     3 ; THF w/me   CC312C CC322C CC322C CC322C
    HCA1   CC312D   OC3C5M   CC322C     9     0.000000     1.255200     3 ; THF w/me   HCA1C2 CC312C OC3C5M CC322C
    HCA1   CC312D   CC322C   HCA2C2     9     0.000000     0.836800     3 ; THF w/me   HCA1C2 CC312C CC322C HCA2C2
  CC322C   CC322C   CC312D     HCA1     9     0.000000     0.836800     3 ; THF w/me   CC322C CC322C CC312C HCA1C2
  CC322C   CC312D   OC3C5M   CC322C     9     0.000000     2.092000     3 ; THF w/me   CC322C CC312C OC3C5M CC322C
    HCA1   CC312D    OC302   CC311D     9     0.000000     1.188256     3 ; OMe-THF    HCA1C2  CC312C  OC301   CC331
  HCA2C2   CC322C   OC3C5M   CC312D     9     0.000000     1.255200     3 ; THF w/me   HCA2C2 CC322C OC3C5M CC312C
  OC3C5M   CC312C    CC321     HCA2     9     0.000000     0.836800     3 ; COCA-THP2 OC3C61  CC311C  CC321   HCA2
    HCA1   CC312C   OC3C5M   CC322C     9     0.000000     1.255200     3 ; THF w/me  HCA1C2 CC312C OC3C5M CC322C
  CC322C   CC322C   CC312C     HCA1     9     0.000000     0.836800     3 ; THF w/me  CC322C CC322C CC312C HCA1C2
  CC322C   CC312C    CC321     HCA2     9     0.000000     0.836800     3 ; THF w/me  CC322C CC312C CC331  HCA3
  HCA2C2   CC322C   CC312C     HCA1     9     0.000000     0.836800     3 ; THF w/me  HCA1C2 CC312C CC322C HCA2C2
  HCA2C2   CC322C   CC312C    CC321     9     0.000000     0.836800     3 ; THF w/me  CC331  CC312C CC322C HCA2C2
    HCA1   CC312C    CC321     HCA2     9     0.000000     0.836800     3 ; THF w/me  HCA1C2 CC312C CC331  HCA3
    HCA1   CC312C    CC321    OC301     9     0.000000     0.836800     3 ; OC301   CC321   CC3163  HCA1
   CC321   CC312C   OC3C5M   CC322C     9   180.000000     4.895280     3 ; pram 11/2009, model comp2 (raman et al)
   CC321   CC312C   CC322C   CC322C     9   180.000000     8.033280     3 ; MCSA fit to (psi=-180 1-D MP2/cc-pVTZ//MP2/6-31G*)
   OC301    CC321   CC312C   OC3C5M     9   180.000000     8.075120     1 ; COCA-THP2  OC301   CC321   CC311C  OC3C61
   OC301    CC321   CC312C   OC3C5M     9     0.000000     1.799120     2 ; "
   OC301    CC321   CC312C   OC3C5M     9   180.000000     0.502080     3 ; "
  CC322C   CC312C    CC321    OC301     9   180.000000     4.602400     1 ; COCA-THP2  CC322C  CC312C  CC321   OC301
  CC322C   CC312C    CC321    OC301     9   180.000000     0.292880     2 ; "
  CC322C   CC312C    CC321    OC301     9     0.000000     0.627600     3 ; "
  CC312C    CC321    OC301    CC331     9   180.000000     2.677760     1 ; COCA-THP2  CC311C CC321    OC301   CC331
  CC312C    CC321    OC301    CC331     9   180.000000     0.125520     2 ; "
  CC312C    CC321    OC301    CC331     9     0.000000     2.552240     3 ; "
  CC322C   CC312C    OC303    CC331     9   180.000000     1.715440     1 ; pram model compound 6 (raman et al)
  CC322C   CC312C    OC303    CC331     9     0.000000     1.213360     2 ; " MCSA fit
  CC322C   CC312C    OC303    CC331     9     0.000000     1.757280     3 ; "  MP2/cc-pVTZ//MP2/6-31G*
   OC303   CC312C   CC322C   OC3C5M     9     0.000000     3.054320     1 ; pram model compound 6 (raman et al)
   OC303   CC312C   CC322C   OC3C5M     9     0.000000    12.384640     2 ; " MCSA fit
   OC303   CC312C   CC322C   OC3C5M     9     0.000000     5.815760     3 ; "  MP2/cc-pVTZ//MP2/6-31G*
  CC312C    OC303    CC331     HCA3     9     0.000000     1.188256     3 ; CC312C  OC301   CC331   HCA3
    HCA1   CC312C    OC303    CC331     9     0.000000     1.188256     3 ; THF w/me  HCA1C2  CC312C  OC301   CC331
  CC322C   CC322C   CC312C    OC303     9     0.000000     0.836800     3 ; CC322C  CC322C   CC312C   OC301
  OC3C5M   CC322C   CC312C     HCA1     9     0.000000     0.836800     3 ; THF OC3C5M  CC312C  CC322C  HCA2C2
  CC312C   CC322C   OC3C5M   CC322C     9     0.000000     2.092000     3 ; THF CC322C  CC322C  OC3C5M  CC322C
  OC3C5M   CC322C   CC312C   CC322C     9     0.000000     0.000000     3 ; THF OC3C5M  CC322C  CC322C  CC322C
  OC3C5M   CC322C   CC322C   CC312C     9     0.000000     0.000000     3 ; THF OC3C5M  CC322C  CC322C  CC322C
    HCA1   CC312C    OC303   CC311D     9     0.000000     1.188256     3 ; OMe-THF    HCA1C2  CC312C  OC301   CC331
  CC312C    OC303   CC311D     HCA1     9     0.000000     1.188256     3 ; CC311D  OC302   CC311D  HCA1
   OC303   CC311D   CC321C   CC321C     9     0.000000     0.836800     3 ; OC301   CC311D  CC321C  CC321C
   OC303   CC311D   CC321C     HCA2     9     0.000000     0.836800     3 ; OC301   CC311D  CC321C  HCA2
  CC321C   OC3C61   CC311D    OC303     9     0.000000     2.594080     1 ; CC321C  OC3C61  CC311D  OC301
  CC321C   OC3C61   CC311D    OC303     9     0.000000     6.443360     2 ; "
  CC321C   OC3C61   CC311D    OC303     9     0.000000     2.008320     3 ; "
   OC303   CC312C   CC322C   HCA2C2     9     0.000000     0.836800     3 ; OC301   CC312C  CC322C  HCA2C2
  CC312C    OC303   CC311D   OC3C61     9     0.000000     0.334720     1 ; pram model compound 3 (raman et al)
  CC312C    OC303   CC311D   OC3C61     9     0.000000     3.891120     2 ; " MCSA fit
  CC312C    OC303   CC311D   OC3C61     9     0.000000     0.209200     3 ; " MP2/cc-pVTZ//MP2/6-31G*
  CC312C    OC303   CC311D   CC321C     9   180.000000     0.209200     1 ; pram model compound 3 (raman et al)
  CC312C    OC303   CC311D   CC321C     9   180.000000     1.589920     2 ; " MCSA fit
  CC312C    OC303   CC311D   CC321C     9     0.000000     1.506240     3 ; " MP2/cc-pVTZ//MP2/6-31G*
  CC311D    OC303   CC312C   CC322C     9   180.000000     0.292880     1 ; pram model compound 3 (raman et al)
  CC311D    OC303   CC312C   CC322C     9     0.000000     0.167360     2 ; " MCSA fit
  CC311D    OC303   CC312C   CC322C     9     0.000000     0.585760     3 ; " MP2/cc-pVTZ//MP2/6-31G*
    HCA1   CC312D    OC301   CC311C     9     0.000000     1.188256     3 ; OMe-THF  HCA1C2  CC312C  OC301   CC331
  CC312D    OC301   CC311C     HCA1     9     0.000000     1.188256     3 ; CC311D  OC301   CC311C  HCA1
  CC312D    OC301   CC311C   CC321C     9   180.000000     0.502080     1 ; pram model compound 4 (raman et al)
  CC312D    OC301   CC311C   CC321C     9   180.000000     0.125520     2 ; " MCSA fit
  CC312D    OC301   CC311C   CC321C     9     0.000000     0.585760     3 ; " MP2/cc-pVTZ//MP2/6-31G*
  CC311C    OC301   CC312D   OC3C5M     9   180.000000     2.175680     1 ; pram model compound 4 (raman et al)
  CC311C    OC301   CC312D   OC3C5M     9     0.000000     6.276000     2 ; " MCSA fit
  CC311C    OC301   CC312D   OC3C5M     9     0.000000     4.100320     3 ; " MP2/cc-pVTZ//MP2/6-31G*
  CC311C    OC301   CC312D   CC322C     9   180.000000     4.978960     1 ; pram model compound 4 (raman et al)
  CC311C    OC301   CC312D   CC322C     9   180.000000     0.669440     2 ; " MCSA fit
  CC311C    OC301   CC312D   CC322C     9   180.000000     2.050160     3 ; " MP2/cc-pVTZ//MP2/6-31G*
  CC3051    OC302   CC3162   OC3C61     9     0.000000     0.878640     1 ; pram model compound 1 (raman et al)
  CC3051    OC302   CC3162   OC3C61     9     0.000000     3.598240     2 ; " MCSA fit
  CC3051    OC302   CC3162   OC3C61     9   180.000000     1.464400     3 ; " MP2/cc-pVTZ//MP2/6-31G*
  CC3162    OC302   CC3051   OC3C51     9   180.000000     2.928800     1 ; pram model compound 1 (raman et al)
  CC3162    OC302   CC3051   OC3C51     9     0.000000     5.899440     2 ; " MCSA fit
  CC3162    OC302   CC3051   OC3C51     9     0.000000     3.138000     3 ; " MP2/cc-pVTZ//MP2/6-31G*
  CC3162    OC302   CC3051   CC3151     9   180.000000     5.146320     1 ; pram model compound 1 (raman et al)
  CC3162    OC302   CC3051   CC3151     9     0.000000     0.627600     2 ; " MCSA fit
  CC3162    OC302   CC3051   CC3151     9   180.000000     2.259360     3 ; " MP2/cc-pVTZ//MP2/6-31G*
  CC3051    OC302   CC3162   CC3161     9   180.000000     0.753120     1 ; pram model compound 1 (raman et al)
  CC3051    OC302   CC3162   CC3161     9   180.000000     1.882800     2 ; " MCSA fit
  CC3051    OC302   CC3162   CC3161     9     0.000000     3.138000     3 ; " MP2/cc-pVTZ//MP2/6-31G*
   OC302   CC3051   OC3C51   CC3153     9   180.000000     0.794960     1 ; OC311   CC3051  OC3C51  CC3153 BFRU
   OC302   CC3051   OC3C51   CC3153     9   180.000000    11.924400     2 ; "
   OC302   CC3051   OC3C51   CC3153     9     0.000000     3.598240     3 ; "
  CC3151   CC3151   CC3051    OC302     9     0.000000     9.330320     1 ; CC3151  CC3151  CC3051  OC311
  CC3151   CC3151   CC3051    OC302     9     0.000000    12.552000     2 ; "
  CC3151   CC3151   CC3051    OC302     9   180.000000     3.681920     3 ; "
   OC302   CC3051    CC321     HCA2     9     0.000000     0.585760     3 ; OC311   CC3051  CC321   HCA2
   OC302   CC3051   CC3151     HCA1     9     0.000000     0.585760     3 ; OC311   CC3051  CC3151  HCA1
   OC302   CC3051    CC321    OC311     9     0.000000     0.292880     1 ; OC311   CC3051  CC321   OC311
   OC302   CC3051    CC321    OC311     9   180.000000     8.326160     2 ; "
   OC302   CC3051    CC321    OC311     9   180.000000     7.196480     3 ; "
   OC302   CC3051   CC3151    OC311     9   180.000000     0.502080     1 ; OC311   CC3051  CC3151  OC311
   OC302   CC3051   CC3151    OC311     9   180.000000     7.824080     2 ; "
   OC302   CC3051   CC3151    OC311     9   180.000000     6.861760     3 ; "
  CC3051    OC302   CC3162     HCA1     9     0.000000     1.188256     3 ; CC3162  OC302   CC3162  HCA1
   CC321   CC3051    OC302   CC3162     9   180.000000     1.673600     1 ; CC321   CC3051  OC311   HCP1 Fructose
   CC321   CC3051    OC302   CC3162     9     0.000000     2.008320     2 ; "
   CC321   CC3051    OC302   CC3162     9     0.000000     0.794960     3 ; "
  OC3C61   CC3162    OC303   CC3151     9     0.000000     0.334720     1 ; pram model compound 3 (raman et al)
  OC3C61   CC3162    OC303   CC3151     9     0.000000     3.891120     2 ; " MCSA fit
  OC3C61   CC3162    OC303   CC3151     9     0.000000     0.209200     3 ; " MP2/cc-pVTZ//MP2/6-31G*
  CC3161   CC3162    OC303   CC3151     9   180.000000     0.209200     1 ; pram model compound 3 (raman et al)
  CC3161   CC3162    OC303   CC3151     9   180.000000     1.589920     2 ; " MCSA fit
  CC3161   CC3162    OC303   CC3151     9     0.000000     1.506240     3 ; " MP2/cc-pVTZ//MP2/6-31G*
  CC3162    OC303   CC3151   CC3153     9   180.000000     0.292880     1 ; pram model compound 3 (raman et al)
  CC3162    OC303   CC3151   CC3153     9     0.000000     0.167360     2 ; " MCSA fit
  CC3162    OC303   CC3151   CC3153     9     0.000000     0.585760     3 ; " MP2/cc-pVTZ//MP2/6-31G*
  CC3162    OC303   CC3151   CC3151     9   180.000000     0.292880     1 ; pram model compound 3 (raman et al)
  CC3162    OC303   CC3151   CC3151     9     0.000000     0.167360     2 ; " MCSA fit
  CC3162    OC303   CC3151   CC3151     9     0.000000     0.585760     3 ; " MP2/cc-pVTZ//MP2/6-31G*
  CC3162    OC303   CC3151     HCA1     9     0.000000     1.188256     3 ; par35 HCA2 CC32A OC30A CC32A
    HCA1   CC3162    OC303   CC3151     9     0.000000     1.188256     3 ; par35 HCA2 CC32A OC30A CC32A
  CC3163   OC3C61   CC3162    OC303     9   180.000000     1.715440     1 ; CC3163  OC3C61  CC3162  OC301
  CC3163   OC3C61   CC3162    OC303     9     0.000000     3.723760     2 ; "
  CC3163   OC3C61   CC3162    OC303     9     0.000000     0.209200     3 ; "
   OC303   CC3162   CC3161     HCA1     9     0.000000     0.836800     3 ; par27 X CTL1 CTL1 X
   OC303   CC3162   CC3161    OC311     9   180.000000    11.087600     1 ; OC301   CC3162  CC3161  OC311
   OC303   CC3162   CC3161    OC311     9     0.000000     0.000000     2 ; "
   OC303   CC3162   CC3161    OC311     9   180.000000     0.543920     3 ; "
  CC3161   CC3161   CC3162    OC303     9     0.000000     0.836800     3 ; CC3161  CC3161  CC3162  OC301
  OC3C51   CC3153   CC3151    OC303     9     0.000000     0.585760     1 ; OC3C51  CC3153  CC3151  OC311
  OC3C51   CC3153   CC3151    OC303     9     0.000000     2.928800     2 ; "
  OC3C51   CC3153   CC3151    OC303     9     0.000000     0.753120     3 ; "
  CC3051   CC3151   CC3151    OC303     9     0.000000     8.660880     1 ; CC3051  CC3151  CC3151  OC311
  CC3051   CC3151   CC3151    OC303     9     0.000000     8.911920     2 ; "
  CC3051   CC3151   CC3151    OC303     9   180.000000    11.338640     3 ; "
   CC321   CC3153   CC3151    OC303     9   180.000000     3.179840     1 ; CC321   CC3153  CC3151  OC311
   CC321   CC3153   CC3151    OC303     9   180.000000     1.673600     2 ; "
   CC321   CC3153   CC3151    OC303     9   180.000000     1.673600     3 ; "
   OC303   CC3151   CC3151    OC311     9   180.000000    12.008080     1 ; OC311   CC3151  CC3151  OC311
   OC303   CC3151   CC3151    OC311     9     0.000000     0.125520     2 ; "
   OC303   CC3151   CC3151    OC311     9     0.000000     0.962320     3 ; "
   OC303   CC3151   CC3151     HCA1     9     0.000000     0.585760     3 ; OC311   CC3151  CC3151  HCA1
   OC303   CC3151   CC3153     HCA1     9     0.000000     0.585760     3 ; OC311   CC3151  CC3153  HCA1
  CC3162    OC303   CC3151   CC3051     9   180.000000     0.292880     1 ; pram model compound 3 (raman et al)
  CC3162    OC303   CC3151   CC3051     9     0.000000     0.167360     2 ; " MCSA fit
  CC3162    OC303   CC3151   CC3051     9     0.000000     0.585760     3 ; " MP2/cc-pVTZ//MP2/6-31G*
   OC302   CC3051   CC3151    OC303     9   180.000000     0.502080     1 ; OC311   CC3051  CC3151  OC311
   OC302   CC3051   CC3151    OC303     9   180.000000     7.824080     2 ; "
   OC302   CC3051   CC3151    OC303     9   180.000000     6.861760     3 ; "
  OC3C51   CC3051   CC3151    OC303     9   180.000000     1.338880     1 ; OC3C51  CC3051  CC3151  OC311, ketopentose monosac
  OC3C51   CC3051   CC3151    OC303     9   180.000000     2.719600     2 ; "
  OC3C51   CC3051   CC3151    OC303     9     0.000000    10.962080     3 ; "
  CC3153   CC3151   CC3151    OC303     9   180.000000     0.041840     1 ; CC3153  CC3151  CC3151  OC311, aldopentose monosac
  CC3153   CC3151   CC3151    OC303     9     0.000000     3.012480     2 ; "
  CC3153   CC3151   CC3151    OC303     9     0.000000     3.054320     3 ; "
   CC321   CC3051   CC3151    OC303     9     0.000000     3.932960     1 ; CC321   CC3051  CC3151  OC311, ketopentose monosac
   CC321   CC3051   CC3151    OC303     9   180.000000     6.652560     2 ; "
   CC321   CC3051   CC3151    OC303     9     0.000000     3.514560     3 ; "
   OC302   CC3051    CC321    OC301     9     0.000000     0.292880     1 ; OC311   CC3051  CC321   OC311, ketopentose monosac
   OC302   CC3051    CC321    OC301     9   180.000000     8.326160     2 ; 
   OC302   CC3051    CC321    OC301     9   180.000000     7.196480     3 ; 
   CC321    OC301   CC3051   OC3C51     9     0.000000     4.100320     2 ; pram model compound 5 (raman et al)
   CC321    OC301   CC3051   OC3C51     9     0.000000     6.276000     3 ; " MCSA fit MP2/cc-pVTZ//MP2/6-31G*
   CC321    OC301   CC3051   CC3151     9   180.000000     4.058480     1 ; pram model compound 5 (raman et al)
   CC321    OC301   CC3051   CC3151     9   180.000000     1.840960     3 ; " MCSA fit MP2/cc-pVTZ//MP2/6-31G*
    HCA2    CC321    OC301   CC3051     9     0.000000     1.188256     3 ; OMe-THF CC312D  OC301   CC331   HCA3
   CC321    OC301   CC3051    CC321     9   180.000000     1.673600     1 ; CC321   CC3051  OC311   HCP1, ketopentose monosac
   CC321    OC301   CC3051    CC321     9     0.000000     2.008320     2 ; "
   CC321    OC301   CC3051    CC321     9     0.000000     0.794960     3 ; "
   OC301   CC3051    CC321     HCA2     9     0.000000     0.585760     3 ; OC311   CC3051  CC321   HCA2
   OC301   CC3051   CC3151     HCA1     9     0.000000     0.585760     3 ; OC311   CC3051  CC3151  HCA1
   OC301   CC3051    CC321    OC311     9     0.000000     0.292880     1 ; OC311   CC3051  CC321   OC311, ketopentose monosac
   OC301   CC3051    CC321    OC311     9   180.000000     8.326160     2 ; "
   OC301   CC3051    CC321    OC311     9   180.000000     7.196480     3 ; "
   OC301   CC3051   CC3151    OC311     9   180.000000     0.502080     1 ; OC311   CC3051  CC3151  OC311, ketopentose monosac
   OC301   CC3051   CC3151    OC311     9   180.000000     7.824080     2 ; "
   OC301   CC3051   CC3151    OC311     9   180.000000     6.861760     3 ; "
  OC3C51   CC3051    CC321    OC301     9   180.000000     8.075120     1 ; COCA-THP2  OC301   CC321   CC311C  OC3C61
  OC3C51   CC3051    CC321    OC301     9     0.000000     1.799120     2 ; ", pram, validated by model compound 2 (raman et al)
  OC3C51   CC3051    CC321    OC301     9   180.000000     0.502080     3 ; ", pram,  MP2/cc-pVTZ//MP2/6-31G*
   OC301    CC321   CC3051   CC3151     9   180.000000     4.602400     1 ; COCA-THP2  CC322C  CC312C  CC321   OC301
   OC301    CC321   CC3051   CC3151     9   180.000000     0.292880     2 ; ", pram, validated by model compound 2 (raman et al)
   OC301    CC321   CC3051   CC3151     9     0.000000     0.627600     3 ; ", pram,  MP2/cc-pVTZ//MP2/6-31G*
  CC3051    CC321    OC301   CC3051     9   180.000000     2.677760     1 ; COCA-THP2   CC311C CC321    OC301   CC331, validated by mc2 scan
  CC3051    CC321    OC301   CC3051     9   180.000000     0.125520     2 ; ", pram, validated by model compound 2 (raman et al)
  CC3051    CC321    OC301   CC3051     9     0.000000     2.552240     3 ; ", pram,  MP2/cc-pVTZ//MP2/6-31G*
  OC3C51   CC3153    CC321    OC301     9   180.000000     8.075120     1 ; COCA-THP2   OC301   CC321   CC311C  OC3C61
  OC3C51   CC3153    CC321    OC301     9     0.000000     1.799120     2 ; ", pram, validated by model compound 2 (raman et al)
  OC3C51   CC3153    CC321    OC301     9   180.000000     0.502080     3 ; ", pram,  MP2/cc-pVTZ//MP2/6-31G*
  CC3153    CC321    OC301   CC3051     9   180.000000     2.677760     1 ; COCA-THP2   CC311C CC321    OC301   CC331
  CC3153    CC321    OC301   CC3051     9   180.000000     0.125520     2 ; ", pram, validated by model compound 2 (raman et al)
  CC3153    CC321    OC301   CC3051     9     0.000000     2.552240     3 ; ", pram,  MP2/cc-pVTZ//MP2/6-31G*
   OC301    CC321   CC3153     HCA1     9     0.000000     0.585760     3 ; OC311   CC321   CC3153  HCA1
   OC301    CC321   CC3153   CC3151     9   180.000000     4.602400     1 ; COCA-THP2   CC322C  CC312C  CC321   OC301
   OC301    CC321   CC3153   CC3151     9   180.000000     0.292880     2 ; ", pram, validated by model compound 2 (raman et al)
   OC301    CC321   CC3153   CC3151     9     0.000000     0.627600     3 ; ", pram,  MP2/cc-pVTZ//MP2/6-31G*
  CC3153    CC321    OC301   CC3162     9   180.000000     2.677760     1 ; COCA-THP2   CC311C CC321    OC301   CC331, validated by mc2 scan
  CC3153    CC321    OC301   CC3162     9   180.000000     0.125520     2 ; ", pram, validated by model compound 2 (raman et al)
  CC3153    CC321    OC301   CC3162     9     0.000000     2.552240     3 ; ", pram,  MP2/cc-pVTZ//MP2/6-31G*
   OC301   CC3051    CC321    OC301     9     0.000000     0.292880     1 ; OC311   CC3051  CC321   OC311, ketopentose monosac
   OC301   CC3051    CC321    OC301     9   180.000000     8.326160     2 ; "
   OC301   CC3051    CC321    OC301     9   180.000000     7.196480     3 ; "
   CC321    OC301   CC3152   OC3C51     9     0.000000     4.100320     2 ; pram model compound 5 (raman et al)
   CC321    OC301   CC3152   OC3C51     9     0.000000     6.276000     3 ; " MCSA fit MP2/cc-pVTZ//MP2/6-31G*
   CC321    OC301   CC3152   CC3151     9   180.000000     4.058480     1 ; pram model compound 5 (raman et al)
   CC321    OC301   CC3152   CC3151     9   180.000000     1.840960     3 ; " MCSA fit MP2/cc-pVTZ//MP2/6-31G*
  CC3153    CC321    OC301   CC3152     9   180.000000     2.677760     1 ; COCA-THP2   CC311C CC321 OC301 CC331
  CC3153    CC321    OC301   CC3152     9   180.000000     0.125520     2 ; ", pram, validated by model compound 2 (raman et al)                     "
  CC3153    CC321    OC301   CC3152     9     0.000000     2.552240     3 ; ", pram,  MP2/cc-pVTZ//MP2/6-31G*
    HCA2    CC321    OC301   CC3152     9     0.000000     1.188256     3 ; OMe-THF CC312D  OC301   CC331   HCA3
    HCA1   CC3152    OC301    CC321     9     0.000000     1.188256     3 ; HCA1    CC3152  OC301   CC331
  CC3152    OC301   CC3161   CC3162     9   180.000000     0.502080     1 ; pram model compound 4 (raman et al)
  CC3152    OC301   CC3161   CC3162     9   180.000000     0.125520     2 ; " MCSA fit
  CC3152    OC301   CC3161   CC3162     9     0.000000     0.585760     3 ; " MP2/cc-pVTZ//MP2/6-31G*
  CC3152    OC301   CC3161   CC3161     9   180.000000     0.502080     1 ; pram model compound 4 (raman et al)
  CC3152    OC301   CC3161   CC3161     9   180.000000     0.125520     2 ; " MCSA fit
  CC3152    OC301   CC3161   CC3161     9     0.000000     0.585760     3 ; " MP2/cc-pVTZ//MP2/6-31G*
  CC3161    OC301   CC3152   OC3C51     9   180.000000     2.175680     1 ; pram model compound 4 (raman et al)
  CC3161    OC301   CC3152   OC3C51     9     0.000000     6.276000     2 ; " MCSA fit
  CC3161    OC301   CC3152   OC3C51     9     0.000000     4.100320     3 ; " MP2/cc-pVTZ//MP2/6-31G*
  CC3161    OC301   CC3152   CC3151     9   180.000000     4.978960     1 ; pram model compound 4 (raman et al)
  CC3161    OC301   CC3152   CC3151     9   180.000000     0.669440     2 ; " MCSA fit
  CC3161    OC301   CC3152   CC3151     9   180.000000     2.050160     3 ; " MP2/cc-pVTZ//MP2/6-31G*
  CC3161    OC301   CC3152     HCA1     9     0.000000     1.188256     3 ; OMe-THF  HCA1C2  CC312C  OC301   CC331
    HCA1   CC3161    OC301   CC3152     9     0.000000     1.188256     3 ; CC311D  OC301   CC311C  HCA1
  CC3263   CC3161   CC3161    OC301     9     0.000000     0.836800     3 ; CC3263  CC3161  CC3161  OC311
  CC3162    OC30P       SC    OC2DP     9     0.000000     0.711280     3 ; CC3161   OC30P     SC        OC2DP    0.17    3     0.0
      SC    OC30P   CC3162   OC3C61     9     0.000000     3.179840     1 ; OC3C61   CC311D    OC30P     SC       0.76    1     0.0
      SC    OC30P   CC3162   OC3C61     9     0.000000     2.845120     2 ; OC3C61   CC311D    OC30P     SC       0.68    2     0.0
      SC    OC30P   CC3162   OC3C61     9   180.000000     1.087840     3 ; OC3C61   CC311D    OC30P     SC       0.26    3   180.0
      SC    OC30P   CC3162   CC3161     9     0.000000     0.878640     3 ; CC3162   CC3161    OC30P     SC       0.21    3     0.0
      SC    OC30P   CC3162     HCA1     9     0.000000     0.000000     3 ; HCA1     CC3161    OC30P     SC       0.00    3     0.0
   OC311   CC3162   CC3161    OC30P     9   180.000000    10.460000     1 ; OC30P    CC3162    CC3161    OC311    2.50    1   180.0
   OC311   CC3162   CC3161    OC30P     9     0.000000     8.368000     2 ; OC30P    CC3162    CC3161    OC311    2.00    2     0.0
   OC311   CC3162   CC3161    OC30P     9     0.000000    10.460000     3 ; OC30P    CC3162    CC3161    OC311    2.50    3     0.0
  CC3062    OC301    CC321     HCA2     9     0.000000     1.188256     3 ; from CC3162  OC301   CC321   HCA2
   CC321    OC301   CC3062   OC3C61     9     0.000000     0.585760     1 ; from CC321   OC301   CC3162  OC3C61
   CC321    OC301   CC3062   OC3C61     9     0.000000     4.058480     2 ; "
   CC321    OC301   CC3062   OC3C61     9   180.000000     0.460240     3 ; "
  CC3163    CC321    OC301   CC3062     9   180.000000     2.677760     1 ; from CC3163  CC321   OC301   CC3162
  CC3163    CC321    OC301   CC3062     9   180.000000     0.125520     2 ; "
  CC3163    CC321    OC301   CC3062     9     0.000000     2.552240     3 ; "
  CC3261   CC3062    OC301    CC321     9     0.000000     0.920480     1 ; from C3161  CC3162  OC301   CC321
  CC3261   CC3062    OC301    CC321     9   180.000000     1.171520     2 ; "
  CC3261   CC3062    OC301    CC321     9     0.000000     3.723760     3 ; "
   CC321    OC301   CC3062    CC2O2     9     0.000000     1.188256     3 ; from CC3161  OC301   CC3062  CC2O2
  OC3C61   CC3062    OC301    CC312     9     0.000000     5.633338     1 ; RMSE = 1.59697
  OC3C61   CC3062    OC301    CC312     9     0.000000    12.862871     2 ; RMSE = 1.59697
  OC3C61   CC3062    OC301    CC312     9   180.000000     3.505355     3 ; RMSE = 1.59697
   CC312    CC312    OC301   CC3062     9   180.000000    12.944041     1 ; RMSE = 1.59697
   CC312    CC312    OC301   CC3062     9   180.000000     2.968966     2 ; RMSE = 1.59697
   CC312    CC312    OC301   CC3062     9     0.000000     0.102508     3 ; RMSE = 1.59697
   OC301    CC312    CC322    OC311     9   180.000000     7.426182     1 ; RMSE = 1.59697
   OC301    CC312    CC322    OC311     9     0.000000     6.574319     2 ; RMSE = 1.59697
   OC301    CC312    CC322    OC311     9     0.000000     7.620738     3 ; RMSE = 1.59697
   CC322    CC312    OC301   CC3062     9   180.000000    17.951452     1 ; RMSE = 1.59697
   CC322    CC312    OC301   CC3062     9   180.000000     2.021290     2 ; RMSE = 1.59697
   CC322    CC312    OC301   CC3062     9   180.000000     0.204179     3 ; RMSE = 1.59697
   OC301    CC312    CC312    OC311     9   180.000000     7.181418     1 ; RMSE = 1.59697
   OC301    CC312    CC312    OC311     9   180.000000     1.662303     2 ; RMSE = 1.59697
   OC301    CC312    CC312    OC311     9     0.000000     8.281391     3 ; RMSE = 1.59697
  CC3163    CC312    CC312    OC301     9   180.000000     1.056042     1 ; RMSE = 1.59697
  CC3163    CC312    CC312    OC301     9     0.000000     1.919201     2 ; RMSE = 1.59697
  CC3163    CC312    CC312    OC301     9   180.000000     4.940049     3 ; RMSE = 1.59697
   CC2O2   CC3062    OC301    CC312     9   180.000000     4.883146     1 ; RMSE = 1.59697
   CC2O2   CC3062    OC301    CC312     9     0.000000     6.362609     2 ; RMSE = 1.59697
   CC2O2   CC3062    OC301    CC312     9   180.000000     4.250944     3 ; RMSE = 1.59697
  CC3261   CC3062    OC301    CC312     9   180.000000     6.415746     1 ; RMSE = 1.59697
  CC3261   CC3062    OC301    CC312     9     0.000000     6.666367     2 ; RMSE = 1.59697
  CC3261   CC3062    OC301    CC312     9     0.000000     5.778522     3 ; RMSE = 1.59697
   OC301    CC312    CC312     HCA1     9     0.000000     0.585760     3 ; from HCA1    CC312   CC312   OC311
    HCA1    CC312    OC301   CC3062     9     0.000000     1.188256     3 ; from CC3162  OC301   CC321   HCA2
   OC301    CC312    CC322     HCA2     9     0.000000     0.585760     3 ; from HCA2    CC322   CC312   OC311
  OC3C61   CC3062    OC301    CC322     9     0.000000     8.793931     1 ; RMSE = 1.5934
  OC3C61   CC3062    OC301    CC322     9     0.000000     5.900277     2 ; RMSE = 1.5934
  OC3C61   CC3062    OC301    CC322     9     0.000000     1.912088     3 ; RMSE = 1.5934
   CC312    CC322    OC301   CC3062     9   180.000000    10.650372     1 ; RMSE = 1.5934
   CC312    CC322    OC301   CC3062     9   180.000000     3.312891     2 ; RMSE = 1.5934
   CC312    CC322    OC301   CC3062     9   180.000000     4.028355     3 ; RMSE = 1.5934
   OC311    CC312    CC322    OC301     9   180.000000    13.869960     1 ; RMSE = 1.5934
   OC311    CC312    CC322    OC301     9   180.000000     7.040835     2 ; RMSE = 1.5934
   OC311    CC312    CC322    OC301     9   180.000000    12.357026     3 ; RMSE = 1.5934
   CC312    CC312    CC322    OC301     9     0.000000     2.479857     1 ; RMSE = 1.5934
   CC312    CC312    CC322    OC301     9   180.000000     5.422882     2 ; RMSE = 1.5934
   CC312    CC312    CC322    OC301     9     0.000000     9.107313     3 ; RMSE = 1.5934
   CC2O2   CC3062    OC301    CC322     9   180.000000     1.727155     1 ; RMSE = 1.5934
   CC2O2   CC3062    OC301    CC322     9   180.000000     1.202900     2 ; RMSE = 1.5934
   CC2O2   CC3062    OC301    CC322     9     0.000000     0.286604     3 ; RMSE = 1.5934
  CC3261   CC3062    OC301    CC322     9   180.000000     1.395782     1 ; RMSE = 1.5934
  CC3261   CC3062    OC301    CC322     9     0.000000     0.143093     2 ; RMSE = 1.5934
  CC3261   CC3062    OC301    CC322     9   180.000000     3.054738     3 ; RMSE = 1.5934
   OC301    CC322    CC312     HCA1     9     0.000000     0.585760     3 ; from HCA1    CC312   CC312   OC311
    HCA2    CC322    OC301   CC3062     9     0.000000     1.188256     3 ; from CC3162  OC301   CC321   HCA2
    HCA1   CC3162   CC3161   CC3261     9     0.000000     0.836800     3 ; from HCA1    CC3162  CC3161  CC3161
    HCA2   CC3261   CC3161   CC3162     9     0.000000     0.836800     3 ; from HCA1    CC3161  CC3161  CC3162
  CC3161   CC3261   CC3161   CC3162     9   180.000000     0.794960     3 ; from CC3161  CC3161  CC3161  CC3162
  CC3261   CC3161   CC3163    CC331     9     0.000000     0.836800     3 ; from CC3161  CC3161  CC3163  CC331
  CC3161   CC3261   CC3161   CC3163     9   180.000000     0.794960     3 ; from CC3161  CC3161  CC3161  CC3163
    HCA2   CC3261   CC3161   CC3163     9     0.000000     0.836800     3 ; from HCA1    CC3161  CC3161  CC3163
    HCA1   CC3163   CC3161   CC3261     9     0.000000     0.836800     3 ; from HCA1    CC3163  CC3161  CC3161
    HCA1   CC3161   CC3261   CC3161     9     0.000000     0.836800     3 ; from HCA1    CC3161  CC3161  CC3161
  CC3161   CC3261   CC3161    OC311     9     0.000000     0.836800     3 ; from CC3161  CC3161  CC3161  OC311
  CC3261   CC3161   CC3163   OC3C61     9   180.000000     1.297040     3 ; from CC3161  CC3161  CC3163  OC3C61
  CC3261   CC3161   CC3162   OC3C61     9   180.000000     1.297040     3 ; from CC3161  CC3161  CC3162  OC3C61
  CC3261   CC3161   CC3162    OC311     9     0.000000     0.836800     3 ; from CC3161  CC3161  CC3162  OC311
  CC3261   CC3161   CC3162    OC301     9     0.000000     0.836800     3 ; from CC3161  CC3161  CC3162  OC301
  CC3162   CC3161    OC301    CC2O5     9   180.000000     0.543920     1 ; CC3162  CC3161  OC301   CC3162
  CC3162   CC3161    OC301    CC2O5     9   180.000000     1.046000     2 ; CC3162  CC3161  OC301   CC3162
  CC3162   CC3161    OC301    CC2O5     9   180.000000     0.251040     3 ; CC3162  CC3161  OC301   CC3162
  CC3261   CC3161    OC301    CC2O5     9   180.000000     4.246760     1 ; RMSE = 2.28686
  CC3261   CC3161    OC301    CC2O5     9     0.000000     1.903720     2 ; RMSE = 2.28686
  CC3261   CC3161    OC301    CC2O5     9   180.000000     4.322072     3 ; RMSE = 2.28686
   OC2D1    CC2O5    CC331     HCA3     9   180.000000     0.000000     6 ; OG2D1  CG2O2  CG331  HGA3
   OC301    CC2O5    CC331     HCA3     9   180.000000     0.000000     6 ; OG302  CG2O2  CG331  HGA3
    HCA2   CC3261   CC3161    OC301     9     0.000000     0.585760     3 ; HCA2    CC3261  CC3161  OC311
    HCA1   CC3161    OC301    CC2O5     9     0.000000     0.000000     3 ; HGA1   CG311  OG302  CG2O2
  CC3161    OC301    CC2O5    OC2D1     9   180.000000     4.037560     1 ; OG2D1  CG2O2  OG302  CG301
  CC3161    OC301    CC2O5    OC2D1     9   180.000000    16.108400     2 ; OG2D1  CG2O2  OG302  CG301
  CC3161    OC301    CC2O5    CC331     9   180.000000     8.577200     2 ; CG311  CG2O2  OG302  CG331
  CC3161   CC3261   CC3161    OC301     9     0.000000     0.836800     3 ; from CC3161  CC3161  CC3161  OC311
  CC3161   CC3161    OC301    CC2O5     9   180.000000     0.543920     1 ; CC3161  CC3161  OC301   CC3162
  CC3161   CC3161    OC301    CC2O5     9   180.000000     1.046000     2 ; CC3161  CC3161  OC301   CC3162
  CC3161   CC3161    OC301    CC2O5     9   180.000000     0.251040     3 ; CC3161  CC3161  OC301   CC3162
      SC    NC311   CC3161     HCA1     9     0.000000     0.418400     3 ; SUFMA/B, xxwy
    HCP1    NC311   CC3161     HCA1     9     0.000000     0.418400     3 ; SUFMA/B, xxwy
    HCP1    NC311   CC3161   CC3161     9     0.000000     0.418400     3 ; SUFMA/B, xxwy
    HCP1    NC311   CC3161   CC3162     9     0.000000     0.418400     3 ; SUFMA/B, xxwy
   NC311   CC3161   CC3161   CC3161     9     0.000000     0.836800     3 ; SUFMA/B, xxwy
   NC311   CC3161   CC3162   OC3C61     9     0.000000     0.836800     3 ; SUFMA/B, xxwy
   NC311   CC3161   CC3161     HCA1     9     0.000000     0.836800     3 ; SUFMA/B, xxwy
   NC311   CC3161   CC3162     HCA1     9     0.000000     0.836800     3 ; SUFMA/B, xxwy
   NC311   CC3161   CC3161    OC311     9     0.000000     0.836800     3 ; SUFMA/B, xxwy
   NC311   CC3161   CC3162    OC311     9     0.000000     0.836800     3 ; SUFMA/B, xxwy
   NC311   CC3161   CC3161    OC301     9     0.000000     0.836800     3 ; SUFMA/B, xxwy
   NC311   CC3161   CC3162    OC301     9     0.000000     0.836800     3 ; SUFMA/B, xxwy
   NC311   CC3161   CC3161    OC30P     9     0.000000     0.836800     3 ; SUFMA/B, xxwy
   OC2DP       SC    NC311     HCP1     9     0.000000     1.046000     3 ; SUFMA/B, xxwy
  CC3161    NC311       SC    OC2DP     9     0.000000     0.640152     3 ; SUFMA/B, lsfit RMSE = 1.095, xxwy
  CC3161   CC3161    NC311       SC     9     0.000000     0.673624     3 ; SUFMA/B, lsfit RMSE = 1.095, xxwy
  CC3162   CC3161    NC311       SC     9     0.000000     0.673624     3 ; SUFMA/B, lsfit RMSE = 1.095, xxwy

; specific (non-wildcard) dihedral parameters from toppar_c36_jul22/par_all36_cgenff.prm
;      i        j        k        l  func         phi0         kphi  mult
   NG1T1    CG1N1   CG2R61   CG2R61     9     0.000000     0.041840     2 ; CNP2, by ac_aa
   NG1T1    CG1N1    SG311    CG321     9     0.000000     0.025104     1 ; XCN, by ac_aa
  CG2R53   CG251O   CG25C1   CG2R53     9   180.000000    26.777600     2 ; OIRD, oxindol-3-ylidene rhodanine, kevo & xxwy
  CG2R53   CG251O   CG25C1   CG2RC0     9   180.000000    26.777600     2 ; OIRD, oxindol-3-ylidene rhodanine, kevo & xxwy
  NG2R53   CG251O   CG25C1   CG2R53     9   180.000000    14.225600     2 ; OIHY, 5-(oxindol-3-ylidene)hydantoin, complete ring system, xxwy
  NG2R53   CG251O   CG25C1   CG2RC0     9   180.000000    14.225600     2 ; OIHY, 5-(oxindol-3-ylidene)hydantoin, complete ring system, xxwy
   SG311   CG251O   CG25C1   CG2R53     9   180.000000    26.777600     2 ; OIRD, oxindol-3-ylidene rhodanine, kevo & xxwy
   SG311   CG251O   CG25C1   CG2RC0     9   180.000000    26.777600     2 ; OIRD, oxindol-3-ylidene rhodanine, kevo & xxwy
  CG2R53   CG251O   CG2DC1   CG2R51     9   180.000000    16.826793     2 ; from CG331 CG2DC1 CG251O CG2R53, SWG
  CG2R53   CG251O   CG2DC1   CG2R61     9   180.000000    16.826793     2 ; from CG331 CG2DC1 CG251O CG2R53, XYG
  CG2R53   CG251O   CG2DC1    CG331     9   180.000000    16.826793     2 ; NRQ, by ac_aa
  CG2R53   CG251O   CG2DC1     HGA4     9   180.000000    16.336846     2 ; NRQ, by ac_aa
  NG2R50   CG251O   CG2DC1   CG2R51     9   180.000000    18.860635     2 ; from CG331 CG2DC1 CG251O NG2R50, SWG
  NG2R50   CG251O   CG2DC1   CG2R61     9   180.000000    19.490746     2 ; from CG331 CG2DC1 CG251O NG2R50, XYG
  NG2R50   CG251O   CG2DC1    CG331     9   180.000000    19.490746     2 ; NRQ, by ac_aa
  NG2R50   CG251O   CG2DC1     HGA4     9   180.000000    22.544229     2 ; NRQ, by ac_aa
  CG2R53   CG251O   CG2DC3     HGA5     9   180.000000    16.317600     2 ; MRDN, methylidene rhodanine, kevo & xxwy
  NG2R50   CG251O   CG2DC3     HGA5     9   180.000000    26.572166     2 ; MDO, by ac_aa
  NG2R53   CG251O   CG2DC3     HGA5     9   180.000000    19.246400     2 ; MHYO, 5-methylenehydantoin, xxwy
   SG311   CG251O   CG2DC3     HGA5     9   180.000000    22.175200     2 ; MRDN, methylidene rhodanine, kevo & xxwy
  CG25C1   CG251O   CG2R53   NG2R53     9   180.000000    20.920000     2 ; OIRD, oxindol-3-ylidene rhodanine, kevo & xxwy
  CG25C1   CG251O   CG2R53    OG2D1     9   180.000000    16.736000     2 ; OIRD, oxindol-3-ylidene rhodanine, kevo & xxwy
  CG2DC1   CG251O   CG2R53   NG2R51     9   180.000000     0.418400     2 ; from CG2DC3 CG25C1 CG2R53 NG2R51, PENALTY= 8.5 CRQ SWG CRF CRO PIA GYS DYG NRQ
  CG2DC1   CG251O   CG2R53    OG2D1     9   180.000000     3.347200     2 ; from CG2DC3 CG251O CG2R53 OG2D1, PENALTY= 3.5 CRQ SWG CRF CRO PIA GYS DYG NRQ
  CG2DC3   CG251O   CG2R53   NG2R51     9   180.000000     0.418400     2 ; from CG2DC3 CG25C1 CG2R53 NG2R51, penalty= 5 MDO
  CG2DC3   CG251O   CG2R53   NG2R53     9   180.000000     0.836800     2 ; MRDN, methylidene rhodanine, kevo & xxwy
  CG2DC3   CG251O   CG2R53    OG2D1     9   180.000000     3.347200     2 ; MRDN, methylidene rhodanine, kevo & xxwy
  NG2R50   CG251O   CG2R53   NG2R51     9   180.000000     0.020920     2 ; MDO, by ac_aa
  NG2R50   CG251O   CG2R53    OG2D1     9   180.000000     0.004602     2 ; NRQ, by ac_aa
  NG2R53   CG251O   CG2R53   NG2R53     9   180.000000     0.836800     2 ; MHYO, 5-methylenehydantoin, xxwy
  NG2R53   CG251O   CG2R53    OG2D1     9   180.000000    18.828000     2 ; MHYO, 5-methylenehydantoin, xxwy
   SG311   CG251O   CG2R53   NG2R53     9   180.000000     5.020800     2 ; MRDN, methylidene rhodanine, kevo & xxwy
   SG311   CG251O   CG2R53    OG2D1     9   180.000000     3.347200     2 ; MRDN, methylidene rhodanine, kevo & xxwy
  CG2DC1   CG251O   NG2R50   CG2R53     9   180.000000     7.447520     2 ; NRQ, by ac_aa
  CG2DC3   CG251O   NG2R50   CG2R53     9   180.000000     6.310727     2 ; MDO, by ac_aa
  CG2R53   CG251O   NG2R50   CG2R53     9   180.000000     0.319658     2 ; MDO, by ac_aa
  CG25C1   CG251O   NG2R53   CG2R53     9   180.000000    16.736000     2 ; OIHY, 5-(oxindol-3-ylidene)hydantoin, complete ring system, xxwy
  CG25C1   CG251O   NG2R53     HGP1     9   180.000000     1.673600     2 ; OIHY, 5-(oxindol-3-ylidene)hydantoin, complete ring system, xxwy
  CG2DC3   CG251O   NG2R53   CG2R53     9   180.000000     4.184000     2 ; MHYO, 5-methylenehydantoin, xxwy
  CG2DC3   CG251O   NG2R53     HGP1     9   180.000000     1.673600     2 ; MHYO, 5-methylenehydantoin, xxwy
  CG2R53   CG251O   NG2R53   CG2R53     9   180.000000     2.092000     2 ; MHYO, 5-methylenehydantoin, xxwy
  CG2R53   CG251O   NG2R53     HGP1     9   180.000000     1.673600     2 ; MHYO, 5-methylenehydantoin, xxwy
  CG25C1   CG251O    SG311   CG2R53     9     0.000000    16.736000     3 ; OIRD, oxindol-3-ylidene rhodanine, kevo & xxwy
  CG2DC3   CG251O    SG311   CG2R53     9     0.000000     0.836800     3 ; MRDN, methylidene rhodanine, kevo & xxwy
  CG2R53   CG251O    SG311   CG2R53     9   180.000000     5.020800     3 ; MRDN, methylidene rhodanine, kevo & xxwy
  CG2R53   CG252O   CG25C2   CG2R53     9   180.000000    26.777600     2 ; OIRD, oxindol-3-ylidene rhodanine, kevo & xxwy
  CG2R53   CG252O   CG25C2   CG2RC0     9   180.000000    26.777600     2 ; OIRD, oxindol-3-ylidene rhodanine, kevo & xxwy
  NG2R53   CG252O   CG25C2   CG2R53     9   180.000000    14.225600     2 ; OIHY, 5-(oxindol-3-ylidene)hydantoin, complete ring system, xxwy
  NG2R53   CG252O   CG25C2   CG2RC0     9   180.000000    14.225600     2 ; OIHY, 5-(oxindol-3-ylidene)hydantoin, complete ring system, xxwy
   SG311   CG252O   CG25C2   CG2R53     9   180.000000    26.777600     2 ; OIRD, oxindol-3-ylidene rhodanine, kevo & xxwy
   SG311   CG252O   CG25C2   CG2RC0     9   180.000000    26.777600     2 ; OIRD, oxindol-3-ylidene rhodanine, kevo & xxwy
  CG2R53   CG252O   CG2DC2   CG2R51     9   180.000000    16.826793     2 ; from CG331 CG2DC1 CG251O CG2R53, SWG
  CG2R53   CG252O   CG2DC2   CG2R61     9   180.000000    16.826793     2 ; from CG331 CG2DC1 CG251O CG2R53, XYG
  CG2R53   CG252O   CG2DC2    CG331     9   180.000000    16.826793     2 ; NRQ, by ac_aa
  CG2R53   CG252O   CG2DC2     HGA4     9   180.000000    16.336846     2 ; NRQ, by ac_aa
  NG2R50   CG252O   CG2DC2   CG2R51     9   180.000000    18.860635     2 ; from CG331 CG2DC1 CG251O NG2R50, SWG
  NG2R50   CG252O   CG2DC2   CG2R61     9   180.000000    19.490746     2 ; from CG331 CG2DC1 CG251O NG2R50, XYG
  NG2R50   CG252O   CG2DC2    CG331     9   180.000000    19.490746     2 ; NRQ, by ac_aa
  NG2R50   CG252O   CG2DC2     HGA4     9   180.000000    22.544229     2 ; NRQ, by ac_aa
  CG2R53   CG252O   CG2DC3     HGA5     9   180.000000    16.317600     2 ; MRDN, methylidene rhodanine, kevo & xxwy
  NG2R50   CG252O   CG2DC3     HGA5     9   180.000000    26.572166     2 ; MDO, by ac_aa
  NG2R53   CG252O   CG2DC3     HGA5     9   180.000000    19.246400     2 ; MHYO, 5-methylenehydantoin, xxwy
   SG311   CG252O   CG2DC3     HGA5     9   180.000000    22.175200     2 ; MRDN, methylidene rhodanine, kevo & xxwy
  CG25C2   CG252O   CG2R53   NG2R53     9   180.000000    20.920000     2 ; OIRD, oxindol-3-ylidene rhodanine, kevo & xxwy
  CG25C2   CG252O   CG2R53    OG2D1     9   180.000000    16.736000     2 ; OIRD, oxindol-3-ylidene rhodanine, kevo & xxwy
  CG2DC2   CG252O   CG2R53   NG2R51     9   180.000000     0.418400     2 ; from CG2DC3 CG25C1 CG2R53 NG2R51, PENALTY= 8.5 CRQ SWG CRF CRO PIA GYS DYG NRQ
  CG2DC2   CG252O   CG2R53    OG2D1     9   180.000000     3.347200     2 ; from CG2DC3 CG251O CG2R53 OG2D1, PENALTY= 3.5 CRQ SWG CRF CRO PIA GYS DYG NRQ
  CG2DC3   CG252O   CG2R53   NG2R51     9   180.000000     0.418400     2 ; from CG2DC3 CG25C1 CG2R53 NG2R51, penalty= 5 MDO
  CG2DC3   CG252O   CG2R53   NG2R53     9   180.000000     0.836800     2 ; MRDN, methylidene rhodanine, kevo & xxwy
  CG2DC3   CG252O   CG2R53    OG2D1     9   180.000000     3.347200     2 ; MRDN, methylidene rhodanine, kevo & xxwy
  NG2R50   CG252O   CG2R53   NG2R51     9   180.000000     0.020920     2 ; MDO, by ac_aa
  NG2R50   CG252O   CG2R53    OG2D1     9   180.000000     0.004602     2 ; NRQ, by ac_aa
  NG2R53   CG252O   CG2R53   NG2R53     9   180.000000     0.836800     2 ; MHYO, 5-methylenehydantoin, xxwy
  NG2R53   CG252O   CG2R53    OG2D1     9   180.000000    18.828000     2 ; MHYO, 5-methylenehydantoin, xxwy
   SG311   CG252O   CG2R53   NG2R53     9   180.000000     5.020800     2 ; MRDN, methylidene rhodanine, kevo & xxwy
   SG311   CG252O   CG2R53    OG2D1     9   180.000000     3.347200     2 ; MRDN, methylidene rhodanine, kevo & xxwy
  CG2DC2   CG252O   NG2R50   CG2R53     9   180.000000     7.447520     2 ; NRQ, by ac_aa
  CG2DC3   CG252O   NG2R50   CG2R53     9   180.000000     6.310727     2 ; MDO, by ac_aa
  CG2R53   CG252O   NG2R50   CG2R53     9   180.000000     0.319658     2 ; MDO, by ac_aa
  CG25C2   CG252O   NG2R53   CG2R53     9   180.000000    16.736000     2 ; OIHY, 5-(oxindol-3-ylidene)hydantoin, complete ring system, xxwy
  CG25C2   CG252O   NG2R53     HGP1     9   180.000000     1.673600     2 ; OIHY, 5-(oxindol-3-ylidene)hydantoin, complete ring system, xxwy
  CG2DC3   CG252O   NG2R53   CG2R53     9   180.000000     4.184000     2 ; MHYO, 5-methylenehydantoin, xxwy
  CG2DC3   CG252O   NG2R53     HGP1     9   180.000000     1.673600     2 ; MHYO, 5-methylenehydantoin, xxwy
  CG2R53   CG252O   NG2R53   CG2R53     9   180.000000     2.092000     2 ; MHYO, 5-methylenehydantoin, xxwy
  CG2R53   CG252O   NG2R53     HGP1     9   180.000000     1.673600     2 ; MHYO, 5-methylenehydantoin, xxwy
  CG25C2   CG252O    SG311   CG2R53     9     0.000000    16.736000     3 ; OIRD, oxindol-3-ylidene rhodanine, kevo & xxwy
  CG2DC3   CG252O    SG311   CG2R53     9     0.000000     0.836800     3 ; MRDN, methylidene rhodanine, kevo & xxwy
  CG2R53   CG252O    SG311   CG2R53     9   180.000000     5.020800     3 ; MRDN, methylidene rhodanine, kevo & xxwy
  CG2R53   CG25C1   CG2DC3     HGA5     9   180.000000    18.409600     2 ; MEOI, methyleneoxindole, kevo & xxwy
  CG2RC0   CG25C1   CG2DC3     HGA5     9   180.000000    18.409600     2 ; MEOI, methyleneoxindole, kevo & xxwy
  CG251O   CG25C1   CG2R53   NG2R51     9   180.000000    12.552000     2 ; OIRD, oxindol-3-ylidene rhodanine, kevo & xxwy
  CG251O   CG25C1   CG2R53    OG2D1     9   180.000000    16.736000     2 ; OIRD, oxindol-3-ylidene rhodanine, kevo & xxwy
  CG2DC3   CG25C1   CG2R53   NG2R51     9   180.000000     0.418400     2 ; MEOI, methyleneoxindole, kevo & xxwy
  CG2DC3   CG25C1   CG2R53    OG2D1     9   180.000000     4.184000     2 ; MEOI, methyleneoxindole, kevo & xxwy
  CG2RC0   CG25C1   CG2R53   NG2R51     9   180.000000     5.020800     2 ; MEOI, methyleneoxindole, kevo & xxwy
  CG2RC0   CG25C1   CG2R53    OG2D1     9   180.000000     5.020800     2 ; MEOI, methyleneoxindole, kevo & xxwy
  CG251O   CG25C1   CG2RC0   CG2R61     9   180.000000    16.736000     2 ; OIRD, oxindol-3-ylidene rhodanine, kevo & xxwy
  CG251O   CG25C1   CG2RC0   CG2RC0     9   180.000000    16.736000     2 ; OIRD, oxindol-3-ylidene rhodanine, kevo & xxwy
  CG2DC3   CG25C1   CG2RC0   CG2R61     9   180.000000     0.418400     2 ; MEOI, methyleneoxindole, kevo & xxwy
  CG2DC3   CG25C1   CG2RC0   CG2RC0     9   180.000000     0.418400     2 ; MEOI, methyleneoxindole, kevo & xxwy
  CG2R53   CG25C1   CG2RC0   CG2R61     9   180.000000    12.552000     2 ; MEOI, methyleneoxindole, kevo & xxwy
  CG2R53   CG25C1   CG2RC0   CG2RC0     9   180.000000    14.644000     2 ; MEOI, methyleneoxindole, kevo & xxwy
  CG2R53   CG25C2   CG2DC3     HGA5     9   180.000000    18.409600     2 ; MEOI, methyleneoxindole, kevo & xxwy
  CG2RC0   CG25C2   CG2DC3     HGA5     9   180.000000    18.409600     2 ; MEOI, methyleneoxindole, kevo & xxwy
  CG252O   CG25C2   CG2R53   NG2R51     9   180.000000    12.552000     2 ; OIRD, oxindol-3-ylidene rhodanine, kevo & xxwy
  CG252O   CG25C2   CG2R53    OG2D1     9   180.000000    16.736000     2 ; OIRD, oxindol-3-ylidene rhodanine, kevo & xxwy
  CG2DC3   CG25C2   CG2R53   NG2R51     9   180.000000     0.418400     2 ; MEOI, methyleneoxindole, kevo & xxwy
  CG2DC3   CG25C2   CG2R53    OG2D1     9   180.000000     4.184000     2 ; MEOI, methyleneoxindole, kevo & xxwy
  CG2RC0   CG25C2   CG2R53   NG2R51     9   180.000000     5.020800     2 ; MEOI, methyleneoxindole, kevo & xxwy
  CG2RC0   CG25C2   CG2R53    OG2D1     9   180.000000     5.020800     2 ; MEOI, methyleneoxindole, kevo & xxwy
  CG252O   CG25C2   CG2RC0   CG2R61     9   180.000000    16.736000     2 ; OIRD, oxindol-3-ylidene rhodanine, kevo & xxwy
  CG252O   CG25C2   CG2RC0   CG2RC0     9   180.000000    16.736000     2 ; OIRD, oxindol-3-ylidene rhodanine, kevo & xxwy
  CG2DC3   CG25C2   CG2RC0   CG2R61     9   180.000000     0.418400     2 ; MEOI, methyleneoxindole, kevo & xxwy
  CG2DC3   CG25C2   CG2RC0   CG2RC0     9   180.000000     0.418400     2 ; MEOI, methyleneoxindole, kevo & xxwy
  CG2R53   CG25C2   CG2RC0   CG2R61     9   180.000000    12.552000     2 ; MEOI, methyleneoxindole, kevo & xxwy
  CG2R53   CG25C2   CG2RC0   CG2RC0     9   180.000000    14.644000     2 ; MEOI, methyleneoxindole, kevo & xxwy
   CG301    CG2D1    CG2D1    CG321     9   180.000000     1.882800     1 ; CHL1, cholesterol
   CG301    CG2D1    CG2D1    CG321     9   180.000000    35.564000     2 ; CHL1, cholesterol
   CG301    CG2D1    CG2D1    CG331     9   180.000000    41.840000     2 ; RETINOL TMCH
   CG301    CG2D1    CG2D1     HGA4     9   180.000000     4.184000     2 ; LIPID 2-butene, adm jr., 8/98 update
   CG311    CG2D1    CG2D1    CG314     9   180.000000     0.392878     1 ; ACZ, by ac_aa
   CG311    CG2D1    CG2D1    CG314     9   180.000000    18.439306     2 ; ACZ, by ac_aa
   CG311    CG2D1    CG2D1     HGA4     9   180.000000     4.184000     2 ; from CG321 CG2D1 CG2D1 HGA4, PENALTY= 0.6 ACZ
   CG314    CG2D1    CG2D1     HGA4     9   180.000000    27.284282     2 ; ACZ, by ac_aa
   CG321    CG2D1    CG2D1    CG321     9   180.000000     1.882800     1 ; LIPID 2-butene, adm jr., 4/04
   CG321    CG2D1    CG2D1    CG321     9   180.000000    35.564000     2 ; LIPID
   CG321    CG2D1    CG2D1    CG331     9   180.000000     1.882800     1 ; LIPID 2-butene, adm jr., 4/04
   CG321    CG2D1    CG2D1    CG331     9   180.000000    35.564000     2 ; LIPID
   CG321    CG2D1    CG2D1     HGA4     9   180.000000     4.184000     2 ; LIPID 2-butene, adm jr., 8/98 update
   CG324    CG2D1    CG2D1    CG331     9   180.000000     1.882800     1 ; IAU, yxu, RNA
   CG324    CG2D1    CG2D1    CG331     9   180.000000    29.288000     2 ; IAU, yxu, RNA
   CG331    CG2D1    CG2D1    CG331     9   180.000000     1.882800     1 ; LIPID 2-butene, adm jr., 4/04
   CG331    CG2D1    CG2D1    CG331     9   180.000000    35.564000     2 ; LIPID
   CG331    CG2D1    CG2D1     HGA4     9   180.000000     4.184000     2 ; LIPID 2-butene, adm jr., 8/98 update
    HGA4    CG2D1    CG2D1     HGA4     9   180.000000     4.184000     2 ; LIPID 2-butene, adm jr., 8/98 update
   CG321    CG2D1   CG2D1O    NG301     9   180.000000    12.552000     2 ; NICH; Kenno: nad/ppi, jjp1/adm jr. 7/95 says 0.1 but that's unlikely ==> re-optimize
   CG321    CG2D1   CG2D1O    NG311     9   180.000000    12.552000     2 ; NICH; Kenno: nad/ppi, jjp1/adm jr. 7/95 says 0.1 but that's unlikely ==> re-optimize
   CG321    CG2D1   CG2D1O   OG3R60     9   180.000000    12.552000     2 ; PY01, 4h-pyran
   CG321    CG2D1   CG2D1O     HGA4     9   180.000000    25.104000     2 ; PY01, 4h-pyran
    HGA4    CG2D1   CG2D1O    NG301     9   180.000000     4.184000     2 ; NICH; Kenno: nad/ppi, jjp1/adm jr. 7/95 says 0.1 but that's unlikely ==> re-optimize
    HGA4    CG2D1   CG2D1O    NG311     9   180.000000     4.184000     2 ; NICH; Kenno: nad/ppi, jjp1/adm jr. 7/95 says 0.1 but that's unlikely ==> re-optimize
    HGA4    CG2D1   CG2D1O   OG3R60     9   180.000000    33.472000     2 ; PY01, 4h-pyran
    HGA4    CG2D1   CG2D1O     HGA4     9   180.000000     4.184000     2 ; PY01, 4h-pyran
   CG1T1    CG2D1    CG2D2     HGA5     9   180.000000    21.756800     2 ; BEYN
   CG321    CG2D1    CG2D2     HGA5     9   180.000000    21.756800     2 ; LIPID propene, yin,adm jr., 12/95
   CG331    CG2D1    CG2D2     HGA5     9   180.000000    21.756800     2 ; LIPID propene, yin,adm jr., 12/95
    HGA4    CG2D1    CG2D2     HGA5     9   180.000000    21.756800     2 ; LIPID propene, yin,adm jr., 12/95
   CG321    CG2D1   CG2D2O    NG301     9   180.000000    12.552000     2 ; NICH; Kenno: nad/ppi, jjp1/adm jr. 7/95 says 0.1 but that's unlikely ==> re-optimize
   CG321    CG2D1   CG2D2O    NG311     9   180.000000    12.552000     2 ; NICH; Kenno: nad/ppi, jjp1/adm jr. 7/95 says 0.1 but that's unlikely ==> re-optimize
   CG321    CG2D1   CG2D2O   OG3R60     9   180.000000    12.552000     2 ; PY01, 4h-pyran
   CG321    CG2D1   CG2D2O     HGA4     9   180.000000    25.104000     2 ; PY01, 4h-pyran
    HGA4    CG2D1   CG2D2O    NG301     9   180.000000     4.184000     2 ; NICH; Kenno: nad/ppi, jjp1/adm jr. 7/95 says 0.1 but that's unlikely ==> re-optimize
    HGA4    CG2D1   CG2D2O    NG311     9   180.000000     4.184000     2 ; NICH; Kenno: nad/ppi, jjp1/adm jr. 7/95 says 0.1 but that's unlikely ==> re-optimize
    HGA4    CG2D1   CG2D2O   OG3R60     9   180.000000    33.472000     2 ; PY01, 4h-pyran
    HGA4    CG2D1   CG2D2O     HGA4     9   180.000000     4.184000     2 ; PY01, 4h-pyran
   CG2D1    CG2D1    CG301    CG311     9   180.000000     2.092000     1 ; CHOLEST cholesterol
   CG2D1    CG2D1    CG301    CG311     9   180.000000     5.439200     3 ; CHOLEST cholesterol
   CG2D1    CG2D1    CG301    CG321     9   180.000000     2.092000     1 ; CHOLEST cholesterol
   CG2D1    CG2D1    CG301    CG321     9   180.000000     5.439200     3 ; CHOLEST cholesterol
   CG2D1    CG2D1    CG301    CG331     9   180.000000     2.092000     1 ; CHOLEST cholesterol
   CG2D1    CG2D1    CG301    CG331     9   180.000000     5.439200     3 ; CHOLEST cholesterol
   CG321    CG2D1    CG301    CG311     9   180.000000     0.000000     3 ; CHOLEST cholesterol
   CG321    CG2D1    CG301    CG321     9   180.000000     1.255200     3 ; CHOLEST cholesterol
   CG321    CG2D1    CG301    CG331     9   180.000000     0.000000     3 ; CHOLEST cholesterol
   CG331    CG2D1    CG301    CG321     9     0.000000     1.673600     3 ; RETINOL TMCH
   CG331    CG2D1    CG301    CG331     9     0.000000     1.673600     3 ; RETINOL TMCH
   CG2D1    CG2D1    CG311    CG2D1     9   180.000000     4.184000     1 ; from CG2D1 CG2D1 CG321 CG2D1, PENALTY= 4 ACZ
   CG2D1    CG2D1    CG311    CG2D1     9     0.000000     0.418400     2 ; from CG2D1 CG2D1 CG321 CG2D1, PENALTY= 4 ACZ
   CG2D1    CG2D1    CG311    CG2D1     9   180.000000     1.255200     3 ; from CG2D1 CG2D1 CG321 CG2D1, PENALTY= 4 ACZ
   CG2D1    CG2D1    CG311    CG321     9   180.000000     2.510400     1 ; from CG2D1 CG2D1 CG321 CG321, PENALTY= 4 ACZ
   CG2D1    CG2D1    CG311     HGA1     9   180.000000     1.255200     3 ; from CG2D1 CG2D1 CG321 HGA2, PENALTY= 4 ACZ
    HGA4    CG2D1    CG311    CG2D1     9     0.000000     0.000000     3 ; from HGA4 CG2D1 CG321 CG2D1, PENALTY= 4 ACZ
    HGA4    CG2D1    CG311    CG321     9     0.000000     0.502080     3 ; from HGA4 CG2D1 CG321 CG321, PENALTY= 4 ACZ
    HGA4    CG2D1    CG311     HGA1     9     0.000000     0.000000     3 ; from HGA4 CG2D1 CG321 HGA2, PENALTY= 4 ACZ
   CG2D1    CG2D1    CG314    CG2D1     9   180.000000     4.184000     1 ; from CG2D1 CG2D1 CG321 CG2D1, PENALTY= 5 ACZ
   CG2D1    CG2D1    CG314    CG2D1     9     0.000000     0.418400     2 ; from CG2D1 CG2D1 CG321 CG2D1, PENALTY= 5 ACZ
   CG2D1    CG2D1    CG314    CG2D1     9   180.000000     1.255200     3 ; from CG2D1 CG2D1 CG321 CG2D1, PENALTY= 5 ACZ
   CG2D1    CG2D1    CG314    CG2D1     9     0.000000     0.836800     4 ; from CG2D1 CG2D1 CG321 CG2D1, PENALTY= 5 ACZ
   CG2D1    CG2D1    CG314    NG3P3     9   180.000000     8.960873     1 ; ACZ, by ac_aa
   CG2D1    CG2D1    CG314     HGA1     9   180.000000     1.255200     3 ; from CG2D1 CG2D1 CG321 HGA2, PENALTY= 5 ACZ
    HGA4    CG2D1    CG314    CG2D1     9     0.000000     0.000000     3 ; from HGA4 CG2D1 CG321 CG2D1, PENALTY= 5 ACZ
    HGA4    CG2D1    CG314    NG3P3     9     0.000000     1.039724     3 ; ACZ, by ac_aa
    HGA4    CG2D1    CG314     HGA1     9     0.000000     0.000000     3 ; from HGA4 CG2D1 CG321 HGA2, PENALTY= 5 ACZ
   CG2D1    CG2D1    CG321    CG2D1     9   180.000000     4.184000     1 ; LIPID 2,5-diheptane
   CG2D1    CG2D1    CG321    CG2D1     9     0.000000     0.418400     2 ; LIPID 2,5-diheptane
   CG2D1    CG2D1    CG321    CG2D1     9   180.000000     1.255200     3 ; LIPID 2,5-diheptane
   CG2D1    CG2D1    CG321    CG2D1     9     0.000000     0.836800     4 ; LIPID 2,5-diheptane
   CG2D1    CG2D1    CG321    CG311     9   180.000000     2.092000     1 ; CHOLEST cholesterol
   CG2D1    CG2D1    CG321    CG311     9   180.000000     5.439200     3 ; CHOLEST cholesterol
   CG2D1    CG2D1    CG321    CG321     9   180.000000     2.510400     1 ; LIPID alkenes
   CG2D1    CG2D1    CG321    CG331     9   180.000000     3.765600     1 ; LIPID alkenes
   CG2D1    CG2D1    CG321    CG331     9   180.000000     0.836800     2 ; LIPID alkenes
   CG2D1    CG2D1    CG321    NG311     9   180.000000     6.694400     1 ; 6IA, yxu, RNA
   CG2D1    CG2D1    CG321    NG311     9     0.000000     1.255200     3 ; 6IA, yxu, RNA
   CG2D1    CG2D1    CG321    OG311     9   180.000000     7.949600     1 ; HIA (hbt), yxu, RNA
   CG2D1    CG2D1    CG321    OG311     9   180.000000     1.673600     2 ; HIA, yxu, RNA
   CG2D1    CG2D1    CG321    OG311     9   180.000000     2.510400     3 ; HIA, yxu, RNA
   CG2D1    CG2D1    CG321    SG311     9   180.000000     2.928800     1 ; GAU, from pesu, RNA
   CG2D1    CG2D1    CG321    SG311     9   180.000000     5.857600     3 ; GAU, from pesu, RNA
   CG2D1    CG2D1    CG321     HGA2     9   180.000000     1.255200     3 ; LIPID alkenes
  CG2D1O    CG2D1    CG321    CG2D1     9     0.000000     2.092000     2 ; PY01, 4h-pyran
  CG2D1O    CG2D1    CG321    CG2D1     9     0.000000     1.882800     4 ; PY01, 4h-pyran
  CG2D1O    CG2D1    CG321   CG2DC1     9   180.000000     0.000000     3 ; NICH; Kenno: nad/ppi, jjp1/adm jr. 7/95 says 1.0 3 180 but that's unlikely ==> re-optimize
  CG2D1O    CG2D1    CG321     HGA2     9     0.000000     0.418400     3 ; PY01, 4h-pyran
   CG2D2    CG2D1    CG321    CG2D1     9   180.000000     5.020800     1 ; LIPID 1,4-dipentene
   CG2D2    CG2D1    CG321    CG2D1     9   180.000000     1.673600     2 ; LIPID 1,4-dipentene
   CG2D2    CG2D1    CG321    CG2D1     9   180.000000     5.439200     3 ; LIPID 1,4-dipentene
   CG2D2    CG2D1    CG321    CG321     9   180.000000     2.092000     1 ; 15he, from CG2D2 CG2D1 CG321 CG331, not optimized, yxu, RNA
   CG2D2    CG2D1    CG321    CG321     9   180.000000     5.439200     3 ; 15he, from CG2D2 CG2D1 CG321 CG331, not optimized, yxu, RNA
   CG2D2    CG2D1    CG321    CG331     9   180.000000     2.092000     1 ; LIPID 1-butene, adm jr., 2/00 update
   CG2D2    CG2D1    CG321    CG331     9   180.000000     5.439200     3 ; LIPID 1-butene, adm jr., 2/00 update
   CG2D2    CG2D1    CG321    NG311     9   180.000000     6.694400     1 ; penm, from bepa, yxu, RNA
   CG2D2    CG2D1    CG321    NG311     9     0.000000     1.255200     3 ; penm, from bepa, yxu, RNA
   CG2D2    CG2D1    CG321    OG311     9   180.000000     7.949600     1 ; RETINOL PROL
   CG2D2    CG2D1    CG321    OG311     9   180.000000     1.673600     2 ; RETINOL PROL
   CG2D2    CG2D1    CG321    OG311     9   180.000000     2.510400     3 ; RETINOL PROL
   CG2D2    CG2D1    CG321    SG311     9   180.000000     2.928800     1 ; pesu, RNA
   CG2D2    CG2D1    CG321    SG311     9   180.000000     5.857600     3 ; pesu, RNA
   CG2D2    CG2D1    CG321     HGA2     9     0.000000     0.502080     3 ; LIPID 1-butene, yin,adm jr., 12/95
  CG2D2O    CG2D1    CG321    CG2D1     9     0.000000     2.092000     2 ; PY01, 4h-pyran
  CG2D2O    CG2D1    CG321    CG2D1     9     0.000000     1.882800     4 ; PY01, 4h-pyran
  CG2D2O    CG2D1    CG321   CG2DC2     9   180.000000     0.000000     3 ; NICH; Kenno: nad/ppi, jjp1/adm jr. 7/95 says 1.0 3 180 but that's unlikely ==> re-optimize
  CG2D2O    CG2D1    CG321     HGA2     9     0.000000     0.418400     3 ; PY01, 4h-pyran
   CG301    CG2D1    CG321    CG311     9   180.000000     1.255200     3 ; CHOLEST cholesterol
   CG301    CG2D1    CG321     HGA2     9     0.000000     0.125520     3 ; CHOLEST cholesterol
   CG331    CG2D1    CG321    CG321     9     0.000000     0.794960     3 ; RETINOL TMCH
   CG331    CG2D1    CG321    OG311     9   180.000000     1.046000     1 ; HIA, yxu, RNA
   CG331    CG2D1    CG321    OG311     9   180.000000     2.175680     2 ; HIA, yxu, RNA
   CG331    CG2D1    CG321    OG311     9   180.000000     0.962320     3 ; HIA, yxu, RNA
   CG331    CG2D1    CG321     HGA2     9     0.000000     0.794960     3 ; RETINOL TMCH
    HGA4    CG2D1    CG321    CG2D1     9     0.000000     0.000000     3 ; LIPID 1,4-dipentene
    HGA4    CG2D1    CG321   CG2DC1     9     0.000000     0.000000     3 ; NICH; Kenno: nad/ppi, jjp1/adm jr. 7/95 says 1.0 3 180 but that's unlikely ==> re-optimize
    HGA4    CG2D1    CG321   CG2DC2     9     0.000000     0.000000     3 ; NICH; Kenno: nad/ppi, jjp1/adm jr. 7/95 says 1.0 3 180 but that's unlikely ==> re-optimize
    HGA4    CG2D1    CG321    CG311     9     0.000000     0.000000     3 ; CHOLEST cholesterol
    HGA4    CG2D1    CG321    CG321     9     0.000000     0.502080     3 ; LIPID butene, yin,adm jr., 12/95
    HGA4    CG2D1    CG321    CG331     9     0.000000     0.502080     3 ; LIPID butene, yin,adm jr., 12/95
    HGA4    CG2D1    CG321    NG311     9     0.000000     1.087840     3 ; 6IA, yxu, RNA
    HGA4    CG2D1    CG321    OG311     9     0.000000     0.836800     3 ; RETINOL PROL
    HGA4    CG2D1    CG321    SG311     9     0.000000     0.836800     3 ; GAU, yxu, RNA
    HGA4    CG2D1    CG321     HGA2     9     0.000000     0.000000     3 ; LIPID butene, adm jr., 2/00 update
   CG2D1    CG2D1    CG324    NG3P2     9     0.000000     2.510400     1 ; IAU, yxu, RNA
   CG2D1    CG2D1    CG324    NG3P2     9     0.000000     3.430880     2 ; IAU, yxu, RNA
   CG2D1    CG2D1    CG324     HGA2     9   180.000000     1.255200     3 ; IAU, yxu, RNA
    HGA4    CG2D1    CG324    NG3P2     9     0.000000     0.836800     3 ; IAU, yxu, RNA
    HGA4    CG2D1    CG324     HGA2     9     0.000000     0.000000     3 ; IAU, from HGA4 CG2D1 CG321 HGA2, yxu, RNA
   CG2D1    CG2D1    CG331     HGA3     9   180.000000     1.255200     3 ; LIPID alkenes
   CG2D2    CG2D1    CG331     HGA3     9   180.000000     0.209200     3 ; LIPID propene, yin,adm jr., 12/95
   CG301    CG2D1    CG331     HGA3     9     0.000000     0.669440     3 ; RETINOL TMCH
   CG321    CG2D1    CG331     HGA3     9     0.000000     0.669440     3 ; RETINOL TMCH
   CG331    CG2D1    CG331     HGA3     9     0.000000     0.669440     3 ; IAU, from CG321 CG2D1 CG331 HGA3, yxu, RNA
   NG2D1    CG2D1    CG331     HGA3     9   180.000000     0.418400     3 ; RETINOL SCH1, Schiff's base, deprotonated
   NG2P1    CG2D1    CG331     HGA3     9   180.000000     0.627600     3 ; RETINOL SCH2, Schiff's base, protonated
    HGA4    CG2D1    CG331     HGA3     9     0.000000     0.000000     3 ; LIPID butene, adm jr., 2/00 update
   HGR52    CG2D1    CG331     HGA3     9     0.000000     0.627600     3 ; RETINOL SCH2, Schiff's base, protonated
   CG331    CG2D1    NG2D1    CG321     9   180.000000    50.208000     2 ; EEPI, from CG331 CG2D1 NG2D1 CG331, fylin
   CG331    CG2D1    NG2D1    CG331     9   180.000000    50.208000     2 ; RETINOL SCH1, Schiff's base, deprotonated
   CG331    CG2D1    NG2D1    NG2S1     9   180.000000    50.208000     2 ; HDZ1, hydrazone model cmpd
    HGA4    CG2D1    NG2D1    CG321     9   180.000000    35.564000     2 ; EEPI, from HGA4 CG2D1 NG2D1 CG331, fylin
    HGA4    CG2D1    NG2D1    CG331     9   180.000000    35.564000     2 ; RETINOL SCH1, Schiff's base, deprotonated
    HGA4    CG2D1    NG2D1    NG2S1     9   180.000000    16.736000     2 ; HDZ1, hydrazone model cmpd
   CG331    CG2D1    NG2P1    CG334     9   180.000000    29.288000     2 ; RETINOL SCH2, Schiff's base, protonated
   CG331    CG2D1    NG2P1     HGP2     9   180.000000    20.920000     2 ; RETINOL SCH2, Schiff's base, protonated
   HGR52    CG2D1    NG2P1    CG334     9   180.000000    35.564000     2 ; RETINOL SCH2, Schiff's base, protonated
   HGR52    CG2D1    NG2P1     HGP2     9   180.000000    20.920000     2 ; RETINOL SCH2, Schiff's base, protonated
   NG321   CG2D1O    CG2D2     HGA5     9   180.000000     8.368000     2 ; AMET, ethenamine, 1.0->2.0 to improve molvib; pram
   OG301   CG2D1O    CG2D2     HGA5     9   180.000000    37.656000     2 ; MOET, Methoxyethene, xxwy
    HGA4   CG2D1O    CG2D2     HGA5     9   180.000000     8.368000     2 ; MOET, Methoxyethene, xxwy
   CG2O1   CG2D1O   CG2DC1    CG2O2     9   180.000000     3.297829     1 ; DYAP, by ac_aa
   CG2O1   CG2D1O   CG2DC1    CG2O2     9   180.000000    28.968761     2 ; DYAP, by ac_aa
   CG2O1   CG2D1O   CG2DC1    CG2O3     9   180.000000     3.297829     1 ; from CG2O2 CG2DC1 CG2D1O CG2O1
   CG2O1   CG2D1O   CG2DC1    CG2O3     9   180.000000    28.968761     2 ; from CG2O2 CG2DC1 CG2D1O CG2O1
   CG2O1   CG2D1O   CG2DC1    CG331     9   180.000000     3.297829     1 ; from CG2O2 CG2DC1 CG2D1O CG2O1, sm071
   CG2O1   CG2D1O   CG2DC1    CG331     9   180.000000    28.968761     2 ; from CG2O2 CG2DC1 CG2D1O CG2O1 , sm071
   CG2O1   CG2D1O   CG2DC1     HGA4     9   180.000000    22.015790     2 ; DYAP, by ac_aa
   CG2O5   CG2D1O   CG2DC1    CG2O5     9   180.000000     2.345132     1 ; TPQ, by ac_aa
   CG2O5   CG2D1O   CG2DC1    CG2O5     9   180.000000     8.368000     2 ; TPQ, by ac_aa
   CG2O5   CG2D1O   CG2DC1     HGA4     9   180.000000    13.439845     2 ; TPQ, by ac_aa
   NG2D1   CG2D1O   CG2DC1    CG2O1     9   180.000000    21.139242     2 ; ABSB, amide base, sr
   NG2D1   CG2D1O   CG2DC1     HGA4     9   180.000000    12.552000     2 ; ABSB, amide base, sr
   NG2S1   CG2D1O   CG2DC1    CG2O2     9   180.000000    11.951596     2 ; DYAP, by ac_aa
   NG2S1   CG2D1O   CG2DC1    CG2O3     9   180.000000    11.951596     2 ; from CG2O2 CG2DC1 CG2D1O NG2S1
   NG2S1   CG2D1O   CG2DC1    CG331     9   180.000000    11.951596     2 ; from CG2O2 CG2DC1 CG2D1O NG2S1, sm071
   NG2S1   CG2D1O   CG2DC1     HGA4     9   180.000000    12.894670     2 ; DYAP, by ac_aa
   NG301   CG2D1O   CG2DC1    CG2O1     9   180.000000    10.460000     2 ; NICH; Kenno: reverted to nad/ppi, jjp1/adm jr. 7/95
   NG301   CG2D1O   CG2DC1    CG321     9   180.000000    10.460000     2 ; NICH; Kenno: nad/ppi, jjp1/adm jr. 7/95 says 0.1 but that's unlikely ==> re-optimize
   NG311   CG2D1O   CG2DC1    CG2O1     9   180.000000    10.460000     2 ; NICH; Kenno: reverted to nad/ppi, jjp1/adm jr. 7/95
   NG311   CG2D1O   CG2DC1    CG321     9   180.000000    10.460000     2 ; NICH; Kenno: nad/ppi, jjp1/adm jr. 7/95 says 0.1 but that's unlikely ==> re-optimize
   OG301   CG2D1O   CG2DC1   CG2DC2     9   180.000000     6.276000     1 ; MOBU, 1-Methoxy-1,3-butadiene, xxwy
   OG301   CG2D1O   CG2DC1   CG2DC2     9   180.000000    62.760000     2 ; MOBU, 1-Methoxy-1,3-butadiene, xxwy
   OG301   CG2D1O   CG2DC1     HGA4     9   180.000000    12.552000     2 ; MOBU, 1-Methoxy-1,3-butadiene, xxwy
   OG311   CG2D1O   CG2DC1    CG2O5     9   180.000000     6.283531     1 ; TPQP, by ac_aa
   OG311   CG2D1O   CG2DC1    CG2O5     9   180.000000    30.850724     2 ; TPQP, by ac_aa
   OG311   CG2D1O   CG2DC1     HGA4     9   180.000000    12.552000     2 ; from OG301 CG2D1O CG2DC1 HGA4, PENALTY= 5 TPQP
   OG312   CG2D1O   CG2DC1    CG2O5     9   180.000000     8.995600     2 ; TPQ, by ac_aa
   OG312   CG2D1O   CG2DC1     HGA4     9   180.000000    10.165028     2 ; TPQ, by ac_aa
  OG3R60   CG2D1O   CG2DC1   CG2DC2     9   180.000000     8.368000     2 ; PY02, 2h-pyran
  OG3R60   CG2D1O   CG2DC1     HGA4     9   180.000000    29.288000     2 ; PY02, 2h-pyran
    HGA4   CG2D1O   CG2DC1   CG2DC2     9   180.000000    25.104000     2 ; PY02, 2h-pyran
    HGA4   CG2D1O   CG2DC1    CG2O1     9   180.000000     4.184000     2 ; NICH; Kenno: nad/ppi, jjp1/adm jr. 7/95 says 0.1 but that's unlikely ==> re-optimize
    HGA4   CG2D1O   CG2DC1    CG321     9   180.000000     4.184000     2 ; NICH; Kenno: nad/ppi, jjp1/adm jr. 7/95 says 0.1 but that's unlikely ==> re-optimize
    HGA4   CG2D1O   CG2DC1     HGA4     9   180.000000    10.460000     2 ; PY02, 2h-pyran
  CG2DC1   CG2D1O    CG2O1    NG2S1     9   180.000000     0.095814     1 ; DYAP, by ac_aa
  CG2DC1   CG2D1O    CG2O1    NG2S1     9   180.000000     7.011966     2 ; DYAP, by ac_aa
  CG2DC1   CG2D1O    CG2O1    NG2S1     9     0.000000     0.423421     3 ; DYAP, by ac_aa
  CG2DC1   CG2D1O    CG2O1    NG2S1     9     0.000000     0.498314     4 ; DYAP, by ac_aa
  CG2DC1   CG2D1O    CG2O1    OG2D1     9     0.000000     3.884426     1 ; DYAP, by ac_aa
  CG2DC1   CG2D1O    CG2O1    OG2D1     9   180.000000     9.211494     2 ; DYAP, by ac_aa
  CG2DC1   CG2D1O    CG2O1    OG2D1     9   180.000000     0.108784     3 ; DYAP, by ac_aa
  CG2DC1   CG2D1O    CG2O1    OG2D1     9     0.000000     1.703306     4 ; DYAP, by ac_aa
   NG2S1   CG2D1O    CG2O1    NG2S1     9   180.000000     2.171914     2 ; DYAP, by ac_aa
   NG2S1   CG2D1O    CG2O1    NG2S1     9   180.000000     1.503730     3 ; DYAP, by ac_aa
   NG2S1   CG2D1O    CG2O1    NG2S1     9     0.000000     1.958112     6 ; DYAP, by ac_aa
   NG2S1   CG2D1O    CG2O1    OG2D1     9     0.000000    14.343589     2 ; DYAP, by ac_aa
   NG2S1   CG2D1O    CG2O1    OG2D1     9     0.000000     6.443360     3 ; DYAP, by ac_aa
   NG2S1   CG2D1O    CG2O1    OG2D1     9   180.000000     0.196648     6 ; DYAP, by ac_aa
  CG2DC1   CG2D1O    CG2O5   CG2DC1     9   180.000000     1.738870     2 ; TPQ, by ac_aa
  CG2DC1   CG2D1O    CG2O5    OG2D3     9   180.000000     0.165686     2 ; TPQ, by ac_aa
   OG311   CG2D1O    CG2O5   CG2DC1     9   180.000000     5.844211     2 ; TPQP, by ac_aa
   OG311   CG2D1O    CG2O5    OG2D3     9   180.000000     6.204454     2 ; TPQP, by ac_aa
   OG312   CG2D1O    CG2O5   CG2DC1     9   180.000000     1.533854     2 ; TPQ, by ac_aa
   OG312   CG2D1O    CG2O5    OG2D3     9   180.000000     1.677784     2 ; TPQ, by ac_aa
   NG2D1   CG2D1O    CG331     HGA3     9   180.000000     0.751865     3 ; FZN, by ac_aa
   SG311   CG2D1O    CG331     HGA3     9   180.000000     0.074057     3 ; FZN, by ac_aa
  CG2DC1   CG2D1O    NG2D1    CG2N2     9   180.000000    23.365966     2 ; ABSB, amide base, sr
   CG331   CG2D1O    NG2D1    CG321     9   180.000000    27.238677     2 ; from CG331 CG2D1O NG2D1 CG331, FZN
   CG331   CG2D1O    NG2D1    CG331     9   180.000000    27.238677     2 ; FZN, by ac_aa
   SG311   CG2D1O    NG2D1    CG321     9   180.000000     4.878962     1 ; from SG311 CG2D1O NG2D1 CG331, FZN
   SG311   CG2D1O    NG2D1    CG321     9   180.000000    35.476136     2 ; from SG311 CG2D1O NG2D1 CG331, FZN
   SG311   CG2D1O    NG2D1    CG331     9   180.000000     4.878962     1 ; FZN, by ac_aa
   SG311   CG2D1O    NG2D1    CG331     9   180.000000    35.476136     2 ; FZN, by ac_aa
    HGA4   CG2D1O    NG2D1    CG2N2     9   180.000000    16.736000     2 ; ABSB, amide base, sr
  CG2DC1   CG2D1O    NG2S1    CG2O1     9   180.000000    17.502927     1 ; DYAP, by ac_aa
  CG2DC1   CG2D1O    NG2S1    CG2O1     9   180.000000     9.839931     2 ; DYAP, by ac_aa
  CG2DC1   CG2D1O    NG2S1     HGP1     9   180.000000    11.148268     2 ; DYAP, by ac_aa
   CG2O1   CG2D1O    NG2S1    CG2O1     9     0.000000     6.398591     1 ; DYAP, by ac_aa
   CG2O1   CG2D1O    NG2S1    CG2O1     9   180.000000    10.344103     2 ; DYAP, by ac_aa
   CG2O1   CG2D1O    NG2S1     HGP1     9   180.000000    10.462510     2 ; DYAP, by ac_aa
   CG2D1   CG2D1O    NG301   CG2D1O     9   180.000000     0.418400     2 ; NADH, NDPH; Kenno: reverted to nad/ppi, jjp1/adm jr. 7/95
   CG2D1   CG2D1O    NG301   CG3C51     9   180.000000     0.418400     2 ; NICH; Kenno: reverted to nad/ppi, jjp1/adm jr. 7/95
  CG2DC1   CG2D1O    NG301   CG2D1O     9   180.000000     2.092000     2 ; NICH; Kenno: nad/ppi, jjp1/adm jr. 7/95 says 0.1 but that's unlikely ==> re-optimize
  CG2DC1   CG2D1O    NG301   CG3C51     9   180.000000     0.418400     2 ; NICH; Kenno: reverted to nad/ppi, jjp1/adm jr. 7/95
    HGA4   CG2D1O    NG301   CG2D1O     9   180.000000     0.418400     2 ; NICH; Kenno: reverted to nad/ppi, jjp1/adm jr. 7/95
    HGA4   CG2D1O    NG301   CG3C51     9   180.000000     0.418400     2 ; NICH; Kenno: reverted to nad/ppi, jjp1/adm jr. 7/95
   CG2D1   CG2D1O    NG311   CG2D1O     9   180.000000     0.418400     2 ; NICH; Kenno: reverted to nad/ppi, jjp1/adm jr. 7/95
   CG2D1   CG2D1O    NG311   HGPAM1     9   180.000000     0.418400     2 ; NICH; Kenno: reverted to nad/ppi, jjp1/adm jr. 7/95
  CG2DC1   CG2D1O    NG311   CG2D1O     9   180.000000     2.092000     2 ; NICH; Kenno: nad/ppi, jjp1/adm jr. 7/95 says 0.1 but that's unlikely ==> re-optimize
  CG2DC1   CG2D1O    NG311   HGPAM1     9   180.000000     0.418400     2 ; NICH; Kenno: reverted to nad/ppi, jjp1/adm jr. 7/95
    HGA4   CG2D1O    NG311   CG2D1O     9   180.000000     0.418400     2 ; NICH; Kenno: reverted to nad/ppi, jjp1/adm jr. 7/95
    HGA4   CG2D1O    NG311   HGPAM1     9   180.000000     0.418400     2 ; NICH; Kenno: reverted to nad/ppi, jjp1/adm jr. 7/95
   CG2D2   CG2D1O    NG321   HGPAM2     9     0.000000     7.112800     1 ; 1.66 w/o 4-fold; AMET, ethenamine, lsfitdih run 9 w 113, kevo
   CG2D2   CG2D1O    NG321   HGPAM2     9   180.000000    12.803040     2 ; 3.02 w/o 4-fold; AMET, ethenamine, lsfitdih run 9 w 113, kevo
   CG2D2   CG2D1O    NG321   HGPAM2     9   180.000000     0.962320     3 ; 0.24 w/o 4-fold; AMET, ethenamine, lsfitdih run 9 w 113, kevo
   CG2D2   CG2D1O    NG321   HGPAM2     9     0.000000     0.502080     4 ; needed for OOP but poorly transferable; AMET, ethenamine, lsfitdih run 9 w 113, kevo
    HGA4   CG2D1O    NG321   HGPAM2     9     0.000000     0.669440     3 ; AMET, ethenamine; from MAM1, methylamine; kevo
   CG2D2   CG2D1O    OG301    CG331     9   180.000000     3.765600     1 ; MOET, Methoxyethene, xxwy
   CG2D2   CG2D1O    OG301    CG331     9   180.000000    12.970400     2 ; MOET, Methoxyethene, xxwy
   CG2D2   CG2D1O    OG301    CG331     9   180.000000     5.020800     3 ; MOET, Methoxyethene, xxwy
  CG2DC1   CG2D1O    OG301    CG331     9   180.000000     3.347200     1 ; MOET, Methoxyethene, xxwy
  CG2DC1   CG2D1O    OG301    CG331     9   180.000000    12.552000     2 ; MOET, Methoxyethene, xxwy
  CG2DC1   CG2D1O    OG301    CG331     9   180.000000     4.602400     3 ; MOET, Methoxyethene, xxwy
    HGA4   CG2D1O    OG301    CG331     9   180.000000     0.000000     2 ; MOET, Methoxyethene, xxwy
  CG2DC1   CG2D1O    OG311     HGP1     9   180.000000     2.704119     1 ; TPQP, by ac_aa
  CG2DC1   CG2D1O    OG311     HGP1     9   180.000000    14.275808     2 ; TPQP, by ac_aa
  CG2DC1   CG2D1O    OG311     HGP1     9   180.000000     0.000418     3 ; TPQP, by ac_aa
   CG2O5   CG2D1O    OG311     HGP1     9   180.000000     8.606488     1 ; TPQP, by ac_aa
   CG2O5   CG2D1O    OG311     HGP1     9   180.000000     6.468464     2 ; TPQP, by ac_aa
   CG2O5   CG2D1O    OG311     HGP1     9   180.000000     1.732594     3 ; TPQP, by ac_aa
   CG2O5   CG2D1O    OG311     HGP1     9   180.000000     0.042258     6 ; TPQP, by ac_aa
   CG2D1   CG2D1O   OG3R60   CG2D1O     9   180.000000    12.552000     2 ; PY01, 4h-pyran seems reasonable - kevo
   CG2D1   CG2D1O   OG3R60   CG2D2O     9   180.000000    12.552000     2 ; PY01, 4h-pyran seems reasonable - kevo
  CG2DC1   CG2D1O   OG3R60    CG321     9     0.000000     8.368000     2 ; PY02, 2h-pyran seems reasonable - kevo
    HGA4   CG2D1O   OG3R60   CG2D1O     9   180.000000     0.000000     2 ; PY01, 4h-pyran; re-initialized from MOET, Methoxyethene; kevo
    HGA4   CG2D1O   OG3R60   CG2D2O     9   180.000000     0.000000     2 ; PY01, 4h-pyran; re-initialized from MOET, Methoxyethene; kevo
    HGA4   CG2D1O   OG3R60    CG321     9   180.000000     0.000000     2 ; PY02, 2h-pyran; re-initialized from MOET, Methoxyethene; kevo
   CG331   CG2D1O    SG311    CG331     9   180.000000    10.818569     2 ; FZN, by ac_aa
   CG331   CG2D1O    SG311   CG3C51     9   180.000000    10.818569     2 ; from CG331 SG311 CG2D1O CG331, FZN
   NG2D1   CG2D1O    SG311    CG331     9   180.000000     7.104850     1 ; FZN, by ac_aa
   NG2D1   CG2D1O    SG311    CG331     9   180.000000     3.946767     2 ; FZN, by ac_aa
   NG2D1   CG2D1O    SG311   CG3C51     9   180.000000     7.104850     1 ; from CG331 SG311 CG2D1O NG2D1, FZN
   NG2D1   CG2D1O    SG311   CG3C51     9   180.000000     3.946767     2 ; from CG331 SG311 CG2D1O NG2D1, FZN
    HGA5    CG2D2    CG2D2     HGA5     9   180.000000    20.501600     2 ; LIPID ethene, yin,adm jr., 12/95
    HGA5    CG2D2   CG2D2O    NG321     9   180.000000     8.368000     2 ; AMET, ethenamine, 1.0->2.0 to improve molvib; pram
    HGA5    CG2D2   CG2D2O    OG301     9   180.000000    37.656000     2 ; MOET, Methoxyethene, xxwy
    HGA5    CG2D2   CG2D2O     HGA4     9   180.000000     8.368000     2 ; MOET, Methoxyethene, xxwy
   CG2O1   CG2D2O   CG2DC2    CG2O2     9   180.000000     3.297829     1 ; DYAP, by ac_aa
   CG2O1   CG2D2O   CG2DC2    CG2O2     9   180.000000    28.968761     2 ; DYAP, by ac_aa
   CG2O1   CG2D2O   CG2DC2    CG2O3     9   180.000000     3.297829     1 ; from CG2O2 CG2DC1 CG2D1O CG2O1
   CG2O1   CG2D2O   CG2DC2    CG2O3     9   180.000000    28.968761     2 ; from CG2O2 CG2DC1 CG2D1O CG2O1
   CG2O1   CG2D2O   CG2DC2    CG331     9   180.000000     3.297829     1 ; from CG2O2 CG2DC1 CG2D1O CG2O1, sm071
   CG2O1   CG2D2O   CG2DC2    CG331     9   180.000000    28.968761     2 ; from CG2O2 CG2DC1 CG2D1O CG2O1 , sm071
   CG2O1   CG2D2O   CG2DC2     HGA4     9   180.000000    22.015790     2 ; DYAP, by ac_aa
   CG2O5   CG2D2O   CG2DC2    CG2O5     9   180.000000     2.345132     1 ; TPQ, by ac_aa
   CG2O5   CG2D2O   CG2DC2    CG2O5     9   180.000000     8.368000     2 ; TPQ, by ac_aa
   CG2O5   CG2D2O   CG2DC2     HGA4     9   180.000000    13.439845     2 ; TPQ, by ac_aa
   NG2D1   CG2D2O   CG2DC2    CG2O1     9   180.000000    21.139242     2 ; ABSB, amide base, sr
   NG2D1   CG2D2O   CG2DC2     HGA4     9   180.000000    12.552000     2 ; ABSB, amide base, sr
   NG2S1   CG2D2O   CG2DC2    CG2O2     9   180.000000    11.951596     2 ; DYAP, by ac_aa
   NG2S1   CG2D2O   CG2DC2    CG2O3     9   180.000000    11.951596     2 ; from CG2O2 CG2DC1 CG2D1O NG2S1
   NG2S1   CG2D2O   CG2DC2    CG331     9   180.000000    11.951596     2 ; from CG2O2 CG2DC1 CG2D1O NG2S1, sm071
   NG2S1   CG2D2O   CG2DC2     HGA4     9   180.000000    12.894670     2 ; DYAP, by ac_aa
   NG301   CG2D2O   CG2DC2    CG2O1     9   180.000000    10.460000     2 ; NICH; Kenno: reverted to nad/ppi, jjp1/adm jr. 7/95
   NG301   CG2D2O   CG2DC2    CG321     9   180.000000    10.460000     2 ; NICH; Kenno: nad/ppi, jjp1/adm jr. 7/95 says 0.1 but that's unlikely ==> re-optimize
   NG311   CG2D2O   CG2DC2    CG2O1     9   180.000000    10.460000     2 ; NICH; Kenno: reverted to nad/ppi, jjp1/adm jr. 7/95
   NG311   CG2D2O   CG2DC2    CG321     9   180.000000    10.460000     2 ; NICH; Kenno: nad/ppi, jjp1/adm jr. 7/95 says 0.1 but that's unlikely ==> re-optimize
   OG301   CG2D2O   CG2DC2   CG2DC1     9   180.000000     6.276000     1 ; MOBU, 1-Methoxy-1,3-butadiene, xxwy
   OG301   CG2D2O   CG2DC2   CG2DC1     9   180.000000    62.760000     2 ; MOBU, 1-Methoxy-1,3-butadiene, xxwy
   OG301   CG2D2O   CG2DC2     HGA4     9   180.000000    12.552000     2 ; MOBU, 1-Methoxy-1,3-butadiene, xxwy
   OG311   CG2D2O   CG2DC2    CG2O5     9   180.000000     6.283531     1 ; TPQP, by ac_aa
   OG311   CG2D2O   CG2DC2    CG2O5     9   180.000000    30.850724     2 ; TPQP, by ac_aa
   OG311   CG2D2O   CG2DC2     HGA4     9   180.000000    12.552000     2 ; from OG301 CG2D1O CG2DC1 HGA4, PENALTY= 5 TPQP
   OG312   CG2D2O   CG2DC2    CG2O5     9   180.000000     8.995600     2 ; TPQ, by ac_aa
   OG312   CG2D2O   CG2DC2     HGA4     9   180.000000    10.165028     2 ; TPQ, by ac_aa
  OG3R60   CG2D2O   CG2DC2   CG2DC1     9   180.000000     8.368000     2 ; PY02, 2h-pyran
  OG3R60   CG2D2O   CG2DC2     HGA4     9   180.000000    29.288000     2 ; PY02, 2h-pyran
    HGA4   CG2D2O   CG2DC2   CG2DC1     9   180.000000    25.104000     2 ; PY02, 2h-pyran
    HGA4   CG2D2O   CG2DC2    CG2O1     9   180.000000     4.184000     2 ; NICH; Kenno: nad/ppi, jjp1/adm jr. 7/95 says 0.1 but that's unlikely ==> re-optimize
    HGA4   CG2D2O   CG2DC2    CG321     9   180.000000     4.184000     2 ; NICH; Kenno: nad/ppi, jjp1/adm jr. 7/95 says 0.1 but that's unlikely ==> re-optimize
    HGA4   CG2D2O   CG2DC2     HGA4     9   180.000000    10.460000     2 ; PY02, 2h-pyran
  CG2DC2   CG2D2O    CG2O1    NG2S1     9   180.000000     0.095814     1 ; DYAP, by ac_aa
  CG2DC2   CG2D2O    CG2O1    NG2S1     9   180.000000     7.011966     2 ; DYAP, by ac_aa
  CG2DC2   CG2D2O    CG2O1    NG2S1     9     0.000000     0.423421     3 ; DYAP, by ac_aa
  CG2DC2   CG2D2O    CG2O1    NG2S1     9     0.000000     0.498314     4 ; DYAP, by ac_aa
  CG2DC2   CG2D2O    CG2O1    OG2D1     9     0.000000     3.884426     1 ; DYAP, by ac_aa
  CG2DC2   CG2D2O    CG2O1    OG2D1     9   180.000000     9.211494     2 ; DYAP, by ac_aa
  CG2DC2   CG2D2O    CG2O1    OG2D1     9   180.000000     0.108784     3 ; DYAP, by ac_aa
  CG2DC2   CG2D2O    CG2O1    OG2D1     9     0.000000     1.703306     4 ; DYAP, by ac_aa
   NG2S1   CG2D2O    CG2O1    NG2S1     9   180.000000     2.171914     2 ; DYAP, by ac_aa
   NG2S1   CG2D2O    CG2O1    NG2S1     9   180.000000     1.503730     3 ; DYAP, by ac_aa
   NG2S1   CG2D2O    CG2O1    NG2S1     9     0.000000     1.958112     6 ; DYAP, by ac_aa
   NG2S1   CG2D2O    CG2O1    OG2D1     9     0.000000    14.343589     2 ; DYAP, by ac_aa
   NG2S1   CG2D2O    CG2O1    OG2D1     9     0.000000     6.443360     3 ; DYAP, by ac_aa
   NG2S1   CG2D2O    CG2O1    OG2D1     9   180.000000     0.196648     6 ; DYAP, by ac_aa
  CG2DC2   CG2D2O    CG2O5   CG2DC2     9   180.000000     1.738870     2 ; TPQ, by ac_aa
  CG2DC2   CG2D2O    CG2O5    OG2D3     9   180.000000     0.165686     2 ; TPQ, by ac_aa
   OG311   CG2D2O    CG2O5   CG2DC2     9   180.000000     5.844211     2 ; TPQP, by ac_aa
   OG311   CG2D2O    CG2O5    OG2D3     9   180.000000     6.204454     2 ; TPQP, by ac_aa
   OG312   CG2D2O    CG2O5   CG2DC2     9   180.000000     1.533854     2 ; TPQ, by ac_aa
   OG312   CG2D2O    CG2O5    OG2D3     9   180.000000     1.677784     2 ; TPQ, by ac_aa
   NG2D1   CG2D2O    CG331     HGA3     9   180.000000     0.751865     3 ; FZN, by ac_aa
   SG311   CG2D2O    CG331     HGA3     9   180.000000     0.074057     3 ; FZN, by ac_aa
  CG2DC2   CG2D2O    NG2D1    CG2N2     9   180.000000    23.365966     2 ; ABSB, amide base, sr
   CG331   CG2D2O    NG2D1    CG321     9   180.000000    27.238677     2 ; from CG331 CG2D1O NG2D1 CG331, FZN
   CG331   CG2D2O    NG2D1    CG331     9   180.000000    27.238677     2 ; FZN, by ac_aa
   SG311   CG2D2O    NG2D1    CG321     9   180.000000     4.878962     1 ; from SG311 CG2D1O NG2D1 CG331, FZN
   SG311   CG2D2O    NG2D1    CG321     9   180.000000    35.476136     2 ; from SG311 CG2D1O NG2D1 CG331, FZN
   SG311   CG2D2O    NG2D1    CG331     9   180.000000     4.878962     1 ; FZN, by ac_aa
   SG311   CG2D2O    NG2D1    CG331     9   180.000000    35.476136     2 ; FZN, by ac_aa
    HGA4   CG2D2O    NG2D1    CG2N2     9   180.000000    16.736000     2 ; ABSB, amide base, sr
  CG2DC2   CG2D2O    NG2S1    CG2O1     9   180.000000    17.502927     1 ; DYAP, by ac_aa
  CG2DC2   CG2D2O    NG2S1    CG2O1     9   180.000000     9.839931     2 ; DYAP, by ac_aa
  CG2DC2   CG2D2O    NG2S1     HGP1     9   180.000000    11.148268     2 ; DYAP, by ac_aa
   CG2O1   CG2D2O    NG2S1    CG2O1     9     0.000000     6.398591     1 ; DYAP, by ac_aa
   CG2O1   CG2D2O    NG2S1    CG2O1     9   180.000000    10.344103     2 ; DYAP, by ac_aa
   CG2O1   CG2D2O    NG2S1     HGP1     9   180.000000    10.462510     2 ; DYAP, by ac_aa
   CG2D1   CG2D2O    NG301   CG2D2O     9   180.000000     0.418400     2 ; NADH, NDPH; Kenno: reverted to nad/ppi, jjp1/adm jr. 7/95
   CG2D1   CG2D2O    NG301   CG3C51     9   180.000000     0.418400     2 ; NICH; Kenno: reverted to nad/ppi, jjp1/adm jr. 7/95
  CG2DC2   CG2D2O    NG301   CG2D2O     9   180.000000     2.092000     2 ; NICH; Kenno: nad/ppi, jjp1/adm jr. 7/95 says 0.1 but that's unlikely ==> re-optimize
  CG2DC2   CG2D2O    NG301   CG3C51     9   180.000000     0.418400     2 ; NICH; Kenno: reverted to nad/ppi, jjp1/adm jr. 7/95
    HGA4   CG2D2O    NG301   CG2D2O     9   180.000000     0.418400     2 ; NICH; Kenno: reverted to nad/ppi, jjp1/adm jr. 7/95
    HGA4   CG2D2O    NG301   CG3C51     9   180.000000     0.418400     2 ; NICH; Kenno: reverted to nad/ppi, jjp1/adm jr. 7/95
   CG2D1   CG2D2O    NG311   CG2D2O     9   180.000000     0.418400     2 ; NICH; Kenno: reverted to nad/ppi, jjp1/adm jr. 7/95
   CG2D1   CG2D2O    NG311   HGPAM1     9   180.000000     0.418400     2 ; NICH; Kenno: reverted to nad/ppi, jjp1/adm jr. 7/95
  CG2DC2   CG2D2O    NG311   CG2D2O     9   180.000000     2.092000     2 ; NICH; Kenno: nad/ppi, jjp1/adm jr. 7/95 says 0.1 but that's unlikely ==> re-optimize
  CG2DC2   CG2D2O    NG311   HGPAM1     9   180.000000     0.418400     2 ; NICH; Kenno: reverted to nad/ppi, jjp1/adm jr. 7/95
    HGA4   CG2D2O    NG311   CG2D2O     9   180.000000     0.418400     2 ; NICH; Kenno: reverted to nad/ppi, jjp1/adm jr. 7/95
    HGA4   CG2D2O    NG311   HGPAM1     9   180.000000     0.418400     2 ; NICH; Kenno: reverted to nad/ppi, jjp1/adm jr. 7/95
   CG2D2   CG2D2O    NG321   HGPAM2     9     0.000000     7.112800     1 ; 1.66 w/o 4-fold; AMET, ethenamine, lsfitdih run 9 w 113, kevo
   CG2D2   CG2D2O    NG321   HGPAM2     9   180.000000    12.803040     2 ; 3.02 w/o 4-fold; AMET, ethenamine, lsfitdih run 9 w 113, kevo
   CG2D2   CG2D2O    NG321   HGPAM2     9   180.000000     0.962320     3 ; 0.24 w/o 4-fold; AMET, ethenamine, lsfitdih run 9 w 113, kevo
   CG2D2   CG2D2O    NG321   HGPAM2     9     0.000000     0.502080     4 ; needed for OOP but poorly transferable; AMET, ethenamine, lsfitdih run 9 w 113, kevo
    HGA4   CG2D2O    NG321   HGPAM2     9     0.000000     0.669440     3 ; AMET, ethenamine; from MAM1, methylamine; kevo
   CG2D2   CG2D2O    OG301    CG331     9   180.000000     3.765600     1 ; MOET, Methoxyethene, xxwy
   CG2D2   CG2D2O    OG301    CG331     9   180.000000    12.970400     2 ; MOET, Methoxyethene, xxwy
   CG2D2   CG2D2O    OG301    CG331     9   180.000000     5.020800     3 ; MOET, Methoxyethene, xxwy
  CG2DC2   CG2D2O    OG301    CG331     9   180.000000     3.347200     1 ; MOET, Methoxyethene, xxwy
  CG2DC2   CG2D2O    OG301    CG331     9   180.000000    12.552000     2 ; MOET, Methoxyethene, xxwy
  CG2DC2   CG2D2O    OG301    CG331     9   180.000000     4.602400     3 ; MOET, Methoxyethene, xxwy
    HGA4   CG2D2O    OG301    CG331     9   180.000000     0.000000     2 ; MOET, Methoxyethene, xxwy
  CG2DC2   CG2D2O    OG311     HGP1     9   180.000000     2.704119     1 ; TPQP, by ac_aa
  CG2DC2   CG2D2O    OG311     HGP1     9   180.000000    14.275808     2 ; TPQP, by ac_aa
  CG2DC2   CG2D2O    OG311     HGP1     9   180.000000     0.000418     3 ; TPQP, by ac_aa
   CG2O5   CG2D2O    OG311     HGP1     9   180.000000     8.606488     1 ; TPQP, by ac_aa
   CG2O5   CG2D2O    OG311     HGP1     9   180.000000     6.468464     2 ; TPQP, by ac_aa
   CG2O5   CG2D2O    OG311     HGP1     9   180.000000     1.732594     3 ; TPQP, by ac_aa
   CG2O5   CG2D2O    OG311     HGP1     9   180.000000     0.042258     6 ; TPQP, by ac_aa
   CG2D1   CG2D2O   OG3R60   CG2D1O     9   180.000000    12.552000     2 ; PY01, 4h-pyran seems reasonable - kevo
   CG2D1   CG2D2O   OG3R60   CG2D2O     9   180.000000    12.552000     2 ; PY01, 4h-pyran seems reasonable - kevo
  CG2DC2   CG2D2O   OG3R60    CG321     9     0.000000     8.368000     2 ; PY02, 2h-pyran seems reasonable - kevo
    HGA4   CG2D2O   OG3R60   CG2D1O     9   180.000000     0.000000     2 ; PY01, 4h-pyran; re-initialized from MOET, Methoxyethene; kevo
    HGA4   CG2D2O   OG3R60   CG2D2O     9   180.000000     0.000000     2 ; PY01, 4h-pyran; re-initialized from MOET, Methoxyethene; kevo
    HGA4   CG2D2O   OG3R60    CG321     9   180.000000     0.000000     2 ; PY02, 2h-pyran; re-initialized from MOET, Methoxyethene; kevo
   CG331   CG2D2O    SG311    CG331     9   180.000000    10.818569     2 ; FZN, by ac_aa
   CG331   CG2D2O    SG311   CG3C51     9   180.000000    10.818569     2 ; from CG331 SG311 CG2D1O CG331, FZN
   NG2D1   CG2D2O    SG311    CG331     9   180.000000     7.104850     1 ; FZN, by ac_aa
   NG2D1   CG2D2O    SG311    CG331     9   180.000000     3.946767     2 ; FZN, by ac_aa
   NG2D1   CG2D2O    SG311   CG3C51     9   180.000000     7.104850     1 ; from CG331 SG311 CG2D1O NG2D1, FZN
   NG2D1   CG2D2O    SG311   CG3C51     9   180.000000     3.946767     2 ; from CG331 SG311 CG2D1O NG2D1, FZN
  CG2DC2   CG2DC1   CG2DC1   CG2DC2     9   180.000000     2.343040     1 ; RETINOL HEP3, 1,3,5-heptatriene
  CG2DC2   CG2DC1   CG2DC1   CG2DC2     9   180.000000    29.288000     2 ; RETINOL HEP3, 1,3,5-heptatriene
  CG2DC2   CG2DC1   CG2DC1    CG2O1     9   180.000000     2.343040     1 ; RETINOL FRET
  CG2DC2   CG2DC1   CG2DC1    CG2O1     9   180.000000    29.288000     2 ; RETINOL FRET
  CG2DC2   CG2DC1   CG2DC1    CG2O3     9   180.000000     2.343040     1 ; RETINOL PRAC
  CG2DC2   CG2DC1   CG2DC1    CG2O3     9   180.000000    29.288000     2 ; RETINOL PRAC
  CG2DC2   CG2DC1   CG2DC1    CG2O4     9   180.000000     2.343040     1 ; RETINOL RTAL unmodified
  CG2DC2   CG2DC1   CG2DC1    CG2O4     9   180.000000    29.288000     2 ; RETINOL RTAL unmodified
  CG2DC2   CG2DC1   CG2DC1    CG2O5     9   180.000000     2.343040     1 ; sb_ot 2021, from CG2DC2 CG2DC1 CG2DC1 CG2O4
  CG2DC2   CG2DC1   CG2DC1    CG2O5     9   180.000000    29.288000     2 ; sb_ot 2021, from CG2DC2 CG2DC1 CG2DC1 CG2O4
  CG2DC2   CG2DC1   CG2DC1   CG2R51     9   180.000000     2.612071     1 ; TQQ, by ac_aa
  CG2DC2   CG2DC1   CG2DC1   CG2R51     9   180.000000    29.050349     2 ; TQQ, by ac_aa
  CG2DC2   CG2DC1   CG2DC1    CG321     9   180.000000     2.343040     1 ; RETINOL MECH
  CG2DC2   CG2DC1   CG2DC1    CG321     9   180.000000    29.288000     2 ; RETINOL MECH
  CG2DC2   CG2DC1   CG2DC1    CG331     9   180.000000     2.343040     1 ; RETINOL 13DP, 1,3-Pentadiene
  CG2DC2   CG2DC1   CG2DC1    CG331     9   180.000000    29.288000     2 ; RETINOL 13DP, 1,3-Pentadiene
  CG2DC2   CG2DC1   CG2DC1     HGA4     9   180.000000    21.756800     2 ; RETINOL 13DB, 1,3-Butadiene
   CG2O1   CG2DC1   CG2DC1    CG331     9   180.000000     2.343040     1 ; RETINOL CROT
   CG2O1   CG2DC1   CG2DC1    CG331     9   180.000000    29.288000     2 ; RETINOL CROT
   CG2O1   CG2DC1   CG2DC1     HGA4     9   180.000000    21.741319     2 ; KCR, by ac_aa
   CG2O3   CG2DC1   CG2DC1    CG331     9   180.000000     2.343040     1 ; RETINOL PRAC
   CG2O3   CG2DC1   CG2DC1    CG331     9   180.000000    29.288000     2 ; RETINOL PRAC
   CG2O4   CG2DC1   CG2DC1    CG331     9   180.000000     2.343040     1 ; RETINOL RTAL
   CG2O4   CG2DC1   CG2DC1    CG331     9   180.000000    29.288000     2 ; RETINOL RTAL Kenno: 0.5 -> 7.0 for the sake of transferability
   CG2O5   CG2DC1   CG2DC1    CG2O5     9   180.000000     2.343040     1 ; TPQ, by ac_aa
   CG2O5   CG2DC1   CG2DC1    CG2O5     9   180.000000     0.850189     2 ; TPQ, by ac_aa
   CG2O5   CG2DC1   CG2DC1   CG2R51     9   180.000000     7.049203     2 ; TRQ, by ac_aa
   CG2O5   CG2DC1   CG2DC1    CG321     9   180.000000     2.343040     1 ; from CG2O4 CG2DC1 CG2DC1 CG331, PENALTY= 1.4 TPQ TPQP
   CG2O5   CG2DC1   CG2DC1    CG321     9   180.000000    29.288000     2 ; from CG2O4 CG2DC1 CG2DC1 CG331, PENALTY= 1.4 TPQ TPQP
   CG2O5   CG2DC1   CG2DC1     HGA4     9   180.000000     4.537548     2 ; TPQ, by ac_aa
  CG2R51   CG2DC1   CG2DC1     HGA4     9   180.000000    22.051772     2 ; TRQ, by ac_aa
  CG2R61   CG2DC1   CG2DC1    CG321     9   180.000000     2.345132     1 ; from CG2R61 CG2DC1 CG2DC1 CG331, STYA
  CG2R61   CG2DC1   CG2DC1    CG321     9   180.000000    29.159133     2 ; from CG2R61 CG2DC1 CG2DC1 CG331, STYA
  CG2R61   CG2DC1   CG2DC1    CG331     9   180.000000     2.345132     1 ; STYA, by ac_aa
  CG2R61   CG2DC1   CG2DC1    CG331     9   180.000000    29.159133     2 ; STYA, by ac_aa
  CG2R61   CG2DC1   CG2DC1     HGA4     9   180.000000    21.751779     2 ; STYA, by ac_aa
   CG301   CG2DC1   CG2DC1    CG321     9   180.000000    41.840000     2 ; RETINOL TMCH
   CG301   CG2DC1   CG2DC1    CG331     9   180.000000    41.840000     2 ; RETINOL MECH
   CG321   CG2DC1   CG2DC1    CG331     9   180.000000    41.840000     2 ; RETINOL BTE2, 2-butene
   CG321   CG2DC1   CG2DC1     HGA4     9   180.000000    21.756800     2 ; PY02, 2h-pyran; re-initialized from BTE2, 2-butene; kevo
   CG331   CG2DC1   CG2DC1     HGA4     9   180.000000    21.756800     2 ; RETINOL BTE2, 2-butene
    HGA4   CG2DC1   CG2DC1     HGA4     9   180.000000    21.756800     2 ; RETINOL BTE2, 2-butene
  CG2D1O   CG2DC1   CG2DC2   CG2DC2     9   180.000000     6.276000     1 ; PY02, 2h-pyran; re-initialized from MOBU, 1-Methoxy-1,3-butadiene; xxwy
  CG2D1O   CG2DC1   CG2DC2   CG2DC2     9   180.000000     4.184000     2 ; PY02, 2h-pyran; re-initialized from MOBU, 1-Methoxy-1,3-butadiene; xxwy
  CG2D1O   CG2DC1   CG2DC2   CG2DC2     9     0.000000     6.276000     3 ; PY02, 2h-pyran; re-initialized from MOBU, 1-Methoxy-1,3-butadiene; xxwy
  CG2D1O   CG2DC1   CG2DC2   CG2DC3     9   180.000000     6.276000     1 ; MOBU, 1-Methoxy-1,3-butadiene, xxwy
  CG2D1O   CG2DC1   CG2DC2   CG2DC3     9   180.000000     4.184000     2 ; MOBU, 1-Methoxy-1,3-butadiene, xxwy
  CG2D1O   CG2DC1   CG2DC2   CG2DC3     9     0.000000     6.276000     3 ; MOBU, 1-Methoxy-1,3-butadiene, xxwy
  CG2D1O   CG2DC1   CG2DC2     HGA4     9   180.000000     4.184000     2 ; PY02, 2h-pyran; re-initialized from MOBU, 1-Methoxy-1,3-butadiene; xxwy
  CG2DC1   CG2DC1   CG2DC2   CG2D2O     9   180.000000     6.276000     1 ; PY02, 2h-pyran; re-initialized from MOBU, 1-Methoxy-1,3-butadiene; xxwy
  CG2DC1   CG2DC1   CG2DC2   CG2D2O     9   180.000000     4.184000     2 ; PY02, 2h-pyran; re-initialized from MOBU, 1-Methoxy-1,3-butadiene; xxwy
  CG2DC1   CG2DC1   CG2DC2   CG2D2O     9     0.000000     6.276000     3 ; PY02, 2h-pyran; re-initialized from MOBU, 1-Methoxy-1,3-butadiene; xxwy
  CG2DC1   CG2DC1   CG2DC2   CG2DC1     9   180.000000     2.092000     1 ; sb_ot 2021, from CG2DC1 CG2DC1 CG2DC2 CG2DC2
  CG2DC1   CG2DC1   CG2DC2   CG2DC1     9     0.000000     8.368000     2 ; sb_ot 2021, from CG2DC1 CG2DC1 CG2DC2 CG2DC2
  CG2DC1   CG2DC1   CG2DC2   CG2DC1     9     0.000000     4.184000     3 ; sb_ot 2021, from CG2DC1 CG2DC1 CG2DC2 CG2DC2
  CG2DC1   CG2DC1   CG2DC2   CG2DC2     9   180.000000     2.092000     1 ; RETINOL HEP3, 1,3,5-heptatriene
  CG2DC1   CG2DC1   CG2DC2   CG2DC2     9     0.000000     8.368000     2 ; RETINOL HEP3, 1,3,5-heptatriene
  CG2DC1   CG2DC1   CG2DC2   CG2DC2     9     0.000000     4.184000     3 ; RETINOL HEP3, 1,3,5-heptatriene
  CG2DC1   CG2DC1   CG2DC2   CG2DC3     9   180.000000     2.092000     1 ; RETINOL HEP3, 1,3,5-heptatriene
  CG2DC1   CG2DC1   CG2DC2   CG2DC3     9     0.000000     8.368000     2 ; RETINOL HEP3, 1,3,5-heptatriene
  CG2DC1   CG2DC1   CG2DC2   CG2DC3     9     0.000000     4.184000     3 ; RETINOL HEP3, 1,3,5-heptatriene
  CG2DC1   CG2DC1   CG2DC2    CG2O5     9   180.000000     3.204944     1 ; TQQ, by ac_aa
  CG2DC1   CG2DC1   CG2DC2    CG2O5     9     0.000000    14.230202     2 ; TQQ, by ac_aa
  CG2DC1   CG2DC1   CG2DC2    CG2O5     9     0.000000     4.152620     3 ; TQQ, by ac_aa
  CG2DC1   CG2DC1   CG2DC2    CG301     9     0.000000     3.765600     1 ; RETINOL MECH
  CG2DC1   CG2DC1   CG2DC2    CG301     9   180.000000     8.786400     2 ; RETINOL MECH
  CG2DC1   CG2DC1   CG2DC2    CG301     9     0.000000     0.920480     3 ; RETINOL MECH
  CG2DC1   CG2DC1   CG2DC2    CG301     9   180.000000     1.046000     5 ; RETINOL MECH
  CG2DC1   CG2DC1   CG2DC2    CG301     9     0.000000     0.418400     6 ; RETINOL MECH
  CG2DC1   CG2DC1   CG2DC2    CG331     9   180.000000     4.602400     1 ; RETINOL DMP2, 2-methyl-1,3-pentadiene
  CG2DC1   CG2DC1   CG2DC2    CG331     9   180.000000     2.928800     2 ; RETINOL DMP2, 2-methyl-1,3-pentadiene
  CG2DC1   CG2DC1   CG2DC2    NG2D1     9     0.000000     1.999952     1 ; TQQ, by ac_aa
  CG2DC1   CG2DC1   CG2DC2    NG2D1     9   180.000000     9.258355     2 ; TQQ, by ac_aa
  CG2DC1   CG2DC1   CG2DC2    NG2D1     9     0.000000     3.904509     3 ; TQQ, by ac_aa
  CG2DC1   CG2DC1   CG2DC2    NG2D1     9     0.000000     3.471465     4 ; TQQ, by ac_aa
  CG2DC1   CG2DC1   CG2DC2     HGA4     9   180.000000     4.184000     2 ; RETINOL 13DB, 1,3-Butadiene
  CG2DC2   CG2DC1   CG2DC2   CG2DC2     9   180.000000     2.092000     1 ; sb_ot 2021, from CG2DC1 CG2DC1 CG2DC2 CG2DC2
  CG2DC2   CG2DC1   CG2DC2   CG2DC2     9     0.000000     8.368000     2 ; sb_ot 2021, from CG2DC1 CG2DC1 CG2DC2 CG2DC2
  CG2DC2   CG2DC1   CG2DC2   CG2DC2     9     0.000000     4.184000     3 ; sb_ot 2021, from CG2DC1 CG2DC1 CG2DC2 CG2DC2
  CG2DC2   CG2DC1   CG2DC2     HGA4     9   180.000000     7.326602     2 ; CR8D, by ac_aa
  CG2DC3   CG2DC1   CG2DC2   CG2D2O     9   180.000000     6.276000     1 ; MOBU, 1-Methoxy-1,3-butadiene, xxwy
  CG2DC3   CG2DC1   CG2DC2   CG2D2O     9   180.000000     4.184000     2 ; MOBU, 1-Methoxy-1,3-butadiene, xxwy
  CG2DC3   CG2DC1   CG2DC2   CG2D2O     9     0.000000     6.276000     3 ; MOBU, 1-Methoxy-1,3-butadiene, xxwy
  CG2DC3   CG2DC1   CG2DC2   CG2DC2     9   180.000000     2.092000     1 ; RETINOL HEP3, 1,3,5-heptatriene
  CG2DC3   CG2DC1   CG2DC2   CG2DC2     9     0.000000     8.368000     2 ; RETINOL HEP3, 1,3,5-heptatriene
  CG2DC3   CG2DC1   CG2DC2   CG2DC2     9     0.000000     4.184000     3 ; RETINOL HEP3, 1,3,5-heptatriene
  CG2DC3   CG2DC1   CG2DC2   CG2DC3     9   180.000000     1.673600     1 ; RETINOL 13DB, 1,3-Butadiene
  CG2DC3   CG2DC1   CG2DC2   CG2DC3     9   180.000000     1.673600     2 ; RETINOL 13DB, 1,3-Butadiene
  CG2DC3   CG2DC1   CG2DC2   CG2DC3     9     0.000000     5.439200     3 ; RETINOL 13DB, 1,3-Butadiene
  CG2DC3   CG2DC1   CG2DC2    CG301     9     0.000000     3.765600     1 ; RETINOL MECH
  CG2DC3   CG2DC1   CG2DC2    CG301     9   180.000000     8.786400     2 ; RETINOL MECH
  CG2DC3   CG2DC1   CG2DC2    CG301     9     0.000000     0.920480     3 ; RETINOL MECH
  CG2DC3   CG2DC1   CG2DC2    CG301     9   180.000000     1.046000     5 ; RETINOL MECH
  CG2DC3   CG2DC1   CG2DC2    CG301     9     0.000000     0.418400     6 ; RETINOL MECH
  CG2DC3   CG2DC1   CG2DC2    CG331     9   180.000000     4.602400     1 ; RETINOL DMB1, 2-methyl-1,3-butadiene
  CG2DC3   CG2DC1   CG2DC2    CG331     9   180.000000     2.928800     2 ; RETINOL DMB1, 2-methyl-1,3-butadiene
  CG2DC3   CG2DC1   CG2DC2    NG2P1     9     0.000000     2.092000     1 ; RETINOL SCH3, Schiff's base, protonated
  CG2DC3   CG2DC1   CG2DC2    NG2P1     9   180.000000     9.204800     2 ; RETINOL SCH3, Schiff's base, protonated
  CG2DC3   CG2DC1   CG2DC2    NG2P1     9     0.000000     4.602400     3 ; RETINOL SCH3, Schiff's base, protonated
  CG2DC3   CG2DC1   CG2DC2    NG2P1     9     0.000000     2.510400     4 ; RETINOL SCH3, Schiff's base, protonated
  CG2DC3   CG2DC1   CG2DC2     HGA4     9   180.000000     4.184000     2 ; RETINOL 13DB, 1,3-Butadiene
  CG2DC3   CG2DC1   CG2DC2    HGR52     9   180.000000     4.184000     2 ; RETINOL SCH3, Schiff's base, protonated
   CG2O5   CG2DC1   CG2DC2   CG2DC2     9   180.000000     3.204944     1 ; TQQ, by ac_aa
   CG2O5   CG2DC1   CG2DC2   CG2DC2     9     0.000000    14.230202     2 ; TQQ, by ac_aa
   CG2O5   CG2DC1   CG2DC2   CG2DC2     9     0.000000     4.152620     3 ; TQQ, by ac_aa
   CG2O5   CG2DC1   CG2DC2     HGA4     9   180.000000     4.248434     2 ; sb_ot 2021, from CG2O5  CG2DC2 CG2DC1 HGA4
   CG301   CG2DC1   CG2DC2   CG2DC2     9     0.000000     3.765600     1 ; RETINOL MECH
   CG301   CG2DC1   CG2DC2   CG2DC2     9   180.000000     8.786400     2 ; RETINOL MECH
   CG301   CG2DC1   CG2DC2   CG2DC2     9     0.000000     0.920480     3 ; RETINOL MECH
   CG301   CG2DC1   CG2DC2   CG2DC2     9   180.000000     1.046000     5 ; RETINOL MECH
   CG301   CG2DC1   CG2DC2   CG2DC2     9     0.000000     0.418400     6 ; RETINOL MECH
   CG301   CG2DC1   CG2DC2   CG2DC3     9     0.000000     3.765600     1 ; RETINOL MECH
   CG301   CG2DC1   CG2DC2   CG2DC3     9   180.000000     8.786400     2 ; RETINOL MECH
   CG301   CG2DC1   CG2DC2   CG2DC3     9     0.000000     0.920480     3 ; RETINOL MECH
   CG301   CG2DC1   CG2DC2   CG2DC3     9   180.000000     1.046000     5 ; RETINOL MECH
   CG301   CG2DC1   CG2DC2   CG2DC3     9     0.000000     0.418400     6 ; RETINOL MECH
   CG301   CG2DC1   CG2DC2     HGA4     9   180.000000     4.184000     2 ; RETINOL MECH
   CG331   CG2DC1   CG2DC2   CG2DC2     9   180.000000     4.602400     1 ; RETINOL DMP2, 2-methyl-1,3-pentadiene
   CG331   CG2DC1   CG2DC2   CG2DC2     9   180.000000     2.928800     2 ; RETINOL DMP2, 2-methyl-1,3-pentadiene
   CG331   CG2DC1   CG2DC2   CG2DC3     9   180.000000     4.602400     1 ; RETINOL DMB1, 2-methyl-1,3-butadiene
   CG331   CG2DC1   CG2DC2   CG2DC3     9   180.000000     2.928800     2 ; RETINOL DMB1, 2-methyl-1,3-butadiene
   CG331   CG2DC1   CG2DC2     HGA4     9   180.000000     4.184000     2 ; RETINOL DMB1, 2-methyl-1,3-butadiene
   NG2D1   CG2DC1   CG2DC2   CG2DC2     9     0.000000     1.999952     1 ; TQQ, by ac_aa
   NG2D1   CG2DC1   CG2DC2   CG2DC2     9   180.000000     9.258355     2 ; TQQ, by ac_aa
   NG2D1   CG2DC1   CG2DC2   CG2DC2     9     0.000000     3.904509     3 ; TQQ, by ac_aa
   NG2D1   CG2DC1   CG2DC2   CG2DC2     9     0.000000     3.471465     4 ; TQQ, by ac_aa
   NG2D1   CG2DC1   CG2DC2     HGA4     9   180.000000     3.771039     2 ; sb_ot 2021, from NG2D1  CG2DC2 CG2DC1 HGA4
   NG2P1   CG2DC1   CG2DC2   CG2DC3     9     0.000000     2.092000     1 ; RETINOL SCH3, Schiff's base, protonated
   NG2P1   CG2DC1   CG2DC2   CG2DC3     9   180.000000     9.204800     2 ; RETINOL SCH3, Schiff's base, protonated
   NG2P1   CG2DC1   CG2DC2   CG2DC3     9     0.000000     4.602400     3 ; RETINOL SCH3, Schiff's base, protonated
   NG2P1   CG2DC1   CG2DC2   CG2DC3     9     0.000000     2.510400     4 ; RETINOL SCH3, Schiff's base, protonated
   NG2P1   CG2DC1   CG2DC2     HGA4     9   180.000000     4.184000     2 ; RETINOL SCH3, Schiff's base, protonated
    HGA4   CG2DC1   CG2DC2   CG2D2O     9   180.000000     4.184000     2 ; PY02, 2h-pyran; re-initialized from MOBU, 1-Methoxy-1,3-butadiene; xxwy
    HGA4   CG2DC1   CG2DC2   CG2DC1     9   180.000000     7.326602     2 ; CR8D, by ac_aa
    HGA4   CG2DC1   CG2DC2   CG2DC2     9   180.000000     4.184000     2 ; RETINOL 13DB, 1,3-Butadiene
    HGA4   CG2DC1   CG2DC2   CG2DC3     9   180.000000     4.184000     2 ; RETINOL 13DB, 1,3-Butadiene
    HGA4   CG2DC1   CG2DC2    CG2O5     9   180.000000     4.248434     2 ; sb_ot 2021, from CG2O5  CG2DC2 CG2DC1 HGA4
    HGA4   CG2DC1   CG2DC2    CG301     9   180.000000     4.184000     2 ; RETINOL MECH
    HGA4   CG2DC1   CG2DC2    CG331     9   180.000000     4.184000     2 ; RETINOL DMB1, 2-methyl-1,3-butadiene
    HGA4   CG2DC1   CG2DC2    NG2D1     9   180.000000     3.771039     2 ; sb_ot 2021, from NG2D1  CG2DC2 CG2DC1 HGA4
    HGA4   CG2DC1   CG2DC2    NG2P1     9   180.000000     4.184000     2 ; RETINOL SCH3, Schiff's base, protonated
    HGA4   CG2DC1   CG2DC2     HGA4     9   180.000000     0.000000     2 ; RETINOL 13DB, 1,3-Butadiene
    HGA4   CG2DC1   CG2DC2    HGR52     9   180.000000     0.000000     2 ; RETINOL SCH3, Schiff's base, protonated
   HGR52   CG2DC1   CG2DC2   CG2DC3     9   180.000000     4.184000     2 ; RETINOL SCH3, Schiff's base, protonated
   HGR52   CG2DC1   CG2DC2     HGA4     9   180.000000     0.000000     2 ; RETINOL SCH3, Schiff's base, protonated
  CG2DC2   CG2DC1   CG2DC3     HGA5     9   180.000000    20.920000     2 ; RETINOL 13DB, 1,3-Butadiene
   CG2O3   CG2DC1   CG2DC3     HGA5     9   180.000000    17.572800     2 ; RETINOL PRAC
   CG2O4   CG2DC1   CG2DC3     HGA5     9   180.000000    13.388800     2 ; RETINOL PRAL unmodified
   CG2O5   CG2DC1   CG2DC3     HGA5     9   180.000000    13.388800     2 ; BEON, butenone; from PRAL, acrolein; mcs
  CG2R51   CG2DC1   CG2DC3     HGA5     9   180.000000    14.644000     2 ; from CG2R61 CG2DC1 CG2DC3 HGA5, PENALTY= 8.5 SWG
  CG2R61   CG2DC1   CG2DC3     HGA5     9   180.000000    14.644000     2 ; STYR, styrene, xxwy & oashi
   CG321   CG2DC1   CG2DC3     HGA5     9   180.000000    21.756800     2 ; from CG331 CG2DC1 CG2DC3 HGA5, PENALTY= 0.9 2NP
   CG331   CG2DC1   CG2DC3     HGA5     9   180.000000    21.756800     2 ; RETINOL DMB1, 2-methyl-1,3-butadiene
    HGA4   CG2DC1   CG2DC3     HGA5     9   180.000000    21.756800     2 ; RETINOL HEP3, 1,3,5-heptatriene
  CG2D1O   CG2DC1    CG2O1    NG2D1     9     0.000000    25.234959     2 ; ABSB, amide base, sr
  CG2D1O   CG2DC1    CG2O1    NG2S2     9   180.000000     4.602400     1 ; NICH; Kenno: reverted to nadh, jjp1,adm jr. 4/95
  CG2D1O   CG2DC1    CG2O1    NG2S2     9   180.000000     8.158800     2 ; NICH; Kenno: reverted to nadh, jjp1,adm jr. 4/95
  CG2D1O   CG2DC1    CG2O1    OG2D1     9     0.000000     1.255200     1 ; NICH; Kenno: reverted to nadh, jjp1,adm jr. 4/95
  CG2D1O   CG2DC1    CG2O1    OG2D1     9   180.000000     8.158800     2 ; NICH; Kenno: reverted to nadh, jjp1,adm jr. 4/95
  CG2DC1   CG2DC1    CG2O1    NG2S1     9     0.000000     2.928800     1 ; RETINOL CROT
  CG2DC1   CG2DC1    CG2O1    NG2S1     9   180.000000     5.020800     2 ; RETINOL CROT
  CG2DC1   CG2DC1    CG2O1    NG2S1     9     0.000000     0.418400     3 ; RETINOL CROT
  CG2DC1   CG2DC1    CG2O1    NG2S1     9     0.000000     0.627600     4 ; RETINOL CROT
  CG2DC1   CG2DC1    CG2O1    OG2D1     9   180.000000     2.928800     1 ; RETINOL CROT
  CG2DC1   CG2DC1    CG2O1    OG2D1     9   180.000000     5.020800     2 ; RETINOL CROT
  CG2DC1   CG2DC1    CG2O1    OG2D1     9   180.000000     0.418400     3 ; RETINOL CROT
  CG2DC1   CG2DC1    CG2O1    OG2D1     9     0.000000     0.836800     4 ; RETINOL CROT
   CG321   CG2DC1    CG2O1    NG2S2     9   180.000000     2.092000     2 ; NICH; Kenno: reverted to nadh, jjp1,adm jr. 4/95
   CG321   CG2DC1    CG2O1    NG2S2     9   180.000000     1.464400     3 ; NICH; Kenno: reverted to nadh, jjp1,adm jr. 4/95
   CG321   CG2DC1    CG2O1    NG2S2     9     0.000000     1.673600     6 ; NICH; Kenno: reverted to nadh, jjp1,adm jr. 4/95
   CG321   CG2DC1    CG2O1    OG2D1     9   180.000000     4.184000     2 ; NICH; Kenno: reverted to nadh, jjp1,adm jr. 4/95
   CG321   CG2DC1    CG2O1    OG2D1     9     0.000000     4.184000     3 ; NICH; Kenno: reverted to nadh, jjp1,adm jr. 4/95
   CG321   CG2DC1    CG2O1    OG2D1     9     0.000000     1.673600     6 ; NICH; Kenno: reverted to nadh, jjp1,adm jr. 4/95
    HGA4   CG2DC1    CG2O1    NG2D1     9   180.000000     1.255200     3 ; ABSB, amide base, sr
    HGA4   CG2DC1    CG2O1    NG2S1     9   180.000000     1.255200     3 ; RETINOL CROT
    HGA4   CG2DC1    CG2O1    OG2D1     9   180.000000     1.255200     3 ; RETINOL CROT
  CG2D1O   CG2DC1    CG2O2    OG2D1     9   180.000000    28.567097     2 ; DYAP, by ac_aa
  CG2D1O   CG2DC1    CG2O2    OG311     9   180.000000     4.784822     2 ; DYAP, by ac_aa
    HGA4   CG2DC1    CG2O2    OG2D1     9   180.000000     0.000000     2 ; from HGA4 CG2DC1 CG2O5 OG2D3, PENALTY= 10.5 DYA
    HGA4   CG2DC1    CG2O2    OG311     9   180.000000     1.083238     2 ; DYAP, by ac_aa
  CG2D1O   CG2DC1    CG2O3    OG2D2     9   180.000000     5.439200     2 ; from CG2DC1 CG2DC1 CG2O3 OG2D2, PENALTY= 3.5 DYA
  CG2DC1   CG2DC1    CG2O3    OG2D2     9   180.000000     5.439200     2 ; RETINOL PRAC
  CG2DC3   CG2DC1    CG2O3    OG2D2     9   180.000000     5.439200     2 ; RETINOL PRAC
   CG321   CG2DC1    CG2O3    OG2D2     9     0.000000     0.294135     2 ; 2NP, by ac_aa
   CG321   CG2DC1    CG2O3    OG2D2     9     0.000000     5.893582     3 ; 2NP, by ac_aa
   CG321   CG2DC1    CG2O3    OG2D2     9   180.000000     0.004602     6 ; 2NP, by ac_aa
   CG331   CG2DC1    CG2O3    OG2D2     9   180.000000     4.048438     2 ; KPI, by ac_aa
   CG331   CG2DC1    CG2O3    OG2D2     9     0.000000     6.854229     3 ; KPI, by ac_aa
   CG331   CG2DC1    CG2O3    OG2D2     9     0.000000     0.000418     6 ; KPI, by ac_aa
   NG2D1   CG2DC1    CG2O3    OG2D2     9     0.000000     2.084469     2 ; MCL, by ac_aa
    HGA4   CG2DC1    CG2O3    OG2D2     9   180.000000     0.000000     2 ; RETINOL PRAC
  CG2DC1   CG2DC1    CG2O4    OG2D1     9   180.000000     4.184000     2 ; RETINOL PRAL unmodified
  CG2DC1   CG2DC1    CG2O4    HGR52     9   180.000000    13.388800     2 ; RETINOL PRAL unmodified
  CG2DC3   CG2DC1    CG2O4    OG2D1     9   180.000000     4.184000     2 ; RETINOL PRAL unmodified
  CG2DC3   CG2DC1    CG2O4    HGR52     9   180.000000    13.388800     2 ; RETINOL PRAL unmodified
    HGA4   CG2DC1    CG2O4    OG2D1     9   180.000000     0.000000     2 ; RETINOL PRAL unmodified
    HGA4   CG2DC1    CG2O4    HGR52     9   180.000000     0.000000     2 ; RETINOL PRAL unmodified
  CG2D1O   CG2DC1    CG2O5   CG2DC1     9   180.000000    13.744440     2 ; TPQ, by ac_aa
  CG2D1O   CG2DC1    CG2O5    OG2D3     9   180.000000     5.857600     2 ; from CG2DC3 CG2DC1 CG2O5 OG2D3, PENALTY= 5.5 TPQ TPQP
  CG2DC1   CG2DC1    CG2O5   CG2D1O     9   180.000000     0.841402     2 ; TPQ, by ac_aa
  CG2DC1   CG2DC1    CG2O5   CG2DC1     9   180.000000     4.229606     2 ; TPQ, by ac_aa
  CG2DC1   CG2DC1    CG2O5    CG2O5     9   180.000000     0.052300     2 ; TRQ, by ac_aa
  CG2DC1   CG2DC1    CG2O5    OG2D3     9   180.000000     5.857600     2 ; from CG2DC3 CG2DC1 CG2O5 OG2D3, PENALTY= 3.5 TPQ TPQP TRQ
  CG2DC2   CG2DC1    CG2O5   CG2R51     9   180.000000     4.538385     2 ; sb_ot 2021, from CG2DC1 CG2DC2 CG2O5  CG2R51
  CG2DC2   CG2DC1    CG2O5    OG2D3     9   180.000000     5.857600     2 ; sb_ot 2021, from CG2DC1 CG2DC1 CG2O5  OG2D3
  CG2DC3   CG2DC1    CG2O5    CG331     9   180.000000     5.857600     2 ; BEON, butenone, kevo
  CG2DC3   CG2DC1    CG2O5    OG2D3     9   180.000000     5.857600     2 ; BEON, butenone, kevo
   CG321   CG2DC1    CG2O5   CG2DC1     9   180.000000     0.005021     2 ; TPQ, by ac_aa
   CG321   CG2DC1    CG2O5    OG2D3     9   180.000000     3.782754     2 ; TPQ, by ac_aa
   CG331   CG2DC1    CG2O5   CG2DC1     9   180.000000     0.005021     2 ; TPQ, by ac_aa
   CG331   CG2DC1    CG2O5    OG2D3     9   180.000000     3.782754     2 ; TPQ, by ac_aa
   NG2D1   CG2DC1    CG2O5   CG2R51     9   180.000000     0.006694     2 ; sb_ot 2021, from NG2D1  CG2DC2 CG2O5  CG2R51
   NG2D1   CG2DC1    CG2O5    OG2D3     9   180.000000     0.046442     2 ; sb_ot 2021, from NG2D1  CG2DC2 CG2O5  OG2D3
    HGA4   CG2DC1    CG2O5   CG2D1O     9   180.000000     9.863780     2 ; TPQ, by ac_aa
    HGA4   CG2DC1    CG2O5   CG2DC1     9   180.000000    12.962450     2 ; TPQ, by ac_aa
    HGA4   CG2DC1    CG2O5    CG2O5     9   180.000000     0.219660     2 ; TRQ, by ac_aa
    HGA4   CG2DC1    CG2O5    CG331     9   180.000000     0.000000     2 ; BEON, butenone, from PRAL, acrolein; mcs
    HGA4   CG2DC1    CG2O5    OG2D3     9   180.000000     0.000000     2 ; BEON, butenone, from PRAL, acrolein; mcs
  CG251O   CG2DC1   CG2R51   CG2R51     9   180.000000     0.210455     1 ; from CG2R51 CG2R51 CG2DC1 CG2DC3, SWG
  CG251O   CG2DC1   CG2R51   CG2R51     9   180.000000     3.229211     2 ; from CG2R51 CG2R51 CG2DC1 CG2DC3, SWG
  CG251O   CG2DC1   CG2R51   CG2R51     9     0.000000     1.817948     4 ; from CG2R51 CG2R51 CG2DC1 CG2DC3, SWG
  CG251O   CG2DC1   CG2R51   CG2RC0     9   180.000000     1.681550     2 ; from CG2RC0 CG2R51 CG2DC1 CG2DC3, SWG
  CG2DC1   CG2DC1   CG2R51   CG2R51     9   180.000000     3.179840     2 ; TRQ, by ac_aa
  CG2DC1   CG2DC1   CG2R51   NG2R50     9   180.000000     8.330762     1 ; from CG2DC3 CG2DC1 CG2R51 NG2R50, CR8D
  CG2DC1   CG2DC1   CG2R51   NG2R50     9   180.000000     5.547566     2 ; from CG2DC3 CG2DC1 CG2R51 NG2R50, CR8D
  CG2DC1   CG2DC1   CG2R51   NG2R50     9     0.000000     0.437646     4 ; from CG2DC3 CG2DC1 CG2R51 NG2R50, CR8D
  CG2DC3   CG2DC1   CG2R51   CG2R51     9   180.000000     0.210455     1 ; CR8D, by ac_aa
  CG2DC3   CG2DC1   CG2R51   CG2R51     9   180.000000     3.229211     2 ; CR8D, by ac_aa
  CG2DC3   CG2DC1   CG2R51   CG2R51     9     0.000000     1.817948     4 ; CR8D, by ac_aa
  CG2DC3   CG2DC1   CG2R51   CG2RC0     9   180.000000     1.681550     2 ; SWG, by ac_aa
  CG2DC3   CG2DC1   CG2R51   NG2R50     9   180.000000     8.330762     1 ; CR8D, by ac_aa
  CG2DC3   CG2DC1   CG2R51   NG2R50     9   180.000000     5.547566     2 ; CR8D, by ac_aa
  CG2DC3   CG2DC1   CG2R51   NG2R50     9     0.000000     0.437646     4 ; CR8D, by ac_aa
    HGA4   CG2DC1   CG2R51   CG2R51     9   180.000000     3.491966     2 ; TRQ, by ac_aa
    HGA4   CG2DC1   CG2R51   CG2RC0     9   180.000000     2.482786     2 ; SWG, by ac_aa
    HGA4   CG2DC1   CG2R51   NG2R50     9   180.000000     0.023012     2 ; CR8D, by ac_aa
   CG321   CG2DC1   CG2R53   NG2R50     9   180.000000     2.098694     2 ; from NG2R50 CG2R53 CG2DC1 CG331, CRQ
   CG321   CG2DC1   CG2R53   NG2R50     9   180.000000     1.885729     3 ; from NG2R50 CG2R53 CG2DC1 CG331, CRQ
   CG321   CG2DC1   CG2R53   NG2R50     9     0.000000     0.399154     6 ; from NG2R50 CG2R53 CG2DC1 CG331, CRQ
   CG321   CG2DC1   CG2R53   NG2R51     9   180.000000     3.991118     2 ; from NG2R51 CG2R53 CG2DC1 CG331, CRQ
   CG321   CG2DC1   CG2R53   NG2R51     9     0.000000     2.622113     4 ; from NG2R51 CG2R53 CG2DC1 CG331, CRQ
   CG331   CG2DC1   CG2R53   NG2R50     9   180.000000     2.098694     2 ; NRQ, by ac_aa
   CG331   CG2DC1   CG2R53   NG2R50     9   180.000000     1.885729     3 ; NRQ, by ac_aa
   CG331   CG2DC1   CG2R53   NG2R50     9     0.000000     0.399154     6 ; NRQ, by ac_aa
   CG331   CG2DC1   CG2R53   NG2R51     9   180.000000     3.991118     2 ; NRQ, by ac_aa
   CG331   CG2DC1   CG2R53   NG2R51     9     0.000000     2.622113     4 ; NRQ, by ac_aa
   NG2D1   CG2DC1   CG2R53   NG2R50     9   180.000000    15.061982     2 ; NRQ, by ac_aa
   NG2D1   CG2DC1   CG2R53   NG2R51     9   180.000000     7.458817     2 ; NRQ, by ac_aa
  CG251O   CG2DC1   CG2R61   CG2R61     9   180.000000     8.249174     2 ; XYG, by ac_aa
  CG251O   CG2DC1   CG2R61   CG2R61     9   180.000000     0.069454     4 ; XYG, by ac_aa
  CG2DC1   CG2DC1   CG2R61   CG2R61     9   180.000000     3.138000     2 ; from CG2DC3 CG2DC1 CG2R61 CG2R61, PENALTY= 3.5 STYA
  CG2DC1   CG2DC1   CG2R61   CG2R61     9     0.000000     0.794960     4 ; from CG2DC3 CG2DC1 CG2R61 CG2R61, PENALTY= 3.5 STYA
  CG2DC3   CG2DC1   CG2R61   CG2R61     9   180.000000     3.138000     2 ; STYR, styrene, xxwy & oashi
  CG2DC3   CG2DC1   CG2R61   CG2R61     9     0.000000     0.794960     4 ; STYR, styrene, xxwy & oashi
   NG2D1   CG2DC1   CG2R61   CG2R61     9   180.000000     6.694400     2 ; HDZ1b, hydrazone model cmpd 1b, kevo
    HGA4   CG2DC1   CG2R61   CG2R61     9   180.000000     2.510400     2 ; HDZ1b, hydrazone model cmpd 1b, kevo
  CG2DC1   CG2DC1    CG301    CG321     9     0.000000     2.092000     2 ; RETINOL TMCH
  CG2DC1   CG2DC1    CG301    CG321     9     0.000000     1.255200     3 ; RETINOL TMCH
  CG2DC1   CG2DC1    CG301    CG331     9     0.000000     2.092000     2 ; RETINOL TMCH
  CG2DC1   CG2DC1    CG301    CG331     9     0.000000     1.673600     3 ; RETINOL TMCH
  CG2DC2   CG2DC1    CG301    CG321     9     0.000000     1.255200     3 ; RETINOL MECH
  CG2DC2   CG2DC1    CG301    CG331     9     0.000000     1.255200     3 ; RETINOL MECH
  CG2D1O   CG2DC1    CG321    CG2D1     9   180.000000     0.000000     3 ; NICH; Kenno: nad/ppi, jjp1/adm jr. 7/95 says 1.0 3 180 but that's unlikely ==> re-optimize
  CG2D1O   CG2DC1    CG321     HGA2     9   180.000000     0.000000     3 ; NICH; Kenno: nad/ppi, jjp1/adm jr. 7/95 says 1.0 3 180 but that's unlikely ==> re-optimize
  CG2DC1   CG2DC1    CG321    CG321     9     0.000000     2.092000     2 ; RETINOL TMCH
  CG2DC1   CG2DC1    CG321    CG321     9     0.000000     1.255200     3 ; RETINOL TMCH
  CG2DC1   CG2DC1    CG321    CG331     9     0.000000     2.092000     2 ; from CG2DC1 CG2DC1 CG321 CG321, penalty= 0.9 TPQ TPQP
  CG2DC1   CG2DC1    CG321    CG331     9     0.000000     1.255200     3 ; from CG2DC1 CG2DC1 CG321 CG321, penalty= 0.9 TPQ TPQP
  CG2DC1   CG2DC1    CG321    OG311     9   180.000000     7.949600     1 ; RETINOL PROL
  CG2DC1   CG2DC1    CG321    OG311     9   180.000000     1.673600     2 ; RETINOL PROL
  CG2DC1   CG2DC1    CG321    OG311     9   180.000000     2.510400     3 ; RETINOL PROL
  CG2DC1   CG2DC1    CG321   OG3R60     9     0.000000     2.928800     3 ; PY02, 2h-pyran
  CG2DC1   CG2DC1    CG321     HGA2     9     0.000000     0.125520     3 ; RETINOL PROL
  CG2DC3   CG2DC1    CG321    CG321     9     0.000000     2.092000     2 ; from CG2DC1 CG2DC1 CG321 CG321, PENALTY= 4 2NP
  CG2DC3   CG2DC1    CG321    CG321     9     0.000000     1.255200     3 ; from CG2DC1 CG2DC1 CG321 CG321, PENALTY= 4 2NP
  CG2DC3   CG2DC1    CG321     HGA2     9     0.000000     0.125520     3 ; from CG2DC1 CG2DC1 CG321 HGA2, PENALTY= 4 2NP
   CG2O1   CG2DC1    CG321    CG2D1     9     0.000000     0.000000     3 ; NICH; Kenno: nad/ppi, jjp1/adm jr. 7/95 says 1.0 3 180 but that's unlikely ==> re-optimize
   CG2O1   CG2DC1    CG321     HGA2     9     0.000000     0.000000     3 ; NICH; Kenno: nad/ppi, jjp1/adm jr. 7/95 says 1.0 3 180 but that's unlikely ==> re-optimize
   CG2O3   CG2DC1    CG321    CG321     9     0.000000     2.807464     1 ; 2NP, by ac_aa
   CG2O3   CG2DC1    CG321    CG321     9     0.000000     9.406050     3 ; 2NP, by ac_aa
   CG2O3   CG2DC1    CG321     HGA2     9     0.000000     0.000000     3 ; from CG2O1 CG2DC1 CG321 HGA2, PENALTY= 7.5 2NP
   CG2O5   CG2DC1    CG321    CG331     9     0.000000     3.810787     1 ; TPQ, by ac_aa
   CG2O5   CG2DC1    CG321    CG331     9     0.000000     2.798678     2 ; TPQ, by ac_aa
   CG2O5   CG2DC1    CG321    CG331     9     0.000000     7.303172     3 ; TPQ, by ac_aa
   CG2O5   CG2DC1    CG321     HGA2     9     0.000000     0.000000     3 ; from CG2O1 CG2DC1 CG321 HGA2, PENALTY= 3 TPQ TPQP
  CG2R53   CG2DC1    CG321    CG321     9     0.000000     0.794960     3 ; from CG331 CG2DC1 CG321 CG321, NRQ
  CG2R53   CG2DC1    CG321     HGA2     9   180.000000     2.519605     3 ; from HGA3 CG331 CG2DC1 CG2R53, CRQ
   CG331   CG2DC1    CG321    CG321     9     0.000000     0.794960     3 ; RETINOL TMCH
   CG331   CG2DC1    CG321     HGA2     9     0.000000     0.794960     3 ; RETINOL TMCH
   NG2D1   CG2DC1    CG321    CG321     9     0.000000     0.252295     2 ; NRQ, by ac_aa1
   NG2D1   CG2DC1    CG321    CG321     9     0.000000     1.977777     3 ; NRQ, by ac_aa1
   NG2D1   CG2DC1    CG321     HGA2     9   180.000000     1.615024     3 ; from HGA3 CG331 CG2DC1 NG2D1, CRQ
    HGA4   CG2DC1    CG321    OG311     9     0.000000     0.836800     3 ; RETINOL PROL
    HGA4   CG2DC1    CG321   OG3R60     9     0.000000     0.836800     3 ; PY02, 2h-pyran; re-initialized from PROL, 3-propenol; kevo
    HGA4   CG2DC1    CG321     HGA2     9     0.000000     0.836800     3 ; RETINOL PROL
  CG2DC1   CG2DC1    CG324     HGA2     9     0.000000     0.125520     3 ; from CG2DC1 CG2DC1 CG321 HGA2, PENALTY= 1 LYR
    HGA4   CG2DC1    CG324     HGA2     9     0.000000     0.836800     3 ; from HGA4 CG2DC1 CG321 HGA2, PENALTY= 1 LYR
  CG251O   CG2DC1    CG331     HGA3     9   180.000000     1.115454     3 ; NRQ, by ac_aa
  CG2D1O   CG2DC1    CG331     HGA3     9   180.000000     1.255200     3 ; from CG2DC1 CG2DC1 CG331 HGA3, penalty= 3.5, sm071
  CG2DC1   CG2DC1    CG331     HGA3     9   180.000000     1.255200     3 ; RETINOL BTE2, 2-butene @@@@@ Kenno: 0 --> 180 to fix minimum @@@@@
  CG2DC2   CG2DC1    CG331     HGA3     9   180.000000     1.255200     3 ; RETINOL DMB1, 2-methyl-1,3-butadiene
  CG2DC3   CG2DC1    CG331     HGA3     9     0.000000     1.255200     3 ; RETINOL DMP2, 2-methyl-1,3-pentadiene
   CG2O3   CG2DC1    CG331     HGA3     9   180.000000     1.445990     3 ; KPI, by ac_aa
  CG2R53   CG2DC1    CG331     HGA3     9   180.000000     2.519605     3 ; NRQ, by ac_aa
   CG321   CG2DC1    CG331     HGA3     9     0.000000     0.669440     3 ; RETINOL MECH
   CG331   CG2DC1    CG331     HGA3     9     0.000000     1.255200     3 ; RETINOL DMP1, 4-methyl-1,3-pentadiene
   NG2D1   CG2DC1    CG331     HGA3     9   180.000000     1.615024     3 ; MCL, by ac_aa
    HGA4   CG2DC1    CG331     HGA3     9     0.000000     0.000000     3 ; RETINOL BTE2, 2-butene @@@@@ Kenno: 0.3 --> 0.0 to fix planarity around CG2DCx @@@@@
  CG2DC2   CG2DC1    NG2D1     HGP1     9   180.000000    49.867422     2 ; sb_ot 2021, from HGP1   NG2D1  CG2DC2 CG2DC
   CG2O3   CG2DC1    NG2D1    CG321     9   180.000000    20.656408     2 ; MCL, by ac_aa
   CG2O3   CG2DC1    NG2D1    CG331     9   180.000000    20.484864     2 ; KPI, by ac_aa
   CG2O5   CG2DC1    NG2D1     HGP1     9   180.000000    46.768334     2 ; sb_ot 2021, from HGP1   NG2D1  CG2DC2 CG2O5
  CG2R53   CG2DC1    NG2D1    CG2O1     9   180.000000    37.806624     2 ; NRQ, by ac_aa
  CG2R61   CG2DC1    NG2D1    CG321     9   180.000000     6.101946     2 ; IT1P, by ac_aa
  CG2R61   CG2DC1    NG2D1    CG331     9   180.000000    40.861362     2 ; LLPP, by ac_aa
  CG2R61   CG2DC1    NG2D1    NG2S1     9   180.000000    50.208000     2 ; HDZ2, hydrazone model cmpd 2
   CG321   CG2DC1    NG2D1    CG2O1     9     0.000000    27.817742     1 ; NRQ, by ac_aa1
   CG321   CG2DC1    NG2D1    CG2O1     9   180.000000    21.499902     2 ; NRQ, by ac_aa1
   CG331   CG2DC1    NG2D1    CG2O1     9     0.000000    24.888942     1 ; NRQ, by ac_aa
   CG331   CG2DC1    NG2D1    CG2O1     9   180.000000    27.708122     2 ; NRQ, by ac_aa
   CG331   CG2DC1    NG2D1    CG321     9   180.000000    38.604094     2 ; MCL, by ac_aa
   CG331   CG2DC1    NG2D1    CG331     9   180.000000    33.269494     2 ; KPI, by ac_aa
    HGA4   CG2DC1    NG2D1    CG321     9   180.000000    15.411764     2 ; IT1P, by ac_aa
    HGA4   CG2DC1    NG2D1    CG331     9   180.000000    18.395374     2 ; LLPP, by ac_aa
    HGA4   CG2DC1    NG2D1    NG2S1     9   180.000000    16.736000     2 ; HDZ2, hydrazone model cmpd 2
  CG2DC2   CG2DC1    NG2P1    CG334     9   180.000000    29.288000     2 ; RETINOL SCH3, Schiff's base, protonated
  CG2DC2   CG2DC1    NG2P1     HGP2     9   180.000000    20.920000     2 ; RETINOL SCH3, Schiff's base, protonated
   CG2O3   CG2DC1    NG2P1    CG324     9   180.000000    18.520058     2 ; from CG2O3 CG2DC1 NG2P1 CG334, KPI
   CG331   CG2DC1    NG2P1    CG324     9   180.000000    16.998755     2 ; from CG331 CG2DC1 NG2P1 CG334, KPI
   HGR52   CG2DC1    NG2P1    CG334     9   180.000000    35.564000     2 ; RETINOL SCH2, Schiff's base, protonated
   HGR52   CG2DC1    NG2P1     HGP2     9   180.000000    20.920000     2 ; RETINOL SCH2, Schiff's base, protonated
  CG2DC1   CG2DC2   CG2DC2   CG2DC1     9   180.000000     2.343040     1 ; RETINOL HEP3, 1,3,5-heptatriene
  CG2DC1   CG2DC2   CG2DC2   CG2DC1     9   180.000000    29.288000     2 ; RETINOL HEP3, 1,3,5-heptatriene
  CG2DC1   CG2DC2   CG2DC2    CG2O1     9   180.000000     2.343040     1 ; RETINOL FRET
  CG2DC1   CG2DC2   CG2DC2    CG2O1     9   180.000000    29.288000     2 ; RETINOL FRET
  CG2DC1   CG2DC2   CG2DC2    CG2O3     9   180.000000     2.343040     1 ; RETINOL PRAC
  CG2DC1   CG2DC2   CG2DC2    CG2O3     9   180.000000    29.288000     2 ; RETINOL PRAC
  CG2DC1   CG2DC2   CG2DC2    CG2O4     9   180.000000     2.343040     1 ; RETINOL RTAL unmodified
  CG2DC1   CG2DC2   CG2DC2    CG2O4     9   180.000000    29.288000     2 ; RETINOL RTAL unmodified
  CG2DC1   CG2DC2   CG2DC2    CG2O5     9   180.000000     2.343040     1 ; sb_ot 2021, from CG2DC2 CG2DC1 CG2DC1 CG2O4
  CG2DC1   CG2DC2   CG2DC2    CG2O5     9   180.000000    29.288000     2 ; sb_ot 2021, from CG2DC2 CG2DC1 CG2DC1 CG2O4
  CG2DC1   CG2DC2   CG2DC2   CG2R51     9   180.000000     2.612071     1 ; TQQ, by ac_aa
  CG2DC1   CG2DC2   CG2DC2   CG2R51     9   180.000000    29.050349     2 ; TQQ, by ac_aa
  CG2DC1   CG2DC2   CG2DC2    CG321     9   180.000000     2.343040     1 ; RETINOL MECH
  CG2DC1   CG2DC2   CG2DC2    CG321     9   180.000000    29.288000     2 ; RETINOL MECH
  CG2DC1   CG2DC2   CG2DC2    CG331     9   180.000000     2.343040     1 ; RETINOL 13DP, 1,3-Pentadiene
  CG2DC1   CG2DC2   CG2DC2    CG331     9   180.000000    29.288000     2 ; RETINOL 13DP, 1,3-Pentadiene
  CG2DC1   CG2DC2   CG2DC2     HGA4     9   180.000000    21.756800     2 ; RETINOL 13DB, 1,3-Butadiene
   CG2O1   CG2DC2   CG2DC2    CG331     9   180.000000     2.343040     1 ; RETINOL CROT
   CG2O1   CG2DC2   CG2DC2    CG331     9   180.000000    29.288000     2 ; RETINOL CROT
   CG2O1   CG2DC2   CG2DC2     HGA4     9   180.000000    21.741319     2 ; KCR, by ac_aa
   CG2O3   CG2DC2   CG2DC2    CG331     9   180.000000     2.343040     1 ; RETINOL PRAC
   CG2O3   CG2DC2   CG2DC2    CG331     9   180.000000    29.288000     2 ; RETINOL PRAC
   CG2O4   CG2DC2   CG2DC2    CG331     9   180.000000     2.343040     1 ; RETINOL RTAL
   CG2O4   CG2DC2   CG2DC2    CG331     9   180.000000    29.288000     2 ; RETINOL RTAL Kenno: 0.5 -> 7.0 for the sake of transferability
   CG2O5   CG2DC2   CG2DC2    CG2O5     9   180.000000     2.343040     1 ; TPQ, by ac_aa
   CG2O5   CG2DC2   CG2DC2    CG2O5     9   180.000000     0.850189     2 ; TPQ, by ac_aa
   CG2O5   CG2DC2   CG2DC2   CG2R51     9   180.000000     7.049203     2 ; TRQ, by ac_aa
   CG2O5   CG2DC2   CG2DC2    CG321     9   180.000000     2.343040     1 ; from CG2O4 CG2DC1 CG2DC1 CG331, PENALTY= 1.4 TPQ TPQP
   CG2O5   CG2DC2   CG2DC2    CG321     9   180.000000    29.288000     2 ; from CG2O4 CG2DC1 CG2DC1 CG331, PENALTY= 1.4 TPQ TPQP
   CG2O5   CG2DC2   CG2DC2     HGA4     9   180.000000     4.537548     2 ; TPQ, by ac_aa
  CG2R51   CG2DC2   CG2DC2     HGA4     9   180.000000    22.051772     2 ; TRQ, by ac_aa
  CG2R61   CG2DC2   CG2DC2    CG321     9   180.000000     2.345132     1 ; from CG2R61 CG2DC1 CG2DC1 CG331, STYA
  CG2R61   CG2DC2   CG2DC2    CG321     9   180.000000    29.159133     2 ; from CG2R61 CG2DC1 CG2DC1 CG331, STYA
  CG2R61   CG2DC2   CG2DC2    CG331     9   180.000000     2.345132     1 ; STYA, by ac_aa
  CG2R61   CG2DC2   CG2DC2    CG331     9   180.000000    29.159133     2 ; STYA, by ac_aa
  CG2R61   CG2DC2   CG2DC2     HGA4     9   180.000000    21.751779     2 ; STYA, by ac_aa
   CG301   CG2DC2   CG2DC2    CG321     9   180.000000    41.840000     2 ; RETINOL TMCH
   CG301   CG2DC2   CG2DC2    CG331     9   180.000000    41.840000     2 ; RETINOL MECH
   CG321   CG2DC2   CG2DC2    CG331     9   180.000000    41.840000     2 ; RETINOL BTE2, 2-butene
   CG321   CG2DC2   CG2DC2     HGA4     9   180.000000    21.756800     2 ; PY02, 2h-pyran; re-initialized from BTE2, 2-butene; kevo
   CG331   CG2DC2   CG2DC2     HGA4     9   180.000000    21.756800     2 ; RETINOL BTE2, 2-butene
    HGA4   CG2DC2   CG2DC2     HGA4     9   180.000000    21.756800     2 ; RETINOL BTE2, 2-butene
  CG2DC1   CG2DC2   CG2DC3     HGA5     9   180.000000    20.920000     2 ; RETINOL 13DB, 1,3-Butadiene
   CG2O3   CG2DC2   CG2DC3     HGA5     9   180.000000    17.572800     2 ; RETINOL PRAC
   CG2O4   CG2DC2   CG2DC3     HGA5     9   180.000000    13.388800     2 ; RETINOL PRAL unmodified
   CG2O5   CG2DC2   CG2DC3     HGA5     9   180.000000    13.388800     2 ; BEON, butenone; from PRAL, acrolein; mcs
  CG2R51   CG2DC2   CG2DC3     HGA5     9   180.000000    14.644000     2 ; from CG2R61 CG2DC1 CG2DC3 HGA5, PENALTY= 8.5 SWG
  CG2R61   CG2DC2   CG2DC3     HGA5     9   180.000000    14.644000     2 ; STYR, styrene, xxwy & oashi
   CG321   CG2DC2   CG2DC3     HGA5     9   180.000000    21.756800     2 ; from CG331 CG2DC1 CG2DC3 HGA5, PENALTY= 0.9 2NP
   CG331   CG2DC2   CG2DC3     HGA5     9   180.000000    21.756800     2 ; RETINOL DMB1, 2-methyl-1,3-butadiene
    HGA4   CG2DC2   CG2DC3     HGA5     9   180.000000    21.756800     2 ; RETINOL HEP3, 1,3,5-heptatriene
  CG2D2O   CG2DC2    CG2O1    NG2D1     9     0.000000    25.234959     2 ; ABSB, amide base, sr
  CG2D2O   CG2DC2    CG2O1    NG2S2     9   180.000000     4.602400     1 ; NICH; Kenno: reverted to nadh, jjp1,adm jr. 4/95
  CG2D2O   CG2DC2    CG2O1    NG2S2     9   180.000000     8.158800     2 ; NICH; Kenno: reverted to nadh, jjp1,adm jr. 4/95
  CG2D2O   CG2DC2    CG2O1    OG2D1     9     0.000000     1.255200     1 ; NICH; Kenno: reverted to nadh, jjp1,adm jr. 4/95
  CG2D2O   CG2DC2    CG2O1    OG2D1     9   180.000000     8.158800     2 ; NICH; Kenno: reverted to nadh, jjp1,adm jr. 4/95
  CG2DC2   CG2DC2    CG2O1    NG2S1     9     0.000000     2.928800     1 ; RETINOL CROT
  CG2DC2   CG2DC2    CG2O1    NG2S1     9   180.000000     5.020800     2 ; RETINOL CROT
  CG2DC2   CG2DC2    CG2O1    NG2S1     9     0.000000     0.418400     3 ; RETINOL CROT
  CG2DC2   CG2DC2    CG2O1    NG2S1     9     0.000000     0.627600     4 ; RETINOL CROT
  CG2DC2   CG2DC2    CG2O1    OG2D1     9   180.000000     2.928800     1 ; RETINOL CROT
  CG2DC2   CG2DC2    CG2O1    OG2D1     9   180.000000     5.020800     2 ; RETINOL CROT
  CG2DC2   CG2DC2    CG2O1    OG2D1     9   180.000000     0.418400     3 ; RETINOL CROT
  CG2DC2   CG2DC2    CG2O1    OG2D1     9     0.000000     0.836800     4 ; RETINOL CROT
   CG321   CG2DC2    CG2O1    NG2S2     9   180.000000     2.092000     2 ; NICH; Kenno: reverted to nadh, jjp1,adm jr. 4/95
   CG321   CG2DC2    CG2O1    NG2S2     9   180.000000     1.464400     3 ; NICH; Kenno: reverted to nadh, jjp1,adm jr. 4/95
   CG321   CG2DC2    CG2O1    NG2S2     9     0.000000     1.673600     6 ; NICH; Kenno: reverted to nadh, jjp1,adm jr. 4/95
   CG321   CG2DC2    CG2O1    OG2D1     9   180.000000     4.184000     2 ; NICH; Kenno: reverted to nadh, jjp1,adm jr. 4/95
   CG321   CG2DC2    CG2O1    OG2D1     9     0.000000     4.184000     3 ; NICH; Kenno: reverted to nadh, jjp1,adm jr. 4/95
   CG321   CG2DC2    CG2O1    OG2D1     9     0.000000     1.673600     6 ; NICH; Kenno: reverted to nadh, jjp1,adm jr. 4/95
    HGA4   CG2DC2    CG2O1    NG2D1     9   180.000000     1.255200     3 ; ABSB, amide base, sr
    HGA4   CG2DC2    CG2O1    NG2S1     9   180.000000     1.255200     3 ; RETINOL CROT
    HGA4   CG2DC2    CG2O1    OG2D1     9   180.000000     1.255200     3 ; RETINOL CROT
  CG2D2O   CG2DC2    CG2O2    OG2D1     9   180.000000    28.567097     2 ; DYAP, by ac_aa
  CG2D2O   CG2DC2    CG2O2    OG311     9   180.000000     4.784822     2 ; DYAP, by ac_aa
    HGA4   CG2DC2    CG2O2    OG2D1     9   180.000000     0.000000     2 ; from HGA4 CG2DC1 CG2O5 OG2D3, PENALTY= 10.5 DYA
    HGA4   CG2DC2    CG2O2    OG311     9   180.000000     1.083238     2 ; DYAP, by ac_aa
  CG2D2O   CG2DC2    CG2O3    OG2D2     9   180.000000     5.439200     2 ; from CG2DC1 CG2DC1 CG2O3 OG2D2, PENALTY= 3.5 DYA
  CG2DC2   CG2DC2    CG2O3    OG2D2     9   180.000000     5.439200     2 ; RETINOL PRAC
  CG2DC3   CG2DC2    CG2O3    OG2D2     9   180.000000     5.439200     2 ; RETINOL PRAC
   CG321   CG2DC2    CG2O3    OG2D2     9     0.000000     0.294135     2 ; 2NP, by ac_aa
   CG321   CG2DC2    CG2O3    OG2D2     9     0.000000     5.893582     3 ; 2NP, by ac_aa
   CG321   CG2DC2    CG2O3    OG2D2     9   180.000000     0.004602     6 ; 2NP, by ac_aa
   CG331   CG2DC2    CG2O3    OG2D2     9   180.000000     4.048438     2 ; KPI, by ac_aa
   CG331   CG2DC2    CG2O3    OG2D2     9     0.000000     6.854229     3 ; KPI, by ac_aa
   CG331   CG2DC2    CG2O3    OG2D2     9     0.000000     0.000418     6 ; KPI, by ac_aa
   NG2D1   CG2DC2    CG2O3    OG2D2     9     0.000000     2.084469     2 ; MCL, by ac_aa
    HGA4   CG2DC2    CG2O3    OG2D2     9   180.000000     0.000000     2 ; RETINOL PRAC
  CG2DC2   CG2DC2    CG2O4    OG2D1     9   180.000000     4.184000     2 ; RETINOL PRAL unmodified
  CG2DC2   CG2DC2    CG2O4    HGR52     9   180.000000    13.388800     2 ; RETINOL PRAL unmodified
  CG2DC3   CG2DC2    CG2O4    OG2D1     9   180.000000     4.184000     2 ; RETINOL PRAL unmodified
  CG2DC3   CG2DC2    CG2O4    HGR52     9   180.000000    13.388800     2 ; RETINOL PRAL unmodified
    HGA4   CG2DC2    CG2O4    OG2D1     9   180.000000     0.000000     2 ; RETINOL PRAL unmodified
    HGA4   CG2DC2    CG2O4    HGR52     9   180.000000     0.000000     2 ; RETINOL PRAL unmodified
  CG2D2O   CG2DC2    CG2O5   CG2DC2     9   180.000000    13.744440     2 ; TPQ, by ac_aa
  CG2D2O   CG2DC2    CG2O5    OG2D3     9   180.000000     5.857600     2 ; from CG2DC3 CG2DC1 CG2O5 OG2D3, PENALTY= 5.5 TPQ TPQP
  CG2DC1   CG2DC2    CG2O5   CG2R51     9   180.000000     4.538385     2 ; sb_ot 2021, from CG2DC1 CG2DC2 CG2O5  CG2R51
  CG2DC1   CG2DC2    CG2O5    OG2D3     9   180.000000     5.857600     2 ; sb_ot 2021, from CG2DC1 CG2DC1 CG2O5  OG2D3
  CG2DC2   CG2DC2    CG2O5   CG2D2O     9   180.000000     0.841402     2 ; TPQ, by ac_aa
  CG2DC2   CG2DC2    CG2O5   CG2DC2     9   180.000000     4.229606     2 ; TPQ, by ac_aa
  CG2DC2   CG2DC2    CG2O5    CG2O5     9   180.000000     0.052300     2 ; TRQ, by ac_aa
  CG2DC2   CG2DC2    CG2O5    OG2D3     9   180.000000     5.857600     2 ; from CG2DC3 CG2DC1 CG2O5 OG2D3, PENALTY= 3.5 TPQ TPQP TRQ
  CG2DC3   CG2DC2    CG2O5    CG331     9   180.000000     5.857600     2 ; BEON, butenone, kevo
  CG2DC3   CG2DC2    CG2O5    OG2D3     9   180.000000     5.857600     2 ; BEON, butenone, kevo
   CG321   CG2DC2    CG2O5   CG2DC2     9   180.000000     0.005021     2 ; TPQ, by ac_aa
   CG321   CG2DC2    CG2O5    OG2D3     9   180.000000     3.782754     2 ; TPQ, by ac_aa
   CG331   CG2DC2    CG2O5   CG2DC2     9   180.000000     0.005021     2 ; TPQ, by ac_aa
   CG331   CG2DC2    CG2O5    OG2D3     9   180.000000     3.782754     2 ; TPQ, by ac_aa
   NG2D1   CG2DC2    CG2O5   CG2R51     9   180.000000     0.006694     2 ; sb_ot 2021, from NG2D1  CG2DC2 CG2O5  CG2R51
   NG2D1   CG2DC2    CG2O5    OG2D3     9   180.000000     0.046442     2 ; sb_ot 2021, from NG2D1  CG2DC2 CG2O5  OG2D3
    HGA4   CG2DC2    CG2O5   CG2D2O     9   180.000000     9.863780     2 ; TPQ, by ac_aa
    HGA4   CG2DC2    CG2O5   CG2DC2     9   180.000000    12.962450     2 ; TPQ, by ac_aa
    HGA4   CG2DC2    CG2O5    CG2O5     9   180.000000     0.219660     2 ; TRQ, by ac_aa
    HGA4   CG2DC2    CG2O5    CG331     9   180.000000     0.000000     2 ; BEON, butenone, from PRAL, acrolein; mcs
    HGA4   CG2DC2    CG2O5    OG2D3     9   180.000000     0.000000     2 ; BEON, butenone, from PRAL, acrolein; mcs
  CG252O   CG2DC2   CG2R51   CG2R51     9   180.000000     0.210455     1 ; from CG2R51 CG2R51 CG2DC1 CG2DC3, SWG
  CG252O   CG2DC2   CG2R51   CG2R51     9   180.000000     3.229211     2 ; from CG2R51 CG2R51 CG2DC1 CG2DC3, SWG
  CG252O   CG2DC2   CG2R51   CG2R51     9     0.000000     1.817948     4 ; from CG2R51 CG2R51 CG2DC1 CG2DC3, SWG
  CG252O   CG2DC2   CG2R51   CG2RC0     9   180.000000     1.681550     2 ; from CG2RC0 CG2R51 CG2DC1 CG2DC3, SWG
  CG2DC2   CG2DC2   CG2R51   CG2R51     9   180.000000     3.179840     2 ; TRQ, by ac_aa
  CG2DC2   CG2DC2   CG2R51   NG2R50     9   180.000000     8.330762     1 ; from CG2DC3 CG2DC1 CG2R51 NG2R50, CR8D
  CG2DC2   CG2DC2   CG2R51   NG2R50     9   180.000000     5.547566     2 ; from CG2DC3 CG2DC1 CG2R51 NG2R50, CR8D
  CG2DC2   CG2DC2   CG2R51   NG2R50     9     0.000000     0.437646     4 ; from CG2DC3 CG2DC1 CG2R51 NG2R50, CR8D
  CG2DC3   CG2DC2   CG2R51   CG2R51     9   180.000000     0.210455     1 ; CR8D, by ac_aa
  CG2DC3   CG2DC2   CG2R51   CG2R51     9   180.000000     3.229211     2 ; CR8D, by ac_aa
  CG2DC3   CG2DC2   CG2R51   CG2R51     9     0.000000     1.817948     4 ; CR8D, by ac_aa
  CG2DC3   CG2DC2   CG2R51   CG2RC0     9   180.000000     1.681550     2 ; SWG, by ac_aa
  CG2DC3   CG2DC2   CG2R51   NG2R50     9   180.000000     8.330762     1 ; CR8D, by ac_aa
  CG2DC3   CG2DC2   CG2R51   NG2R50     9   180.000000     5.547566     2 ; CR8D, by ac_aa
  CG2DC3   CG2DC2   CG2R51   NG2R50     9     0.000000     0.437646     4 ; CR8D, by ac_aa
    HGA4   CG2DC2   CG2R51   CG2R51     9   180.000000     3.491966     2 ; TRQ, by ac_aa
    HGA4   CG2DC2   CG2R51   CG2RC0     9   180.000000     2.482786     2 ; SWG, by ac_aa
    HGA4   CG2DC2   CG2R51   NG2R50     9   180.000000     0.023012     2 ; CR8D, by ac_aa
   CG321   CG2DC2   CG2R53   NG2R50     9   180.000000     2.098694     2 ; from NG2R50 CG2R53 CG2DC1 CG331, CRQ
   CG321   CG2DC2   CG2R53   NG2R50     9   180.000000     1.885729     3 ; from NG2R50 CG2R53 CG2DC1 CG331, CRQ
   CG321   CG2DC2   CG2R53   NG2R50     9     0.000000     0.399154     6 ; from NG2R50 CG2R53 CG2DC1 CG331, CRQ
   CG321   CG2DC2   CG2R53   NG2R51     9   180.000000     3.991118     2 ; from NG2R51 CG2R53 CG2DC1 CG331, CRQ
   CG321   CG2DC2   CG2R53   NG2R51     9     0.000000     2.622113     4 ; from NG2R51 CG2R53 CG2DC1 CG331, CRQ
   CG331   CG2DC2   CG2R53   NG2R50     9   180.000000     2.098694     2 ; NRQ, by ac_aa
   CG331   CG2DC2   CG2R53   NG2R50     9   180.000000     1.885729     3 ; NRQ, by ac_aa
   CG331   CG2DC2   CG2R53   NG2R50     9     0.000000     0.399154     6 ; NRQ, by ac_aa
   CG331   CG2DC2   CG2R53   NG2R51     9   180.000000     3.991118     2 ; NRQ, by ac_aa
   CG331   CG2DC2   CG2R53   NG2R51     9     0.000000     2.622113     4 ; NRQ, by ac_aa
   NG2D1   CG2DC2   CG2R53   NG2R50     9   180.000000    15.061982     2 ; NRQ, by ac_aa
   NG2D1   CG2DC2   CG2R53   NG2R51     9   180.000000     7.458817     2 ; NRQ, by ac_aa
  CG252O   CG2DC2   CG2R61   CG2R61     9   180.000000     8.249174     2 ; XYG, by ac_aa
  CG252O   CG2DC2   CG2R61   CG2R61     9   180.000000     0.069454     4 ; XYG, by ac_aa
  CG2DC2   CG2DC2   CG2R61   CG2R61     9   180.000000     3.138000     2 ; from CG2DC3 CG2DC1 CG2R61 CG2R61, PENALTY= 3.5 STYA
  CG2DC2   CG2DC2   CG2R61   CG2R61     9     0.000000     0.794960     4 ; from CG2DC3 CG2DC1 CG2R61 CG2R61, PENALTY= 3.5 STYA
  CG2DC3   CG2DC2   CG2R61   CG2R61     9   180.000000     3.138000     2 ; STYR, styrene, xxwy & oashi
  CG2DC3   CG2DC2   CG2R61   CG2R61     9     0.000000     0.794960     4 ; STYR, styrene, xxwy & oashi
   NG2D1   CG2DC2   CG2R61   CG2R61     9   180.000000     6.694400     2 ; HDZ1b, hydrazone model cmpd 1b, kevo
    HGA4   CG2DC2   CG2R61   CG2R61     9   180.000000     2.510400     2 ; HDZ1b, hydrazone model cmpd 1b, kevo
  CG2DC1   CG2DC2    CG301    CG321     9     0.000000     1.255200     3 ; RETINOL MECH
  CG2DC1   CG2DC2    CG301    CG331     9     0.000000     1.255200     3 ; RETINOL MECH
  CG2DC2   CG2DC2    CG301    CG321     9     0.000000     2.092000     2 ; RETINOL TMCH
  CG2DC2   CG2DC2    CG301    CG321     9     0.000000     1.255200     3 ; RETINOL TMCH
  CG2DC2   CG2DC2    CG301    CG331     9     0.000000     2.092000     2 ; RETINOL TMCH
  CG2DC2   CG2DC2    CG301    CG331     9     0.000000     1.673600     3 ; RETINOL TMCH
  CG2D2O   CG2DC2    CG321    CG2D1     9   180.000000     0.000000     3 ; NICH; Kenno: nad/ppi, jjp1/adm jr. 7/95 says 1.0 3 180 but that's unlikely ==> re-optimize
  CG2D2O   CG2DC2    CG321     HGA2     9   180.000000     0.000000     3 ; NICH; Kenno: nad/ppi, jjp1/adm jr. 7/95 says 1.0 3 180 but that's unlikely ==> re-optimize
  CG2DC2   CG2DC2    CG321    CG321     9     0.000000     2.092000     2 ; RETINOL TMCH
  CG2DC2   CG2DC2    CG321    CG321     9     0.000000     1.255200     3 ; RETINOL TMCH
  CG2DC2   CG2DC2    CG321    CG331     9     0.000000     2.092000     2 ; from CG2DC1 CG2DC1 CG321 CG321, penalty= 0.9 TPQ TPQP
  CG2DC2   CG2DC2    CG321    CG331     9     0.000000     1.255200     3 ; from CG2DC1 CG2DC1 CG321 CG321, penalty= 0.9 TPQ TPQP
  CG2DC2   CG2DC2    CG321    OG311     9   180.000000     7.949600     1 ; RETINOL PROL
  CG2DC2   CG2DC2    CG321    OG311     9   180.000000     1.673600     2 ; RETINOL PROL
  CG2DC2   CG2DC2    CG321    OG311     9   180.000000     2.510400     3 ; RETINOL PROL
  CG2DC2   CG2DC2    CG321   OG3R60     9     0.000000     2.928800     3 ; PY02, 2h-pyran
  CG2DC2   CG2DC2    CG321     HGA2     9     0.000000     0.125520     3 ; RETINOL PROL
  CG2DC3   CG2DC2    CG321    CG321     9     0.000000     2.092000     2 ; from CG2DC1 CG2DC1 CG321 CG321, PENALTY= 4 2NP
  CG2DC3   CG2DC2    CG321    CG321     9     0.000000     1.255200     3 ; from CG2DC1 CG2DC1 CG321 CG321, PENALTY= 4 2NP
  CG2DC3   CG2DC2    CG321     HGA2     9     0.000000     0.125520     3 ; from CG2DC1 CG2DC1 CG321 HGA2, PENALTY= 4 2NP
   CG2O1   CG2DC2    CG321    CG2D1     9     0.000000     0.000000     3 ; NICH; Kenno: nad/ppi, jjp1/adm jr. 7/95 says 1.0 3 180 but that's unlikely ==> re-optimize
   CG2O1   CG2DC2    CG321     HGA2     9     0.000000     0.000000     3 ; NICH; Kenno: nad/ppi, jjp1/adm jr. 7/95 says 1.0 3 180 but that's unlikely ==> re-optimize
   CG2O3   CG2DC2    CG321    CG321     9     0.000000     2.807464     1 ; 2NP, by ac_aa
   CG2O3   CG2DC2    CG321    CG321     9     0.000000     9.406050     3 ; 2NP, by ac_aa
   CG2O3   CG2DC2    CG321     HGA2     9     0.000000     0.000000     3 ; from CG2O1 CG2DC1 CG321 HGA2, PENALTY= 7.5 2NP
   CG2O5   CG2DC2    CG321    CG331     9     0.000000     3.810787     1 ; TPQ, by ac_aa
   CG2O5   CG2DC2    CG321    CG331     9     0.000000     2.798678     2 ; TPQ, by ac_aa
   CG2O5   CG2DC2    CG321    CG331     9     0.000000     7.303172     3 ; TPQ, by ac_aa
   CG2O5   CG2DC2    CG321     HGA2     9     0.000000     0.000000     3 ; from CG2O1 CG2DC1 CG321 HGA2, PENALTY= 3 TPQ TPQP
  CG2R53   CG2DC2    CG321    CG321     9     0.000000     0.794960     3 ; from CG331 CG2DC1 CG321 CG321, NRQ
  CG2R53   CG2DC2    CG321     HGA2     9   180.000000     2.519605     3 ; from HGA3 CG331 CG2DC1 CG2R53, CRQ
   CG331   CG2DC2    CG321    CG321     9     0.000000     0.794960     3 ; RETINOL TMCH
   CG331   CG2DC2    CG321     HGA2     9     0.000000     0.794960     3 ; RETINOL TMCH
   NG2D1   CG2DC2    CG321    CG321     9     0.000000     0.252295     2 ; NRQ, by ac_aa1
   NG2D1   CG2DC2    CG321    CG321     9     0.000000     1.977777     3 ; NRQ, by ac_aa1
   NG2D1   CG2DC2    CG321     HGA2     9   180.000000     1.615024     3 ; from HGA3 CG331 CG2DC1 NG2D1, CRQ
    HGA4   CG2DC2    CG321    OG311     9     0.000000     0.836800     3 ; RETINOL PROL
    HGA4   CG2DC2    CG321   OG3R60     9     0.000000     0.836800     3 ; PY02, 2h-pyran; re-initialized from PROL, 3-propenol; kevo
    HGA4   CG2DC2    CG321     HGA2     9     0.000000     0.836800     3 ; RETINOL PROL
  CG2DC2   CG2DC2    CG324     HGA2     9     0.000000     0.125520     3 ; from CG2DC1 CG2DC1 CG321 HGA2, PENALTY= 1 LYR
    HGA4   CG2DC2    CG324     HGA2     9     0.000000     0.836800     3 ; from HGA4 CG2DC1 CG321 HGA2, PENALTY= 1 LYR
  CG252O   CG2DC2    CG331     HGA3     9   180.000000     1.115454     3 ; NRQ, by ac_aa
  CG2D2O   CG2DC2    CG331     HGA3     9   180.000000     1.255200     3 ; from CG2DC1 CG2DC1 CG331 HGA3, penalty= 3.5, sm071
  CG2DC1   CG2DC2    CG331     HGA3     9   180.000000     1.255200     3 ; RETINOL DMB1, 2-methyl-1,3-butadiene
  CG2DC2   CG2DC2    CG331     HGA3     9   180.000000     1.255200     3 ; RETINOL BTE2, 2-butene @@@@@ Kenno: 0 --> 180 to fix minimum @@@@@
  CG2DC3   CG2DC2    CG331     HGA3     9     0.000000     1.255200     3 ; RETINOL DMP2, 2-methyl-1,3-pentadiene
   CG2O3   CG2DC2    CG331     HGA3     9   180.000000     1.445990     3 ; KPI, by ac_aa
  CG2R53   CG2DC2    CG331     HGA3     9   180.000000     2.519605     3 ; NRQ, by ac_aa
   CG321   CG2DC2    CG331     HGA3     9     0.000000     0.669440     3 ; RETINOL MECH
   CG331   CG2DC2    CG331     HGA3     9     0.000000     1.255200     3 ; RETINOL DMP1, 4-methyl-1,3-pentadiene
   NG2D1   CG2DC2    CG331     HGA3     9   180.000000     1.615024     3 ; MCL, by ac_aa
    HGA4   CG2DC2    CG331     HGA3     9     0.000000     0.000000     3 ; RETINOL BTE2, 2-butene @@@@@ Kenno: 0.3 --> 0.0 to fix planarity around CG2DCx @@@@@
  CG2DC1   CG2DC2    NG2D1     HGP1     9   180.000000    49.867422     2 ; sb_ot 2021, from HGP1   NG2D1  CG2DC2 CG2DC
   CG2O3   CG2DC2    NG2D1    CG321     9   180.000000    20.656408     2 ; MCL, by ac_aa
   CG2O3   CG2DC2    NG2D1    CG331     9   180.000000    20.484864     2 ; KPI, by ac_aa
   CG2O5   CG2DC2    NG2D1     HGP1     9   180.000000    46.768334     2 ; sb_ot 2021, from HGP1   NG2D1  CG2DC2 CG2O5
  CG2R53   CG2DC2    NG2D1    CG2O1     9   180.000000    37.806624     2 ; NRQ, by ac_aa
  CG2R61   CG2DC2    NG2D1    CG321     9   180.000000     6.101946     2 ; IT1P, by ac_aa
  CG2R61   CG2DC2    NG2D1    CG331     9   180.000000    40.861362     2 ; LLPP, by ac_aa
  CG2R61   CG2DC2    NG2D1    NG2S1     9   180.000000    50.208000     2 ; HDZ2, hydrazone model cmpd 2
   CG321   CG2DC2    NG2D1    CG2O1     9     0.000000    27.817742     1 ; NRQ, by ac_aa1
   CG321   CG2DC2    NG2D1    CG2O1     9   180.000000    21.499902     2 ; NRQ, by ac_aa1
   CG331   CG2DC2    NG2D1    CG2O1     9     0.000000    24.888942     1 ; NRQ, by ac_aa
   CG331   CG2DC2    NG2D1    CG2O1     9   180.000000    27.708122     2 ; NRQ, by ac_aa
   CG331   CG2DC2    NG2D1    CG321     9   180.000000    38.604094     2 ; MCL, by ac_aa
   CG331   CG2DC2    NG2D1    CG331     9   180.000000    33.269494     2 ; KPI, by ac_aa
    HGA4   CG2DC2    NG2D1    CG321     9   180.000000    15.411764     2 ; IT1P, by ac_aa
    HGA4   CG2DC2    NG2D1    CG331     9   180.000000    18.395374     2 ; LLPP, by ac_aa
    HGA4   CG2DC2    NG2D1    NG2S1     9   180.000000    16.736000     2 ; HDZ2, hydrazone model cmpd 2
  CG2DC1   CG2DC2    NG2P1    CG334     9   180.000000    29.288000     2 ; RETINOL SCH3, Schiff's base, protonated
  CG2DC1   CG2DC2    NG2P1     HGP2     9   180.000000    20.920000     2 ; RETINOL SCH3, Schiff's base, protonated
   CG2O3   CG2DC2    NG2P1    CG324     9   180.000000    18.520058     2 ; from CG2O3 CG2DC1 NG2P1 CG334, KPI
   CG331   CG2DC2    NG2P1    CG324     9   180.000000    16.998755     2 ; from CG331 CG2DC1 NG2P1 CG334, KPI
   HGR52   CG2DC2    NG2P1    CG334     9   180.000000    35.564000     2 ; RETINOL SCH2, Schiff's base, protonated
   HGR52   CG2DC2    NG2P1     HGP2     9   180.000000    20.920000     2 ; RETINOL SCH2, Schiff's base, protonated
   NG311    CG2N1    NG2D1     HGP1     9   180.000000    21.756800     2 ; MGU2, methylguanidine2
   NG321    CG2N1    NG2D1    CG331     9   180.000000    27.196000     2 ; MGU1, methylguanidine
   NG321    CG2N1    NG2D1    OG301     9   180.000000     9.528223     2 ; GGB, by ac_aa
   NG321    CG2N1    NG2D1     HGP1     9   180.000000    21.756800     2 ; MGU2, methylguanidine2
   NG2P1    CG2N1    NG2P1    CG314     9   180.000000     9.414000     2 ; from NG2P1 CG2N1 NG2P1 CG324, PENALTY= 0.6 AGM
   NG2P1    CG2N1    NG2P1    CG324     9   180.000000     9.414000     2 ; PROT 9.0->2.25 GUANIDINIUM (KK)
   NG2P1    CG2N1    NG2P1    CG334     9   180.000000     9.414000     2 ; PROT 9.0->2.25 GUANIDINIUM (KK)
   NG2P1    CG2N1    NG2P1    OG301     9   180.000000    16.346888     2 ; GGBP, by ac_aa
   NG2P1    CG2N1    NG2P1     HGP2     9   180.000000     9.414000     2 ; PROT 9.0->2.25 GUANIDINIUM (KK)
   NG2D1    CG2N1    NG311    CG331     9   180.000000     2.092000     2 ; MGU2, methylguanidine2
   NG2D1    CG2N1    NG311   HGPAM1     9   180.000000    11.715200     2 ; MGU2, methylguanidine2 kevo: 3 --> 2 (counteracting forces). May benefit optimization.
   NG321    CG2N1    NG311    CG331     9   180.000000     2.092000     2 ; MGU2, methylguanidine2
   NG321    CG2N1    NG311   HGPAM1     9   180.000000    11.715200     2 ; MGU2, methylguanidine2 kevo: 3 --> 2 (counteracting forces). May benefit optimization.
   NG2D1    CG2N1    NG321   HGPAM2     9   180.000000     0.836800     2 ; MGU1, methylguanidine; MGU2, methylguanidine2 kevo: new. Needs to be further optimized.
   NG2D1    CG2N1    NG321   HGPAM2     9     0.000000     0.627600     6 ; MGU1, methylguanidine; MGU2, methylguanidine2 kevo: new. Needs to be further optimized.
   NG311    CG2N1    NG321   HGPAM2     9   180.000000     0.836800     2 ; MGU2, methylguanidine2 kevo: new. Needs to be further optimized.
   NG311    CG2N1    NG321   HGPAM2     9     0.000000     0.627600     6 ; MGU2, methylguanidine2 kevo: new. Needs to be further optimized.
   NG321    CG2N1    NG321   HGPAM2     9   180.000000     0.836800     2 ; MGU1, methylguanidine kevo: new. Needs to be further optimized.
   NG321    CG2N1    NG321   HGPAM2     9     0.000000     0.627600     6 ; MGU1, methylguanidine kevo: new. Needs to be further optimized.
   NG2P1    CG2N2   CG2R51   CG2R51     9   180.000000     4.811600     2 ; RCG, yxu, RNA
   NG2P1    CG2N2   CG2R51   CG2R51     9     0.000000     1.297040     4 ; RCG, yxu, RNA
   NG2P1    CG2N2   CG2R51   CG2RC0     9   180.000000     4.811600     2 ; RCG, yxu, RNA
   NG2P1    CG2N2   CG2R51   CG2RC0     9     0.000000     1.297040     4 ; RCG, yxu, RNA
   NG2P1    CG2N2   CG2R61   CG2R61     9   180.000000     3.430880     2 ; BAMI, benzamidinium, sz (verified by pram)
   NG2P1    CG2N2   CG2R61   CG2R61     9     0.000000     1.213360     4 ; BAMI, benzamidinium, sz (verified by pram)
   NG2P1    CG2N2   CG2R61   CG2R61     9     0.000000     0.376560     6 ; BAMI, benzamidinium, sz (verified by pram)
   NG2P1    CG2N2    CG331     HGA3     9     0.000000     1.046000     3 ; AMDN, amidinium amidinium, mp2 scan, pram
   NG2D1    CG2N2    NG2D1   CG2D1O     9   180.000000    27.500177     2 ; ABSB, amide base, sr
   NG2D1    CG2N2    NG2D1   CG2D2O     9   180.000000    27.500177     2 ; ABSB, amide base, sr
   NG2D1    CG2N2    NG2D1    CG2O1     9     0.000000    22.637114     2 ; ABSB, amide base, sr
   NG321    CG2N2    NG2D1    CG321     9   180.000000    27.196000     2 ; MT2A , from NG321 CG2N1 NG2D1 CG331, fylin
   SG311    CG2N2    NG2D1   CG2D1O     9   180.000000    12.528570     1 ; ABSB, amide base, sr
   SG311    CG2N2    NG2D1   CG2D1O     9     0.000000    11.027350     2 ; ABSB, amide base, sr
   SG311    CG2N2    NG2D1   CG2D1O     9   180.000000     8.339967     3 ; ABSB, amide base, sr
   SG311    CG2N2    NG2D1   CG2D1O     9     0.000000     3.636733     4 ; ABSB, amide base, sr
   SG311    CG2N2    NG2D1   CG2D1O     9   180.000000     0.276981     5 ; ABSB, amide base, sr
   SG311    CG2N2    NG2D1   CG2D1O     9     0.000000     5.915758     6 ; ABSB, amide base, sr
   SG311    CG2N2    NG2D1   CG2D2O     9   180.000000    12.528570     1 ; ABSB, amide base, sr
   SG311    CG2N2    NG2D1   CG2D2O     9     0.000000    11.027350     2 ; ABSB, amide base, sr
   SG311    CG2N2    NG2D1   CG2D2O     9   180.000000     8.339967     3 ; ABSB, amide base, sr
   SG311    CG2N2    NG2D1   CG2D2O     9     0.000000     3.636733     4 ; ABSB, amide base, sr
   SG311    CG2N2    NG2D1   CG2D2O     9   180.000000     0.276981     5 ; ABSB, amide base, sr
   SG311    CG2N2    NG2D1   CG2D2O     9     0.000000     5.915758     6 ; ABSB, amide base, sr
   SG311    CG2N2    NG2D1    CG2O1     9     0.000000    23.245886     1 ; ABSB, amide base, sr
   SG311    CG2N2    NG2D1    CG2O1     9   180.000000    21.385679     2 ; ABSB, amide base, sr
   SG311    CG2N2    NG2D1    CG2O1     9     0.000000    16.728887     3 ; ABSB, amide base, sr
   SG311    CG2N2    NG2D1    CG2O1     9   180.000000     4.599053     4 ; ABSB, amide base, sr
   SG311    CG2N2    NG2D1    CG2O1     9   180.000000    10.982582     5 ; ABSB, amide base, sr
   SG311    CG2N2    NG2D1    CG2O1     9   180.000000     8.352938     6 ; ABSB, amide base, sr
   SG311    CG2N2    NG2D1    CG321     9   180.000000     9.874240     1 ; MT2A, fylin
   SG311    CG2N2    NG2D1    CG321     9   180.000000     8.702720     2 ; MT2A, fylin
   SG311    CG2N2    NG2D1    CG321     9     0.000000     0.251040     3 ; MT2A, fylin
   SG311    CG2N2    NG2D1    CG321     9   180.000000     4.476880     4 ; MT2A, fylin
   SG311    CG2N2    NG2D1    CG321     9     0.000000     1.171520     6 ; MT2A, fylin
  CG2R51    CG2N2    NG2P1     HGP2     9   180.000000     8.368000     2 ; RCG, from CG2R61 CG2N2 NG2P1 HGP2, yxu, RNA
  CG2R61    CG2N2    NG2P1     HGP2     9   180.000000     8.368000     2 ; BAMI, benzamidinium, mp2 scan, pram
   CG331    CG2N2    NG2P1     HGP2     9   180.000000    14.644000     2 ; AMDN, amidinium, mp2 scan, pram
   NG2P1    CG2N2    NG2P1     HGP2     9   180.000000    14.644000     2 ; AMDN, amidinium, mp2 scan, pram
   NG2D1    CG2N2    NG321   HGPAM2     9   180.000000     0.836800     2 ; MT2A , from NG2D1 CG2N1 NG321 HGPAM2, fylin
   NG2D1    CG2N2    NG321   HGPAM2     9     0.000000     0.627600     6 ; MT2A , from NG2D1 CG2N1 NG321 HGPAM2, fylin
   SG311    CG2N2    NG321   HGPAM2     9   180.000000     0.083680     1 ; MT2A, fylin
   SG311    CG2N2    NG321   HGPAM2     9   180.000000    12.008080     2 ; MT2A, fylin
   SG311    CG2N2    NG321   HGPAM2     9     0.000000     0.502080     3 ; MT2A, fylin
   SG311    CG2N2    NG321   HGPAM2     9   180.000000     0.836800     4 ; MT2A, fylin
   SG311    CG2N2    NG321   HGPAM2     9   180.000000     0.836800     6 ; MT2A, fylin
   NG2D1    CG2N2    SG311    CG321     9   180.000000     4.686080     2 ; DH3T, fylin
   NG2D1    CG2N2    SG311    CG331     9   180.000000     4.686080     2 ; MT2A, fylin
   NG321    CG2N2    SG311    CG321     9   180.000000     2.677760     1 ; DH3T, fylin
   NG321    CG2N2    SG311    CG321     9   180.000000     4.686080     2 ; DH3T, fylin
   NG321    CG2N2    SG311    CG321     9     0.000000     1.380720     4 ; DH3T, fylin
   NG321    CG2N2    SG311    CG331     9   180.000000     2.677760     1 ; MT2A, fylin
   NG321    CG2N2    SG311    CG331     9   180.000000     4.686080     2 ; MT2A, fylin
   NG321    CG2N2    SG311    CG331     9     0.000000     1.380720     4 ; MT2A, fylin
   NG2S1    CG2O1   CG2R51   CG2R51     9   180.000000     4.602400     2 ; INCA model for D3R, xxwy; updated to match with other yxu par in na_rna_modified.prm
   NG2S1    CG2O1   CG2R51   CG2R51     9     0.000000     1.255200     4 ; INCA model for D3R, xxwy; updated to match with other yxu par in na_rna_modified.prm
   NG2S1    CG2O1   CG2R51   NG2R51     9   180.000000     4.602400     2 ; INCA model for D3R, xxwy; updated to match with other yxu par in na_rna_modified.prm
   NG2S1    CG2O1   CG2R51   NG2R51     9     0.000000     1.255200     4 ; INCA model for D3R, xxwy; updated to match with other yxu par in na_rna_modified.prm
   OG2D1    CG2O1   CG2R51   CG2R51     9   180.000000     4.602400     2 ; INCA model for D3R, xxwy; updated to match with other yxu par in na_rna_modified.prm
   OG2D1    CG2O1   CG2R51   CG2R51     9     0.000000     1.255200     4 ; INCA model for D3R, xxwy; updated to match with other yxu par in na_rna_modified.prm
   OG2D1    CG2O1   CG2R51   NG2R51     9   180.000000     4.602400     2 ; INCA model for D3R, xxwy; updated to match with other yxu par in na_rna_modified.prm
   OG2D1    CG2O1   CG2R51   NG2R51     9     0.000000     1.255200     4 ; INCA model for D3R, xxwy; updated to match with other yxu par in na_rna_modified.prm
   NG2D1    CG2O1   CG2R61   CG2R61     9   180.000000     4.184000     2 ; ABBM, amide base, sr
   NG2S1    CG2O1   CG2R61   CG2R61     9   180.000000     4.184000     2 ; HDZ2, hydrazone model cmpd 2
   NG2S1    CG2O1   CG2R61   CG2R64     9   180.000000     0.000000     2 ; flavin
   NG2S1    CG2O1   CG2R61   CG2RC0     9   180.000000     4.184000     2 ; HDZ2, hydrazone model cmpd 2
   NG2S1    CG2O1   CG2R61   NG2R60     9   180.000000     6.778080     2 ; flavin
   NG2S2    CG2O1   CG2R61   CG2R61     9   180.000000     4.184000     2 ; 3NAP, nicotinamide (PYRIDINE pyr-CONH2), yin
   OG2D1    CG2O1   CG2R61   CG2R61     9   180.000000     4.184000     2 ; 3NAP, nicotinamide (PYRIDINE pyr-CONH2), yin
   OG2D1    CG2O1   CG2R61   CG2R64     9   180.000000     0.000000     2 ; flavin
   OG2D1    CG2O1   CG2R61   CG2RC0     9   180.000000     4.184000     2 ; HDZ2, hydrazone model cmpd 2
   OG2D1    CG2O1   CG2R61   NG2R60     9   180.000000     8.116960     2 ; flavin
   NG2S2    CG2O1   CG2R62   CG2R62     9   180.000000     1.464400     1 ; NA nad/ppi, jjp1/adm jr. 7/95
   NG2S2    CG2O1   CG2R62   CG2R62     9     0.000000     2.594080     2 ; NA nad/ppi, jjp1/adm jr. 7/95
   OG2D1    CG2O1   CG2R62   CG2R62     9   180.000000     9.957920     2 ; NA nad/ppi, jjp1/adm jr. 7/95
   NG2D1    CG2O1    CG311    CG331     9     0.000000    14.101754     1 ; XYG, by ac_aa
   NG2D1    CG2O1    CG311    CG331     9     0.000000     3.312891     2 ; XYG, by ac_aa
   NG2D1    CG2O1    CG311    NG2S1     9   180.000000    21.755963     1 ; XYG, by ac_aa
   NG2D1    CG2O1    CG311    NG2S1     9   180.000000     9.223628     2 ; XYG, by ac_aa
   NG2D1    CG2O1    CG311     HGA1     9   180.000000    14.039412     1 ; XYG, by ac_aa
   NG2S0    CG2O1    CG311    CG311     9     0.000000     0.000000     1 ; PROT AcProNH2, ProNH2, AcProNHCH3 RLD 4/23/93
   NG2S0    CG2O1    CG311    CG321     9     0.000000     0.000000     1 ; PROT AcProNH2, ProNH2, AcProNHCH3 RLD 4/23/93
   NG2S0    CG2O1    CG311    CG323     9     0.000000     0.000000     1 ; PROT AcProNH2, ProNH2, AcProNHCH3 RLD 4/23/93
   NG2S0    CG2O1    CG311    CG331     9     0.000000     0.000000     1 ; PROT AcProNH2, ProNH2, AcProNHCH3 RLD 4/23/93
   NG2S0    CG2O1    CG311    NG2S1     9     0.000000     1.673600     1 ; PROT AcProNH2, ProNH2, AcProNHCH3 RLD 4/23/93
   NG2S0    CG2O1    CG311     HGA1     9     0.000000     0.000000     1 ; PROT AcProNH2, ProNH2, AcProNHCH3 RLD 4/23/93
   NG2S1    CG2O1    CG311    CG2O3     9     0.000000     0.001674     1 ; FGL, by ac_aa
   NG2S1    CG2O1    CG311    CG2O3     9     0.000000     7.399404     2 ; FGL, by ac_aa
   NG2S1    CG2O1    CG311    CG2O3     9     0.000000     4.318725     3 ; FGL, by ac_aa
   NG2S1    CG2O1    CG311    CG301     9     0.000000     0.000000     1 ; from NG2S1 CG2O1 CG311 CG311, PENALTY= 1.2 4HH LYX
   NG2S1    CG2O1    CG311    CG311     9     0.000000     0.000000     1 ; PROT ala dipeptide, new C VDW Rmin, 4/10/93 (LK)
   NG2S1    CG2O1    CG311    CG321     9     0.000000     0.000000     1 ; PROT ala dipeptide, new C VDW Rmin, 4/10/93 (LK)
   NG2S1    CG2O1    CG311    CG323     9     0.000000     0.000000     1 ; PROT ala dipeptide, new C VDW Rmin, 4/10/93 (LK)
   NG2S1    CG2O1    CG311    CG331     9     0.000000     0.000000     1 ; PROT ala dipeptide, new C VDW Rmin, 4/10/93 (LK)
   NG2S1    CG2O1    CG311    NG2S0     9     0.000000     2.510400     1 ; from NG2S1 CG2O1 CG311 NG2S1, PENALTY= 1 MAA
   NG2S1    CG2O1    CG311    NG2S1     9     0.000000     2.510400     1 ; PROT ala dipeptide, new C VDW Rmin, adm jr., 3/3/93
   NG2S1    CG2O1    CG311    OG311     9     0.000000    10.746186     1 ; 4HH, by ac_aa
   NG2S1    CG2O1    CG311    OG311     9     0.000000     1.908741     3 ; 4HH, by ac_aa
   NG2S1    CG2O1    CG311    SG311     9     0.000000     5.319956     1 ; LYX, by ac_aa
   NG2S1    CG2O1    CG311     HGA1     9     0.000000     0.000000     1 ; PROT Alanine Dipeptide ab initio calc's (LK)
   NG2S2    CG2O1    CG311    CG311     9     0.000000     0.000000     1 ; PROT ala dipeptide, new C VDW Rmin, 4/10/93 (LK)
   NG2S2    CG2O1    CG311    CG321     9     0.000000     0.000000     1 ; PROT ala dipeptide, new C VDW Rmin, 4/10/93 (LK)
   NG2S2    CG2O1    CG311    CG323     9     0.000000     0.000000     1 ; PROT ala dipeptide, new C VDW Rmin, 4/10/93 (LK)
   NG2S2    CG2O1    CG311    CG331     9     0.000000     0.000000     1 ; PROT ala dipeptide, new C VDW Rmin, 4/10/93 (LK)
   NG2S2    CG2O1    CG311    NG2S1     9     0.000000     2.510400     1 ; PROT ala dipeptide, new C VDW Rmin, adm jr., 3/3/93
   NG2S2    CG2O1    CG311    OG311     9   180.000000     7.880146     1 ; GHG, by ac_aa
   NG2S2    CG2O1    CG311    OG311     9     0.000000     7.100666     2 ; GHG, by ac_aa
   NG2S2    CG2O1    CG311    OG311     9   180.000000     3.825850     3 ; GHG, by ac_aa
   NG2S2    CG2O1    CG311     HGA1     9     0.000000     0.000000     1 ; PROT Alanine Dipeptide ab initio calc's (LK)
   OG2D1    CG2O1    CG311    CG2O3     9   180.000000     0.210874     2 ; FGL, by ac_aa
   OG2D1    CG2O1    CG311    CG2O3     9   180.000000     0.197903     3 ; FGL, by ac_aa
   OG2D1    CG2O1    CG311    CG301     9     0.000000     5.857600     1 ; from OG2D1 CG2O1 CG311 CG311, PENALTY= 1.2 4HH LYX
   OG2D1    CG2O1    CG311    CG311     9     0.000000     5.857600     1 ; PROT ala dipeptide, new C VDW Rmin, adm jr., 3/3/93c
   OG2D1    CG2O1    CG311    CG321     9     0.000000     5.857600     1 ; PROT ala dipeptide, new C VDW Rmin, adm jr., 3/3/93c
   OG2D1    CG2O1    CG311    CG323     9     0.000000     5.857600     1 ; PROT ala dipeptide, new C VDW Rmin, adm jr., 3/3/93c
   OG2D1    CG2O1    CG311    CG331     9     0.000000     5.857600     1 ; PROT ala dipeptide, new C VDW Rmin, adm jr., 3/3/93c
   OG2D1    CG2O1    CG311    NG2S0     9     0.000000     0.000000     1 ; from OG2D1 CG2O1 CG311 NG2S1, PENALTY= 1 MAA
   OG2D1    CG2O1    CG311    NG2S1     9     0.000000     0.000000     1 ; PROT Alanine Dipeptide ab initio calc's (LK)
   OG2D1    CG2O1    CG311    OG311     9   180.000000     7.028702     2 ; 4HH, by ac_aa
   OG2D1    CG2O1    CG311    SG311     9     0.000000     5.936259     1 ; LYX, by ac_aa
   OG2D1    CG2O1    CG311     HGA1     9     0.000000     0.000000     1 ; PROT Alanine Dipeptide ab initio calc's (LK)
   NG2S0    CG2O1    CG314    CG311     9     0.000000     0.000000     1 ; PROT AcProNH2, ProNH2, AcProNHCH3 RLD 4/23/93
   NG2S0    CG2O1    CG314    CG321     9     0.000000     0.000000     1 ; PROT AcProNH2, ProNH2, AcProNHCH3 RLD 4/23/93
   NG2S0    CG2O1    CG314    CG323     9     0.000000     0.000000     1 ; PROT AcProNH2, ProNH2, AcProNHCH3 RLD 4/23/93
   NG2S0    CG2O1    CG314    CG331     9     0.000000     0.000000     1 ; PROT AcProNH2, ProNH2, AcProNHCH3 RLD 4/23/93
   NG2S0    CG2O1    CG314    NG3P3     9     0.000000     1.673600     1 ; PROT AcProNH2, ProNH2, AcProNHCH3 RLD 4/23/93
   NG2S0    CG2O1    CG314     HGA1     9     0.000000     0.000000     1 ; PROT AcProNH2, ProNH2, AcProNHCH3 RLD 4/23/93
   NG2S1    CG2O1    CG314    CG311     9     0.000000     0.000000     1 ; PROT ala dipeptide, new C VDW Rmin, 4/10/93 (LK)
   NG2S1    CG2O1    CG314    CG321     9     0.000000     0.000000     1 ; PROT ala dipeptide, new C VDW Rmin, 4/10/93 (LK)
   NG2S1    CG2O1    CG314    CG323     9     0.000000     0.000000     1 ; NOT OPTIMIZED! PROT ala dipeptide, new C VDW Rmin, 4/10/93 (LK)
   NG2S1    CG2O1    CG314    CG331     9     0.000000     0.000000     1 ; PROT ala dipeptide, new C VDW Rmin, 4/10/93 (LK)
   NG2S1    CG2O1    CG314    NG3P3     9     0.000000     2.510400     1 ; PROT ala dipeptide, new C VDW Rmin, adm jr., 3/3/93
   NG2S1    CG2O1    CG314     HGA1     9     0.000000     0.000000     1 ; PROT Alanine Dipeptide ab initio calc's (LK)
   NG2S2    CG2O1    CG314    CG311     9     0.000000     0.000000     1 ; PROT ala dipeptide, new C VDW Rmin, 4/10/93 (LK)
   NG2S2    CG2O1    CG314    CG321     9     0.000000     0.000000     1 ; PROT ala dipeptide, new C VDW Rmin, 4/10/93 (LK)
   NG2S2    CG2O1    CG314    CG323     9     0.000000     0.000000     1 ; PROT ala dipeptide, new C VDW Rmin, 4/10/93 (LK)
   NG2S2    CG2O1    CG314    CG331     9     0.000000     0.000000     1 ; PROT ala dipeptide, new C VDW Rmin, 4/10/93 (LK)
   NG2S2    CG2O1    CG314    NG3P0     9     0.000000     2.510400     1 ; from NG2S2 CG2O1 CG314 NG3P3, PENALTY= 2.7 DDE DDEP
   NG2S2    CG2O1    CG314    NG3P3     9     0.000000     2.510400     1 ; PROT ala dipeptide, new C VDW Rmin, adm jr., 3/3/93
   NG2S2    CG2O1    CG314     HGA1     9     0.000000     0.000000     1 ; PROT Alanine Dipeptide ab initio calc's (LK)
   NG2S2    CG2O1    CG314     HGP5     9   180.000000     1.045582     2 ; DDE, by ac_aa
   NG2S2    CG2O1    CG314     HGP5     9   180.000000     1.943886     3 ; DDE, by ac_aa
   OG2D1    CG2O1    CG314    CG311     9     0.000000     5.857600     1 ; PROT ala dipeptide, new C VDW Rmin, adm jr., 3/3/93c
   OG2D1    CG2O1    CG314    CG321     9     0.000000     5.857600     1 ; PROT ala dipeptide, new C VDW Rmin, adm jr., 3/3/93c
   OG2D1    CG2O1    CG314    CG323     9     0.000000     5.857600     1 ; PROT ala dipeptide, new C VDW Rmin, adm jr., 3/3/93c
   OG2D1    CG2O1    CG314    CG331     9     0.000000     5.857600     1 ; PROT ala dipeptide, new C VDW Rmin, adm jr., 3/3/93c
   OG2D1    CG2O1    CG314    NG3P0     9     0.000000     0.000000     1 ; from OG2D1 CG2O1 CG314 NG3P3, PENALTY= 2.7 DDE DDEP
   OG2D1    CG2O1    CG314    NG3P3     9     0.000000     0.000000     1 ; PROT Backbone parameter set made complete RLD 8/8/90
   OG2D1    CG2O1    CG314     HGA1     9     0.000000     0.000000     1 ; PROT Alanine Dipeptide ab initio calc's (LK)
   OG2D1    CG2O1    CG314     HGP5     9   180.000000     1.106668     2 ; DDE, by ac_aa
   NG2S0    CG2O1    CG321    CG331     9     0.000000     6.276000     1 ; DMPR, dimethylpropanamide, mnoon
   NG2S0    CG2O1    CG321    NG2S1     9     0.000000     1.673600     1 ; PROT AcProNH2, ProNH2, AcProNHCH3 RLD 4/23/93
   NG2S0    CG2O1    CG321     HGA2     9     0.000000     0.000000     1 ; PROT AcProNH2, ProNH2, AcProNHCH3 RLD 4/23/93
   NG2S1    CG2O1    CG321    CG311     9     0.000000     0.000000     1 ; from NG2S1 CG2O1 CG321 CG321, PENALTY= 0.6 KHB
   NG2S1    CG2O1    CG321    CG321     9     0.000000     0.000000     1 ; PROT from NG2S1  CG2O1  CG311  CT2, for lactams, adm jr.
   NG2S1    CG2O1    CG321    CG331     9     0.000000     0.000000     1 ; from NG2S1 CG2O1 CG321 CG321, PENALTY= 0.9 HGA PRK
   NG2S1    CG2O1    CG321   NG2R51     9     0.000000     2.449314     1 ; XYG, by ac_aa
   NG2S1    CG2O1    CG321   NG2R53     9     0.000000     2.510400     1 ; from NG2S1 CG2O1 CG321 NG2S1, penalty= 1 SUI
   NG2S1    CG2O1    CG321    NG2S0     9     0.000000     2.510400     1 ; from NG2S1 CG2O1 CG321 NG2S1, PENALTY= 1 I4G
   NG2S1    CG2O1    CG321    NG2S1     9     0.000000     2.510400     1 ; PROT ala dipeptide, new C VDW Rmin, adm jr., 3/3/93
   NG2S1    CG2O1    CG321    SG311     9     0.000000     7.229115     1 ; CYF, by ac_aa
   NG2S1    CG2O1    CG321    SG311     9     0.000000     6.099017     2 ; CYF, by ac_aa
   NG2S1    CG2O1    CG321    SG311     9     0.000000    12.675428     3 ; CYF, by ac_aa
   NG2S1    CG2O1    CG321     HGA1     9     0.000000     0.000000     1 ; PROT Alanine Dipeptide ab initio calc's (LK)
   NG2S1    CG2O1    CG321     HGA2     9     0.000000     0.000000     3 ; PROT, sp2-methyl, no torsion potential
   NG2S2    CG2O1    CG321   CG2R61     9   180.000000     0.878640     1 ; acbz, yxu, RNA
   NG2S2    CG2O1    CG321   CG2R61     9     0.000000     2.301200     3 ; acbz, yxu, RNA
   NG2S2    CG2O1    CG321   CG2R62     9   180.000000     0.878640     1 ; BCU, from acbz, yxu, RNA
   NG2S2    CG2O1    CG321   CG2R62     9     0.000000     2.301200     3 ; BCU, from acbz, yxu, RNA
   NG2S2    CG2O1    CG321    CG311     9   180.000000     0.209200     6 ; PROT For side chains of asp,asn,glu,gln, (n=6) from KK(LK)
   NG2S2    CG2O1    CG321    CG314     9   180.000000     0.209200     6 ; PROT For side chains of asp,asn,glu,gln, (n=6) from KK(LK)
   NG2S2    CG2O1    CG321    CG321     9   180.000000     0.209200     6 ; PROT For side chains of asp,asn,glu,gln, (n=6) from KK(LK)
   NG2S2    CG2O1    CG321    CG331     9   180.000000     0.209200     6 ; PROT For side chains of asp,asn,glu,gln, (n=6) from KK(LK)
   NG2S2    CG2O1    CG321    NG2S1     9     0.000000     2.510400     1 ; PROT ala dipeptide, new C VDW Rmin, adm jr., 3/3/93
   NG2S2    CG2O1    CG321    SG311     9     0.000000     8.073446     1 ; YCM, by ac_aa
   NG2S2    CG2O1    CG321    SG311     9   180.000000     3.640080     2 ; YCM, by ac_aa
   NG2S2    CG2O1    CG321    SG311     9     0.000000     4.689009     3 ; YCM, by ac_aa
   NG2S2    CG2O1    CG321     HGA2     9   180.000000     0.000000     3 ; PROT adm jr., 8/13/90  geometry and vibrations
   OG2D1    CG2O1    CG321   CG2R61     9   180.000000     2.803280     2 ; acbz, yxu, RNA
   OG2D1    CG2O1    CG321   CG2R61     9     0.000000     3.932960     3 ; acbz, yxu, RNA
   OG2D1    CG2O1    CG321   CG2R62     9   180.000000     2.803280     2 ; BCU, from acbz, yxu, RNA
   OG2D1    CG2O1    CG321   CG2R62     9     0.000000     3.932960     3 ; BCU, from acbz, yxu, RNA
   OG2D1    CG2O1    CG321    CG311     9   180.000000     0.209200     6 ; PROT For side chains of asp,asn,glu,gln, (n=6) from KK(LK)
   OG2D1    CG2O1    CG321    CG314     9   180.000000     0.209200     6 ; PROT For side chains of asp,asn,glu,gln, (n=6) from KK(LK)
   OG2D1    CG2O1    CG321    CG321     9   180.000000     0.209200     6 ; PROT For side chains of asp,asn,glu,gln, (n=6) from KK(LK)
   OG2D1    CG2O1    CG321    CG331     9   180.000000     0.209200     6 ; PROT For side chains of asp,asn,glu,gln, (n=6) from KK(LK)
   OG2D1    CG2O1    CG321   NG2R51     9     0.000000     1.255200     1 ; B2H, by ac_aa
   OG2D1    CG2O1    CG321   NG2R53     9     0.000000     0.000000     1 ; from OG2D1 CG2O1 CG321 NG2S1, penalty= 1 SUI
   OG2D1    CG2O1    CG321    NG2S0     9     0.000000     0.000000     1 ; from OG2D1 CG2O1 CG321 NG2S1, PENALTY= 1 I4G
   OG2D1    CG2O1    CG321    NG2S1     9     0.000000     0.000000     1 ; PROT Alanine Dipeptide ab initio calc's (LK)
   OG2D1    CG2O1    CG321    SG311     9     0.000000     6.242528     1 ; YCM, by ac_aa
   OG2D1    CG2O1    CG321    SG311     9   180.000000     8.125746     2 ; CYF, by ac_aa
   OG2D1    CG2O1    CG321    SG311     9     0.000000     2.594080     3 ; YCM, by ac_aa
   OG2D1    CG2O1    CG321    SG311     9   180.000000     1.159386     6 ; CYF, by ac_aa
   OG2D1    CG2O1    CG321     HGA2     9   180.000000     0.000000     3 ; PROT adm jr., 8/13/90  geometry and vibrations
   SG2D1    CG2O1    CG321    NG2S1     9     0.000000     2.379022     1 ; GL3, by ac_aa
   SG2D1    CG2O1    CG321    NG2S1     9     0.000000     0.874456     2 ; GL3, by ac_aa
   SG2D1    CG2O1    CG321     HGA2     9   180.000000     0.809604     3 ; GL3, by ac_aa
   NG2S0    CG2O1    CG324    NG3P3     9     0.000000     1.673600     1 ; PROT AcProNH2, ProNH2, AcProNHCH3 RLD 4/23/93
   NG2S0    CG2O1    CG324     HGA2     9     0.000000     0.000000     1 ; PROT AcProNH2, ProNH2, AcProNHCH3 RLD 4/23/93
   NG2S1    CG2O1    CG324    NG3P3     9     0.000000     1.673600     1 ; PROT adm jr. 3/24/92, for PRES GLYP
   NG2S1    CG2O1    CG324     HGA2     9     0.000000     0.000000     3 ; PROT, sp2-methyl, no torsion potential
   NG2S2    CG2O1    CG324    NG3P3     9     0.000000     1.673600     1 ; PROT adm jr. 3/24/92, for PRES GLYP
   NG2S2    CG2O1    CG324     HGA2     9   180.000000     0.000000     3 ; PROT adm jr., 8/13/90  geometry and vibrations
   OG2D1    CG2O1    CG324    NG3P3     9     0.000000     0.000000     1 ; PROT Backbone parameter set made complete RLD 8/8/90
   OG2D1    CG2O1    CG324     HGA2     9   180.000000     0.000000     3 ; PROT adm jr., 8/13/90  geometry and vibrations
   NG2D1    CG2O1    CG331     HGA3     9     0.000000     0.000000     3 ; ABMM, amide base, sr
   NG2S0    CG2O1    CG331     HGA3     9     0.000000     0.000000     3 ; PROT AcProNH2, ProNH2, AcProNHCH3 RLD 4/23/93
   NG2S1    CG2O1    CG331     HGA3     9     0.000000     0.000000     3 ; PROT, sp2-methyl, no torsion potential
   NG2S2    CG2O1    CG331     HGA3     9     0.000000     0.000000     3 ; PROT, sp2-methyl, no torsion potential
   OG2D1    CG2O1    CG331     HGA3     9   180.000000     0.000000     3 ; PROT adm jr., 8/13/90  geometry and vibrations
   NG2S1    CG2O1   CG3C50   CG3C52     9     0.000000     1.673600     1 ; from NG2S1 CG2O1 CG3C51 CG3C52, penalty= 6, sm239
   NG2S1    CG2O1   CG3C50   CG3C52     9     0.000000     2.510400     2 ; from NG2S1 CG2O1 CG3C51 CG3C52, penalty= 6, sm239
   NG2S1    CG2O1   CG3C50    NG2S0     9     0.000000     1.255200     1 ; from NG2S1 CG2O1 CG3C51 NG2S0, penalty= 6, sm239
   NG2S1    CG2O1   CG3C50    NG2S0     9   180.000000     1.255200     4 ; from NG2S1 CG2O1 CG3C51 NG2S0, penalty= 6, sm239
   NG2S1    CG2O1   CG3C50    OG311     9     0.000000     0.778224     1 ; PXU, by ac_aa
   OG2D1    CG2O1   CG3C50   CG3C52     9   180.000000     1.673600     1 ; from OG2D1 CG2O1 CG3C51 CG3C52, PENALTY= 6 PXU
   OG2D1    CG2O1   CG3C50   CG3C52     9     0.000000     2.510400     2 ; from OG2D1 CG2O1 CG3C51 CG3C52, PENALTY= 6 PXU
   OG2D1    CG2O1   CG3C50    NG2S0     9   180.000000     1.255200     4 ; from OG2D1 CG2O1 CG3C51 NG2S0, PENALTY= 6 PXU
   OG2D1    CG2O1   CG3C50    OG311     9     0.000000     0.798726     3 ; PXU, by ac_aa
   NG2S0    CG2O1   CG3C51   CG3C52     9     0.000000     1.673600     1 ; PROT AcProNH2, ProNH2, AcProNHCH3 RLD 4/23/93
   NG2S0    CG2O1   CG3C51   CG3C52     9     0.000000     2.510400     2 ; PROT AcProNH2, ProNH2, AcProNHCH3 RLD 4/23/93
   NG2S0    CG2O1   CG3C51    NG2S0     9     0.000000     1.255200     1 ; PROT AcProNH2, ProNH2, AcProNHCH3 RLD 4/23/93
   NG2S0    CG2O1   CG3C51    NG2S0     9     0.000000    -1.255200     4 ; PROT AcProNH2, ProNH2, AcProNHCH3 RLD 4/23/93
   NG2S0    CG2O1   CG3C51     HGA1     9   180.000000     1.673600     1 ; PROT AcProNH2, ProNH2, AcProNHCH3 RLD 4/23/93
   NG2S0    CG2O1   CG3C51     HGA1     9     0.000000     2.510400     2 ; PROT AcProNH2, ProNH2, AcProNHCH3 RLD 4/23/93
   NG2S1    CG2O1   CG3C51   CG2R51     9     0.000000     1.388251     1 ; 8LJ, by ac_aa
   NG2S1    CG2O1   CG3C51   CG2R51     9     0.000000     0.174054     2 ; 8LJ, by ac_aa
   NG2S1    CG2O1   CG3C51   CG3C52     9     0.000000     1.673600     1 ; PROT AcProNH2, ProNH2, AcProNHCH3 RLD 4/23/93
   NG2S1    CG2O1   CG3C51   CG3C52     9     0.000000     2.510400     2 ; PROT AcProNH2, ProNH2, AcProNHCH3 RLD 4/23/93
   NG2S1    CG2O1   CG3C51    NG2S0     9     0.000000     1.255200     1 ; PROT AcProNH2, ProNH2, AcProNHCH3 RLD 4/23/93
   NG2S1    CG2O1   CG3C51    NG2S0     9     0.000000    -1.255200     4 ; PROT AcProNH2, ProNH2, AcProNHCH3 RLD 4/23/93
   NG2S1    CG2O1   CG3C51   NG3C51     9   180.000000     2.479020     1 ; PR4, by ac_aa
   NG2S1    CG2O1   CG3C51   NG3C51     9   180.000000    12.047410     2 ; PR4, by ac_aa
   NG2S1    CG2O1   CG3C51   NG3C51     9   180.000000     1.751004     3 ; PR4, by ac_aa
   NG2S1    CG2O1   CG3C51     HGA1     9   180.000000     1.673600     1 ; PROT AcProNH2, ProNH2, AcProNHCH3 RLD 4/23/93
   NG2S1    CG2O1   CG3C51     HGA1     9     0.000000     2.510400     2 ; PROT AcProNH2, ProNH2, AcProNHCH3 RLD 4/23/93
   NG2S2    CG2O1   CG3C51   CG3C52     9     0.000000     1.673600     1 ; PROT AcProNH2, ProNH2, AcProNHCH3 RLD 4/23/93
   NG2S2    CG2O1   CG3C51   CG3C52     9     0.000000     2.510400     2 ; PROT AcProNH2, ProNH2, AcProNHCH3 RLD 4/23/93
   NG2S2    CG2O1   CG3C51    NG2S0     9     0.000000     1.255200     1 ; PROT AcProNH2, ProNH2, AcProNHCH3 RLD 4/23/93
   NG2S2    CG2O1   CG3C51    NG2S0     9     0.000000    -1.255200     4 ; PROT AcProNH2, ProNH2, AcProNHCH3 RLD 4/23/93
   NG2S2    CG2O1   CG3C51     HGA1     9   180.000000     1.673600     1 ; PROT AcProNH2, ProNH2, AcProNHCH3 RLD 4/23/93
   NG2S2    CG2O1   CG3C51     HGA1     9     0.000000     2.510400     2 ; PROT AcProNH2, ProNH2, AcProNHCH3 RLD 4/23/93
   OG2D1    CG2O1   CG3C51   CG2R51     9   180.000000     2.666882     1 ; 8LJ, by ac_aa
   OG2D1    CG2O1   CG3C51   CG2R51     9     0.000000     1.812090     2 ; 8LJ, by ac_aa
   OG2D1    CG2O1   CG3C51   CG3C52     9   180.000000     1.673600     1 ; PROT AcProNH2, ProNH2, AcProNHCH3 RLD 4/23/93
   OG2D1    CG2O1   CG3C51   CG3C52     9     0.000000     2.510400     2 ; PROT AcProNH2, ProNH2, AcProNHCH3 RLD 4/23/93
   OG2D1    CG2O1   CG3C51    NG2S0     9     0.000000    -1.255200     4 ; PROT AcProNH2, ProNH2, AcProNHCH3 RLD 4/23/93
   OG2D1    CG2O1   CG3C51   NG3C51     9   180.000000     3.208710     1 ; PR4, by ac_aa
   OG2D1    CG2O1   CG3C51     HGA1     9     0.000000     1.673600     1 ; PROT AcProNH2, ProNH2, AcProNHCH3 RLD 4/23/93
   OG2D1    CG2O1   CG3C51     HGA1     9     0.000000     2.510400     2 ; PROT AcProNH2, ProNH2, AcProNHCH3 RLD 4/23/93
   NG2S0    CG2O1   CG3C53   CG3C52     9     0.000000     1.673600     1 ; PROT AcProNH2, ProNH2, AcProNHCH3 RLD 4/23/93
   NG2S0    CG2O1   CG3C53   CG3C52     9     0.000000     2.510400     2 ; PROT AcProNH2, ProNH2, AcProNHCH3 RLD 4/23/93
   NG2S0    CG2O1   CG3C53    NG3P2     9     0.000000     1.255200     1 ; PROT AcProNH2, ProNH2, AcProNHCH3 RLD 4/23/93
   NG2S0    CG2O1   CG3C53     HGA1     9   180.000000     1.673600     1 ; PROT AcProNH2, ProNH2, AcProNHCH3 RLD 4/23/93
   NG2S0    CG2O1   CG3C53     HGA1     9     0.000000     2.510400     2 ; PROT AcProNH2, ProNH2, AcProNHCH3 RLD 4/23/93
   NG2S1    CG2O1   CG3C53   CG3C52     9     0.000000     1.673600     1 ; PROT AcProNH2, ProNH2, AcProNHCH3 RLD 4/23/93
   NG2S1    CG2O1   CG3C53   CG3C52     9     0.000000     2.510400     2 ; PROT AcProNH2, ProNH2, AcProNHCH3 RLD 4/23/93
   NG2S1    CG2O1   CG3C53    NG3P2     9     0.000000     1.255200     1 ; PROT AcProNH2, ProNH2, AcProNHCH3 RLD 4/23/93
   NG2S1    CG2O1   CG3C53     HGA1     9   180.000000     1.673600     1 ; PROT AcProNH2, ProNH2, AcProNHCH3 RLD 4/23/93
   NG2S1    CG2O1   CG3C53     HGA1     9     0.000000     2.510400     2 ; PROT AcProNH2, ProNH2, AcProNHCH3 RLD 4/23/93
   NG2S2    CG2O1   CG3C53   CG3C52     9     0.000000     1.673600     1 ; PROT AcProNH2, ProNH2, AcProNHCH3 RLD 4/23/93
   NG2S2    CG2O1   CG3C53   CG3C52     9     0.000000     2.510400     2 ; PROT AcProNH2, ProNH2, AcProNHCH3 RLD 4/23/93
   NG2S2    CG2O1   CG3C53    NG3P2     9     0.000000     1.255200     1 ; PROT AcProNH2, ProNH2, AcProNHCH3 RLD 4/23/93
   NG2S2    CG2O1   CG3C53     HGA1     9   180.000000     1.673600     1 ; PROT AcProNH2, ProNH2, AcProNHCH3 RLD 4/23/93
   NG2S2    CG2O1   CG3C53     HGA1     9     0.000000     2.510400     2 ; PROT AcProNH2, ProNH2, AcProNHCH3 RLD 4/23/93
   OG2D1    CG2O1   CG3C53   CG3C52     9   180.000000     1.673600     1 ; PROT AcProNH2, ProNH2, AcProNHCH3 RLD 4/23/93
   OG2D1    CG2O1   CG3C53   CG3C52     9     0.000000     2.510400     2 ; PROT AcProNH2, ProNH2, AcProNHCH3 RLD 4/23/93
   OG2D1    CG2O1   CG3C53    NG3P2     9     0.000000     0.585760     3 ; PROT AcProNH2, ProNH2, AcProNHCH3 RLD 4/23/93
   OG2D1    CG2O1   CG3C53     HGA1     9     0.000000     1.673600     1 ; PROT AcProNH2, ProNH2, AcProNHCH3 RLD 4/23/93
   OG2D1    CG2O1   CG3C53     HGA1     9     0.000000     2.510400     2 ; PROT AcProNH2, ProNH2, AcProNHCH3 RLD 4/23/93
  CG2DC1    CG2O1    NG2D1    CG2N2     9   180.000000    27.196000     2 ; ABSB, amide base, sr
  CG2DC2    CG2O1    NG2D1    CG2N2     9   180.000000    27.196000     2 ; ABSB, amide base, sr
  CG2R61    CG2O1    NG2D1    CG331     9   180.000000    32.144835     1 ; ABBM, amide base, sr
  CG2R61    CG2O1    NG2D1    CG331     9   180.000000    16.469898     2 ; ABBM, amide base, sr
  CG2R61    CG2O1    NG2D1    CG331     9     0.000000    10.952457     3 ; ABBM, amide base, sr
   CG311    CG2O1    NG2D1   CG2DC1     9     0.000000    12.317696     1 ; XYG, by ac_aa
   CG311    CG2O1    NG2D1   CG2DC1     9   180.000000     5.635848     2 ; XYG, by ac_aa
   CG311    CG2O1    NG2D1   CG2DC1     9   180.000000     9.863362     3 ; XYG, by ac_aa
   CG311    CG2O1    NG2D1   CG2DC2     9     0.000000    12.317696     1 ; XYG, by ac_aa
   CG311    CG2O1    NG2D1   CG2DC2     9   180.000000     5.635848     2 ; XYG, by ac_aa
   CG311    CG2O1    NG2D1   CG2DC2     9   180.000000     9.863362     3 ; XYG, by ac_aa
   CG331    CG2O1    NG2D1   CG2DC1     9   180.000000     4.847582     1 ; NRQ, by ac_aa
   CG331    CG2O1    NG2D1   CG2DC1     9     0.000000     6.292318     2 ; NRQ, by ac_aa
   CG331    CG2O1    NG2D1   CG2DC2     9   180.000000     4.847582     1 ; NRQ, by ac_aa
   CG331    CG2O1    NG2D1   CG2DC2     9     0.000000     6.292318     2 ; NRQ, by ac_aa
   CG331    CG2O1    NG2D1   CG2R61     9   180.000000    16.032670     1 ; ABNB, amide base, sr
   CG331    CG2O1    NG2D1   CG2R61     9   180.000000     8.311516     2 ; ABNB, amide base, sr
   CG331    CG2O1    NG2D1   CG2R61     9     0.000000     4.077308     3 ; ABNB, amide base, sr
   CG331    CG2O1    NG2D1   CG2R61     9     0.000000     7.331623     4 ; ABNB, amide base, sr
   CG331    CG2O1    NG2D1   CG2R61     9   180.000000     5.484387     5 ; ABNB, amide base, sr
   CG331    CG2O1    NG2D1   CG2R61     9     0.000000     2.010412     6 ; ABNB, amide base, sr
   CG331    CG2O1    NG2D1    CG321     9   180.000000    14.607599     1 ; ABMM, amide base, sr
   CG331    CG2O1    NG2D1    CG321     9   180.000000    16.027649     2 ; ABMM, amide base, sr
   CG331    CG2O1    NG2D1    CG321     9     0.000000     9.766711     3 ; ABMM, amide base, sr
   CG331    CG2O1    NG2D1    CG331     9   180.000000    14.607599     1 ; ABMM, amide base, sr
   CG331    CG2O1    NG2D1    CG331     9   180.000000    16.027649     2 ; ABMM, amide base, sr
   CG331    CG2O1    NG2D1    CG331     9     0.000000     9.766711     3 ; ABMM, amide base, sr
   OG2D1    CG2O1    NG2D1   CG2DC1     9   180.000000     0.094977     2 ; NRQ, by ac_aa
   OG2D1    CG2O1    NG2D1   CG2DC2     9   180.000000     0.094977     2 ; NRQ, by ac_aa
   OG2D1    CG2O1    NG2D1    CG2N2     9   180.000000    18.303326     2 ; ABSB, amide base, sr
   OG2D1    CG2O1    NG2D1   CG2R61     9   180.000000     0.730108     1 ; ABNB, amide base, sr
   OG2D1    CG2O1    NG2D1   CG2R61     9   180.000000     2.089071     2 ; ABNB, amide base, sr
   OG2D1    CG2O1    NG2D1   CG2R61     9     0.000000     5.797350     3 ; ABNB, amide base, sr
   OG2D1    CG2O1    NG2D1   CG2R61     9   180.000000     4.614534     4 ; ABNB, amide base, sr
   OG2D1    CG2O1    NG2D1   CG2R61     9   180.000000     2.304129     5 ; ABNB, amide base, sr
   OG2D1    CG2O1    NG2D1   CG2R61     9     0.000000     0.851026     6 ; ABNB, amide base, sr
   OG2D1    CG2O1    NG2D1    CG321     9   180.000000    32.844400     2 ; ABMM, amide base, sr
   OG2D1    CG2O1    NG2D1    CG331     9   180.000000    32.844400     2 ; ABBM, amide base, sr
   CG311    CG2O1    NG2S0   CG3C51     9   180.000000    11.506000     2 ; PROT AcProNH2, ProNH2, AcProNHCH3 RLD 4/23/93
   CG311    CG2O1    NG2S0   CG3C51     9     0.000000     1.255200     4 ; PROT AcProNH2, ProNH2, AcProNHCH3 RLD 4/23/93
   CG311    CG2O1    NG2S0   CG3C52     9   180.000000    11.506000     2 ; PROT AcProNH2, ProNH2, AcProNHCH3 RLD 4/23/93
   CG311    CG2O1    NG2S0   CG3C52     9     0.000000     1.255200     4 ; PROT AcProNH2, ProNH2, AcProNHCH3 RLD 4/23/93
   CG314    CG2O1    NG2S0   CG3C51     9   180.000000    11.506000     2 ; PROT AcProNH2, ProNH2, AcProNHCH3 RLD 4/23/93
   CG314    CG2O1    NG2S0   CG3C51     9     0.000000     1.255200     4 ; PROT AcProNH2, ProNH2, AcProNHCH3 RLD 4/23/93
   CG314    CG2O1    NG2S0   CG3C52     9   180.000000    11.506000     2 ; PROT AcProNH2, ProNH2, AcProNHCH3 RLD 4/23/93
   CG314    CG2O1    NG2S0   CG3C52     9     0.000000     1.255200     4 ; PROT AcProNH2, ProNH2, AcProNHCH3 RLD 4/23/93
   CG321    CG2O1    NG2S0   CG2R61     9     0.000000     6.694400     1 ; fentanyl, Lesnik et al, 2020
   CG321    CG2O1    NG2S0   CG2R61     9   180.000000    10.460000     2 ; fentanyl, Lesnik et al, 2020
   CG321    CG2O1    NG2S0    CG311     9   180.000000    10.878400     2 ; fentanyl, Lesnik et al, 2020
   CG321    CG2O1    NG2S0    CG331     9   180.000000    10.878400     2 ; DMPR, dimethylpropanamide; from DMF, Dimethylformamide; kevo
   CG321    CG2O1    NG2S0   CG3C51     9   180.000000    11.506000     2 ; PROT AcProNH2, ProNH2, AcProNHCH3 RLD 4/23/93
   CG321    CG2O1    NG2S0   CG3C51     9     0.000000     1.255200     4 ; PROT AcProNH2, ProNH2, AcProNHCH3 RLD 4/23/93
   CG321    CG2O1    NG2S0   CG3C52     9   180.000000    11.506000     2 ; PROT AcProNH2, ProNH2, AcProNHCH3 RLD 4/23/93
   CG321    CG2O1    NG2S0   CG3C52     9     0.000000     1.255200     4 ; PROT AcProNH2, ProNH2, AcProNHCH3 RLD 4/23/93
   CG324    CG2O1    NG2S0   CG3C51     9   180.000000    11.506000     2 ; PROT AcProNH2, ProNH2, AcProNHCH3 RLD 4/23/93
   CG324    CG2O1    NG2S0   CG3C51     9     0.000000     1.255200     4 ; PROT AcProNH2, ProNH2, AcProNHCH3 RLD 4/23/93
   CG324    CG2O1    NG2S0   CG3C52     9   180.000000    11.506000     2 ; PROT AcProNH2, ProNH2, AcProNHCH3 RLD 4/23/93
   CG324    CG2O1    NG2S0   CG3C52     9     0.000000     1.255200     4 ; PROT AcProNH2, ProNH2, AcProNHCH3 RLD 4/23/93
   CG331    CG2O1    NG2S0   CG2R64     9     0.000000     6.694400     1 ; m6pa, not optimized, yxu, RNA
   CG331    CG2O1    NG2S0   CG2R64     9   180.000000    10.460000     2 ; m6pa, not optimized, yxu, RNA
   CG331    CG2O1    NG2S0    CG311     9   180.000000    10.878400     2 ; from CG331 CG2O1 NG2S0 CG331, PENALTY= 1.5 MAA
   CG331    CG2O1    NG2S0    CG321     9   180.000000    10.878400     2 ; from CG331 CG2O1 NG2S0 CG331, PENALTY= 0.9 I4G
   CG331    CG2O1    NG2S0    CG331     9   180.000000    10.878400     2 ; DMF, Dimethylformamide, xxwy
   CG331    CG2O1    NG2S0   CG3C50     9   180.000000    11.506000     2 ; from CG331 CG2O1 NG2S0 CG3C51, penalty= 0.8, sm239
   CG331    CG2O1    NG2S0   CG3C50     9     0.000000     1.255200     4 ; from CG331 CG2O1 NG2S0 CG3C51, penalty= 0.8, sm239
   CG331    CG2O1    NG2S0   CG3C51     9   180.000000    11.506000     2 ; PROT AcProNH2, ProNH2, AcProNHCH3 RLD 4/23/93
   CG331    CG2O1    NG2S0   CG3C51     9     0.000000     1.255200     4 ; PROT AcProNH2, ProNH2, AcProNHCH3 RLD 4/23/93
   CG331    CG2O1    NG2S0   CG3C52     9   180.000000    11.506000     2 ; PROT AcProNH2, ProNH2, AcProNHCH3 RLD 4/23/93
   CG331    CG2O1    NG2S0   CG3C52     9     0.000000     1.255200     4 ; PROT AcProNH2, ProNH2, AcProNHCH3 RLD 4/23/93
  CG3C51    CG2O1    NG2S0   CG3C51     9   180.000000    11.506000     2 ; PROT AcProNH2, ProNH2, AcProNHCH3 RLD 4/23/93
  CG3C51    CG2O1    NG2S0   CG3C51     9     0.000000     1.255200     4 ; PROT AcProNH2, ProNH2, AcProNHCH3 RLD 4/23/93
  CG3C51    CG2O1    NG2S0   CG3C52     9   180.000000    11.506000     2 ; PROT AcProNH2, ProNH2, AcProNHCH3 RLD 4/23/93
  CG3C51    CG2O1    NG2S0   CG3C52     9     0.000000     1.255200     4 ; PROT AcProNH2, ProNH2, AcProNHCH3 RLD 4/23/93
  CG3C53    CG2O1    NG2S0   CG3C51     9   180.000000    11.506000     2 ; PROT AcProNH2, ProNH2, AcProNHCH3 RLD 4/23/93
  CG3C53    CG2O1    NG2S0   CG3C51     9     0.000000     1.255200     4 ; PROT AcProNH2, ProNH2, AcProNHCH3 RLD 4/23/93
  CG3C53    CG2O1    NG2S0   CG3C52     9   180.000000    11.506000     2 ; PROT AcProNH2, ProNH2, AcProNHCH3 RLD 4/23/93
  CG3C53    CG2O1    NG2S0   CG3C52     9     0.000000     1.255200     4 ; PROT AcProNH2, ProNH2, AcProNHCH3 RLD 4/23/93
   OG2D1    CG2O1    NG2S0   CG2R61     9   180.000000    10.460000     2 ; fentanyl, Lesnik et al, 2020
   OG2D1    CG2O1    NG2S0   CG2R64     9   180.000000    10.460000     2 ; m6pa, not optimized, yxu, RNA
   OG2D1    CG2O1    NG2S0    CG311     9   180.000000    10.878400     2 ; from OG2D1 CG2O1 NG2S0 CG331, PENALTY= 1.5 MAA, fentanyl, Lesnik et al, 2020
   OG2D1    CG2O1    NG2S0    CG321     9   180.000000    10.878400     2 ; from OG2D1 CG2O1 NG2S0 CG331, PENALTY= 0.9 I4G FHO
   OG2D1    CG2O1    NG2S0    CG331     9   180.000000    10.878400     2 ; DMF, Dimethylformamide, xxwy
   OG2D1    CG2O1    NG2S0   CG3C50     9   180.000000    11.506000     2 ; from OG2D1 CG2O1 NG2S0 CG3C51, penalty= 0.8, sm239
   OG2D1    CG2O1    NG2S0   CG3C50     9     0.000000     1.255200     4 ; from OG2D1 CG2O1 NG2S0 CG3C51, penalty= 0.8, sm239
   OG2D1    CG2O1    NG2S0   CG3C51     9   180.000000    11.506000     2 ; PROT AcProNH2, ProNH2, AcProNHCH3 RLD 4/23/93
   OG2D1    CG2O1    NG2S0   CG3C51     9     0.000000     1.255200     4 ; PROT AcProNH2, ProNH2, AcProNHCH3 RLD 4/23/93
   OG2D1    CG2O1    NG2S0   CG3C52     9   180.000000    11.506000     2 ; PROT AcProNH2, ProNH2, AcProNHCH3 RLD 4/23/93
   OG2D1    CG2O1    NG2S0   CG3C52     9     0.000000     1.255200     4 ; PROT AcProNH2, ProNH2, AcProNHCH3 RLD 4/23/93
   OG2D1    CG2O1    NG2S0    OG311     9   180.000000    14.626846     1 ; FHO, by ac_aa
   OG2D1    CG2O1    NG2S0    OG311     9   180.000000    36.542219     2 ; FHO, by ac_aa
   OG2D1    CG2O1    NG2S0    OG311     9   180.000000     3.280256     3 ; FHO, by ac_aa
   HGR52    CG2O1    NG2S0    CG321     9   180.000000    10.878400     2 ; from HGR52 CG2O1 NG2S0 CG331, PENALTY= 0.9 FHO
   HGR52    CG2O1    NG2S0    CG331     9   180.000000    10.878400     2 ; DMF, Dimethylformamide, xxwy
   HGR52    CG2O1    NG2S0    OG311     9   180.000000     2.513329     2 ; FHO, by ac_aa
  CG2D1O    CG2O1    NG2S1    CG331     9     0.000000     6.694400     1 ; from CG2DC1 CG2O1 NG2S1 CG331, PENALTY= 3.5 DYA
  CG2D1O    CG2O1    NG2S1    CG331     9   180.000000    10.460000     2 ; from CG2DC1 CG2O1 NG2S1 CG331, PENALTY= 3.5 DYA
  CG2D1O    CG2O1    NG2S1     HGP1     9   180.000000    10.460000     2 ; from CG2DC1 CG2O1 NG2S1 HGP1, PENALTY= 3.5 DYA
  CG2D2O    CG2O1    NG2S1    CG331     9     0.000000     6.694400     1 ; from CG2DC1 CG2O1 NG2S1 CG331, PENALTY= 3.5 DYA
  CG2D2O    CG2O1    NG2S1    CG331     9   180.000000    10.460000     2 ; from CG2DC1 CG2O1 NG2S1 CG331, PENALTY= 3.5 DYA
  CG2D2O    CG2O1    NG2S1     HGP1     9   180.000000    10.460000     2 ; from CG2DC1 CG2O1 NG2S1 HGP1, PENALTY= 3.5 DYA
  CG2DC1    CG2O1    NG2S1   CG2R61     9     0.000000     6.694400     1 ; RETINOL FRET
  CG2DC1    CG2O1    NG2S1   CG2R61     9   180.000000    10.460000     2 ; RETINOL FRET
  CG2DC1    CG2O1    NG2S1    CG321     9     0.000000     6.694400     1 ; from CG2DC1 CG2O1 NG2S1 CG331, penalty= 0.9 KCR
  CG2DC1    CG2O1    NG2S1    CG321     9   180.000000    10.460000     2 ; from CG2DC1 CG2O1 NG2S1 CG331, penalty= 0.9 KCR
  CG2DC1    CG2O1    NG2S1    CG331     9     0.000000     6.694400     1 ; RETINOL CROT
  CG2DC1    CG2O1    NG2S1    CG331     9   180.000000    10.460000     2 ; RETINOL CROT
  CG2DC1    CG2O1    NG2S1     HGP1     9   180.000000    10.460000     2 ; RETINOL CROT
  CG2DC2    CG2O1    NG2S1   CG2R61     9     0.000000     6.694400     1 ; RETINOL FRET
  CG2DC2    CG2O1    NG2S1   CG2R61     9   180.000000    10.460000     2 ; RETINOL FRET
  CG2DC2    CG2O1    NG2S1    CG321     9     0.000000     6.694400     1 ; from CG2DC1 CG2O1 NG2S1 CG331, penalty= 0.9 KCR
  CG2DC2    CG2O1    NG2S1    CG321     9   180.000000    10.460000     2 ; from CG2DC1 CG2O1 NG2S1 CG331, penalty= 0.9 KCR
  CG2DC2    CG2O1    NG2S1    CG331     9     0.000000     6.694400     1 ; RETINOL CROT
  CG2DC2    CG2O1    NG2S1    CG331     9   180.000000    10.460000     2 ; RETINOL CROT
  CG2DC2    CG2O1    NG2S1     HGP1     9   180.000000    10.460000     2 ; RETINOL CROT
  CG2R51    CG2O1    NG2S1    CG331     9     0.000000     6.694400     1 ; INCA model for D3R, xxwy
  CG2R51    CG2O1    NG2S1    CG331     9   180.000000    16.736000     2 ; INCA model for D3R, xxwy
  CG2R51    CG2O1    NG2S1     HGP1     9   180.000000     4.184000     2 ; INCA model for D3R, xxwy
  CG2R61    CG2O1    NG2S1    CG2O6     9     0.000000     7.698560     1 ; flavin
  CG2R61    CG2O1    NG2S1    CG2O6     9   180.000000     4.225840     2 ; flavin
  CG2R61    CG2O1    NG2S1    CG321     9     0.000000     6.694400     1 ; 3CPD, Gamma-3-Amide Pyridine Lysine CDCA Amide; from HDZ2, hydrazone model cmpd 2; cacha
  CG2R61    CG2O1    NG2S1    CG321     9   180.000000    16.736000     2 ; 3CPD, Gamma-3-Amide Pyridine Lysine CDCA Amide; from HDZ2, hydrazone model cmpd 2; cacha
  CG2R61    CG2O1    NG2S1    NG2D1     9     0.000000     6.694400     1 ; HDZ2, hydrazone model cmpd 2
  CG2R61    CG2O1    NG2S1    NG2D1     9   180.000000    16.736000     2 ; HDZ2, hydrazone model cmpd 2
  CG2R61    CG2O1    NG2S1     HGP1     9   180.000000    10.460000     2 ; HDZ2, hydrazone model cmpd 2
   CG311    CG2O1    NG2S1    CG2O6     9   180.000000     3.096160     2 ; MDU, from H2U, yxu, RNA
   CG311    CG2O1    NG2S1    CG311     9     0.000000     6.694400     1 ; PROT NMA cis/trans energy difference. (LK)
   CG311    CG2O1    NG2S1    CG311     9   180.000000    10.460000     2 ; PROT Gives appropriate NMA cis/trans barrier. (LK)
   CG311    CG2O1    NG2S1    CG321     9     0.000000     6.694400     1 ; PROT NMA cis/trans energy difference. (LK)
   CG311    CG2O1    NG2S1    CG321     9   180.000000    10.460000     2 ; PROT Gives appropriate NMA cis/trans barrier. (LK)
   CG311    CG2O1    NG2S1    CG331     9     0.000000     6.694400     1 ; PROT NMA cis/trans energy difference. (LK)
   CG311    CG2O1    NG2S1    CG331     9   180.000000    10.460000     2 ; PROT Gives appropriate NMA cis/trans barrier. (LK)
   CG311    CG2O1    NG2S1     HGP1     9   180.000000    10.460000     2 ; PROT Gives appropriate NMA cis/trans barrier. (LK)
   CG314    CG2O1    NG2S1    CG311     9     0.000000     6.694400     1 ; PROT NMA cis/trans energy difference. (LK)
   CG314    CG2O1    NG2S1    CG311     9   180.000000    10.460000     2 ; PROT Gives appropriate NMA cis/trans barrier. (LK)
   CG314    CG2O1    NG2S1    CG321     9     0.000000     6.694400     1 ; PROT NMA cis/trans energy difference. (LK)
   CG314    CG2O1    NG2S1    CG321     9   180.000000    10.460000     2 ; PROT Gives appropriate NMA cis/trans barrier. (LK)
   CG314    CG2O1    NG2S1    CG331     9     0.000000     6.694400     1 ; PROT NMA cis/trans energy difference. (LK)
   CG314    CG2O1    NG2S1    CG331     9   180.000000    10.460000     2 ; PROT Gives appropriate NMA cis/trans barrier. (LK)
   CG314    CG2O1    NG2S1     HGP1     9   180.000000    10.460000     2 ; PROT Gives appropriate NMA cis/trans barrier. (LK)
   CG321    CG2O1    NG2S1    CG2O6     9   180.000000     6.903600     2 ; H2U, yxu, RNA
   CG321    CG2O1    NG2S1   CG2R61     9     0.000000     6.694400     1 ; 3APP, Alpha-Benzyl Gamma-3-Amino Pyridine GA CDCA Amide, cacha
   CG321    CG2O1    NG2S1   CG2R61     9   180.000000    10.460000     2 ; 3APP, Alpha-Benzyl Gamma-3-Amino Pyridine GA CDCA Amide, cacha
   CG321    CG2O1    NG2S1   CG2R64     9     0.000000     6.694400     1 ; 2APP, Alpha-Benzyl Gamma-2-Amino Pyridine GA CDCA Amide, cacha
   CG321    CG2O1    NG2S1   CG2R64     9   180.000000    10.460000     2 ; 2APP, Alpha-Benzyl Gamma-2-Amino Pyridine GA CDCA Amide, cacha
   CG321    CG2O1    NG2S1    CG311     9     0.000000     6.694400     1 ; PROT NMA cis/trans energy difference. (LK)
   CG321    CG2O1    NG2S1    CG311     9   180.000000    10.460000     2 ; PROT Gives appropriate NMA cis/trans barrier. (LK)
   CG321    CG2O1    NG2S1    CG321     9     0.000000     6.694400     1 ; PROT NMA cis/trans energy difference. (LK)
   CG321    CG2O1    NG2S1    CG321     9   180.000000    10.460000     2 ; PROT Gives appropriate NMA cis/trans barrier. (LK)
   CG321    CG2O1    NG2S1    CG331     9     0.000000     6.694400     1 ; PROT from CG321  CG2O1  NG2S1  CT2, adm jr. 10/21/96
   CG321    CG2O1    NG2S1    CG331     9   180.000000    10.460000     2 ; PROT from CG321  CG2O1  NG2S1  CT2, adm jr. 10/21/96
   CG321    CG2O1    NG2S1    NG2D1     9     0.000000     3.765600     1 ; PMHA, hydrazone-containing model compound:, sz
   CG321    CG2O1    NG2S1    NG2D1     9   180.000000    14.644000     2 ; PMHA, hydrazone-containing model compound: HDZ1, hydrazone model cmpd, sz
   CG321    CG2O1    NG2S1    OG311     9     0.000000    12.523549     1 ; HGA, by ac_aa
   CG321    CG2O1    NG2S1    OG311     9   180.000000    29.465820     2 ; HGA, by ac_aa
   CG321    CG2O1    NG2S1     HGP1     9   180.000000    10.460000     2 ; PROT Gives appropriate NMA cis/trans barrier. (LK)
   CG324    CG2O1    NG2S1    CG311     9     0.000000     6.694400     1 ; PROT NMA cis/trans energy difference. (LK)
   CG324    CG2O1    NG2S1    CG311     9   180.000000    10.460000     2 ; PROT Gives appropriate NMA cis/trans barrier. (LK)
   CG324    CG2O1    NG2S1    CG321     9     0.000000     6.694400     1 ; PROT NMA cis/trans energy difference. (LK)
   CG324    CG2O1    NG2S1    CG321     9   180.000000    10.460000     2 ; PROT Gives appropriate NMA cis/trans barrier. (LK)
   CG324    CG2O1    NG2S1    CG331     9     0.000000     6.694400     1 ; PROT from CG321  CG2O1  NG2S1  CT2, adm jr. 10/21/96
   CG324    CG2O1    NG2S1    CG331     9   180.000000    10.460000     2 ; PROT from CG321  CG2O1  NG2S1  CT2, adm jr. 10/21/96
   CG324    CG2O1    NG2S1     HGP1     9   180.000000    10.460000     2 ; PROT Gives appropriate NMA cis/trans barrier. (LK)
   CG331    CG2O1    NG2S1   CG2D1O     9     0.000000     6.586034     1 ; DYAP, by ac_aa
   CG331    CG2O1    NG2S1   CG2D1O     9   180.000000     0.217568     2 ; DYAP, by ac_aa
   CG331    CG2O1    NG2S1   CG2D2O     9     0.000000     6.586034     1 ; DYAP, by ac_aa
   CG331    CG2O1    NG2S1   CG2D2O     9   180.000000     0.217568     2 ; DYAP, by ac_aa
   CG331    CG2O1    NG2S1   CG2R61     9     0.000000     6.694400     1 ; RETINOL PACP 1-fold added by kevo
   CG331    CG2O1    NG2S1   CG2R61     9   180.000000    10.460000     2 ; RETINOL PACP
   CG331    CG2O1    NG2S1   CG2R64     9     0.000000     6.694400     1 ; 2AMP, 2-amino pyridine, from PACP, p-acetamide-phenol, pyridine, kevo
   CG331    CG2O1    NG2S1   CG2R64     9   180.000000    10.460000     2 ; 2AMP, 2-amino pyridine, from PACP, p-acetamide-phenol, pyridine, kevo
   CG331    CG2O1    NG2S1    CG311     9     0.000000     6.694400     1 ; PROT NMA cis/trans energy difference. (LK)
   CG331    CG2O1    NG2S1    CG311     9   180.000000    10.460000     2 ; PROT Gives appropriate NMA cis/trans barrier. (LK)
   CG331    CG2O1    NG2S1    CG321     9     0.000000     6.694400     1 ; PROT for acetylated GLY N-terminus, adm jr.
   CG331    CG2O1    NG2S1    CG321     9   180.000000    10.460000     2 ; PROT for acetylated GLY N-terminus, adm jr.
   CG331    CG2O1    NG2S1    CG331     9     0.000000     6.694400     1 ; PROT NMA cis/trans energy difference. (LK)
   CG331    CG2O1    NG2S1    CG331     9   180.000000    10.460000     2 ; PROT Gives appropriate NMA cis/trans barrier. (LK)
   CG331    CG2O1    NG2S1   CG3C51     9     0.000000     6.694400     1 ; from CG331 CG2O1 NG2S1 CG321, penalty= 10 SUI
   CG331    CG2O1    NG2S1   CG3C51     9   180.000000    10.460000     2 ; from CG331 CG2O1 NG2S1 CG321, penalty= 10 SUI
   CG331    CG2O1    NG2S1    NG2D1     9     0.000000     3.765600     1 ; HDZ1, hydrazone model cmpd
   CG331    CG2O1    NG2S1    NG2D1     9   180.000000    14.644000     2 ; HDZ1, hydrazone model cmpd
   CG331    CG2O1    NG2S1     HGP1     9   180.000000    10.460000     2 ; PROT Gives appropriate NMA cis/trans barrier. (LK)
  CG3C50    CG2O1    NG2S1    CG331     9     0.000000     6.694400     1 ; from CG3C51 CG2O1 NG2S1 CG331, penalty= 0.8, sm239
  CG3C50    CG2O1    NG2S1    CG331     9   180.000000    10.460000     2 ; from CG3C51 CG2O1 NG2S1 CG331, penalty= 0.8, sm239
  CG3C50    CG2O1    NG2S1     HGP1     9   180.000000    10.460000     2 ; from CG3C51 CG2O1 NG2S1 HGP1, penalty= 0.8, sm239
  CG3C51    CG2O1    NG2S1    CG311     9     0.000000     6.694400     1 ; PROT AcProNH2, ProNH2, AcProNHCH3 RLD 4/23/93
  CG3C51    CG2O1    NG2S1    CG311     9   180.000000    10.460000     2 ; PROT AcProNH2, ProNH2, AcProNHCH3 RLD 4/23/93
  CG3C51    CG2O1    NG2S1    CG321     9     0.000000     6.694400     1 ; PROT AcProNH2, ProNH2, AcProNHCH3 RLD 4/23/93
  CG3C51    CG2O1    NG2S1    CG321     9   180.000000    10.460000     2 ; PROT AcProNH2, ProNH2, AcProNHCH3 RLD 4/23/93
  CG3C51    CG2O1    NG2S1    CG331     9     0.000000     6.694400     1 ; PROT AcProNH2, ProNH2, AcProNHCH3 RLD 4/23/93
  CG3C51    CG2O1    NG2S1    CG331     9   180.000000    10.460000     2 ; PROT AcProNH2, ProNH2, AcProNHCH3 RLD 4/23/93
  CG3C51    CG2O1    NG2S1     HGP1     9   180.000000    10.460000     2 ; PROT AcProNH2, ProNH2, AcProNHCH3 RLD 4/23/93
  CG3C53    CG2O1    NG2S1    CG311     9     0.000000     6.694400     1 ; PROT AcProNH2, ProNH2, AcProNHCH3 RLD 4/23/93
  CG3C53    CG2O1    NG2S1    CG311     9   180.000000    10.460000     2 ; PROT AcProNH2, ProNH2, AcProNHCH3 RLD 4/23/93
  CG3C53    CG2O1    NG2S1    CG321     9     0.000000     6.694400     1 ; PROT AcProNH2, ProNH2, AcProNHCH3 RLD 4/23/93
  CG3C53    CG2O1    NG2S1    CG321     9   180.000000    10.460000     2 ; PROT AcProNH2, ProNH2, AcProNHCH3 RLD 4/23/93
  CG3C53    CG2O1    NG2S1    CG331     9     0.000000     6.694400     1 ; PROT AcProNH2, ProNH2, AcProNHCH3 RLD 4/23/93
  CG3C53    CG2O1    NG2S1    CG331     9   180.000000    10.460000     2 ; PROT AcProNH2, ProNH2, AcProNHCH3 RLD 4/23/93
  CG3C53    CG2O1    NG2S1     HGP1     9   180.000000    10.460000     2 ; PROT AcProNH2, ProNH2, AcProNHCH3 RLD 4/23/93
   OG2D1    CG2O1    NG2S1   CG2D1O     9   180.000000     8.982211     2 ; DYAP, by ac_aa
   OG2D1    CG2O1    NG2S1   CG2D2O     9   180.000000     8.982211     2 ; DYAP, by ac_aa
   OG2D1    CG2O1    NG2S1    CG2O6     9   180.000000     2.426720     2 ; flavin
   OG2D1    CG2O1    NG2S1   CG2R61     9   180.000000    10.460000     2 ; RETINOL PACP
   OG2D1    CG2O1    NG2S1   CG2R64     9   180.000000    10.460000     2 ; 2AMP, 2-amino pyridine, from PACP, p-acetamide-phenol, pyridine, kevo
   OG2D1    CG2O1    NG2S1    CG311     9   180.000000    10.460000     2 ; PROT Gives appropriate NMA cis/trans barrier. (LK)
   OG2D1    CG2O1    NG2S1    CG321     9   180.000000    10.460000     2 ; PROT Gives appropriate NMA cis/trans barrier. (LK)
   OG2D1    CG2O1    NG2S1    CG331     9   180.000000    10.460000     2 ; PROT Gives appropriate NMA cis/trans barrier. (LK)
   OG2D1    CG2O1    NG2S1   CG3C51     9   180.000000    10.460000     2 ; from OG2D1 CG2O1 NG2S1 CG321, penalty= 10 SUI
   OG2D1    CG2O1    NG2S1    NG2D1     9   180.000000    10.460000     2 ; HDZ1, hydrazone model cmpd
   OG2D1    CG2O1    NG2S1    OG311     9   180.000000     0.237233     2 ; HGA, by ac_aa
   OG2D1    CG2O1    NG2S1     HGP1     9   180.000000    10.460000     2 ; PROT Gives appropriate NMA cis/trans barrier. (LK)
   SG2D1    CG2O1    NG2S1    CG331     9     0.000000     6.552981     1 ; GL3, by ac_aa
   SG2D1    CG2O1    NG2S1    CG331     9   180.000000    12.952827     2 ; GL3, by ac_aa
   SG2D1    CG2O1    NG2S1     HGP1     9   180.000000     4.939212     2 ; GL3, by ac_aa
   HGR52    CG2O1    NG2S1    CG311     9     0.000000     6.440850     1 ; FME, by ac_aa
   HGR52    CG2O1    NG2S1    CG311     9   180.000000    12.200544     2 ; FME, by ac_aa
   HGR52    CG2O1    NG2S1     HGP1     9   180.000000     5.857600     2 ; amba, from HGR52 CG2O1 NG2S2 HGP1, not optimized, yxu, RNA
  CG2DC1    CG2O1    NG2S2     HGP1     9   180.000000    10.460000     2 ; NICH; Kenno: reverted to nad/ppi, jjp1/adm jr. 7/95
  CG2DC2    CG2O1    NG2S2     HGP1     9   180.000000    10.460000     2 ; NICH; Kenno: reverted to nad/ppi, jjp1/adm jr. 7/95
  CG2R61    CG2O1    NG2S2     HGP1     9   180.000000     4.184000     2 ; 3NAP, nicotamide (PYRIDINE pyr-CONH2), yin
  CG2R62    CG2O1    NG2S2     HGP1     9   180.000000    10.460000     2 ; NA nad/ppi, jjp1/adm jr. 7/95
   CG311    CG2O1    NG2S2     HGP1     9   180.000000    10.460000     2 ; PROT Gives appropriate NMA cis/trans barrier. (LK)
   CG314    CG2O1    NG2S2     HGP1     9   180.000000    10.460000     2 ; PROT Gives appropriate NMA cis/trans barrier. (LK)
   CG321    CG2O1    NG2S2     HGP1     9   180.000000     5.857600     2 ; PROT adm jr. 4/10/91, acetamide update
   CG324    CG2O1    NG2S2     HGP1     9   180.000000     5.857600     2 ; PROT adm jr. 4/10/91, acetamide update
   CG331    CG2O1    NG2S2     HGP1     9   180.000000     5.857600     2 ; PROT adm jr. 4/10/91, acetamide update
  CG3C51    CG2O1    NG2S2     HGP1     9   180.000000    10.460000     2 ; PROT AcProNH2, ProNH2, AcProNHCH3 RLD 4/23/93
  CG3C53    CG2O1    NG2S2     HGP1     9   180.000000    10.460000     2 ; PROT AcProNH2, ProNH2, AcProNHCH3 RLD 4/23/93
   OG2D1    CG2O1    NG2S2     HGP1     9   180.000000     5.857600     2 ; PROT adm jr. 4/10/91, acetamide update
   HGR52    CG2O1    NG2S2     HGP1     9   180.000000     5.857600     2 ; PROT, formamide
   OG2D1    CG2O2   CG2R61   CG2R61     9   180.000000     4.288600     2 ; ZOIC, benzoic acid, MBOA, methylbenzoate, jal
   OG302    CG2O2   CG2R61   CG2R61     9   180.000000     3.556400     2 ; MBOA, methylbenzoate, jal
   OG311    CG2O2   CG2R61   CG2R61     9   180.000000     4.288600     2 ; ZOIC, benzoic acid, jal
   SG311    CG2O2   CG2R61   CG2R61     9   180.000000     2.058110     2 ; JJJ, by ac_aa
   SG311    CG2O2   CG2R61   CG2R61     9     0.000000     0.853118     4 ; JJJ, by ac_aa
   OG2D1    CG2O2    CG311    CG2O3     9     0.000000    13.010566     2 ; CGUH, by ac_aa
   OG2D1    CG2O2    CG311   CG2R61     9     0.000000     2.928800     1 ; cmbz, yxu, RNA
   OG2D1    CG2O2    CG311   CG2R61     9   180.000000     1.255200     3 ; cmbz, yxu, RNA
   OG2D1    CG2O2    CG311   CG2R62     9     0.000000     2.928800     1 ; CMU, from cmbz, yxu, RNA
   OG2D1    CG2O2    CG311   CG2R62     9   180.000000     1.255200     3 ; CMU, from cmbz, yxu, RNA
   OG2D1    CG2O2    CG311    CG311     9   180.000000     0.209200     6 ; HWG, from OG2D1 CG2O2 CG311 CG321, yxu, RNA
   OG2D1    CG2O2    CG311    CG321     9   180.000000     0.209200     6 ; AMGA, Alpha Methyl Tert Butyl Glu Acid, cacha, 05/06 ! corrected kevo, 01/08
   OG2D1    CG2O2    CG311    CG331     9   180.000000     0.209200     6 ; hpme, from OG2D1 CG2O2 CG311 CG321, not optimized, yxu, RNA
   OG2D1    CG2O2    CG311   NG2R53     9     0.000000     0.000000     1 ; drug design project, xxwy
   OG2D1    CG2O2    CG311    NG2S1     9     0.000000     0.000000     1 ; PROT Alanine Dipeptide ab initio calc's (LK)
   OG2D1    CG2O2    CG311    NG321     9   180.000000     0.000000     6 ; 5UHA, from OG2D1  CG2O2  CG321  NG321, yxu, RNA
   OG2D1    CG2O2    CG311    OG311     9   180.000000     2.301200     2 ; CMU (hpme), yxu, RNA
   OG2D1    CG2O2    CG311     HGA1     9     0.000000     0.000000     3 ; AMGA, Alpha Methyl Glu Acid CDCA Amide, cacha, 03/06
   OG302    CG2O2    CG311   CG2R61     9     0.000000     1.255200     3 ; cmbz, yxu, RNA
   OG302    CG2O2    CG311   CG2R62     9   180.000000     4.184000     1 ; CMU, (compensation for inner O8..O6), yxu, RNA
   OG302    CG2O2    CG311   CG2R62     9     0.000000     1.255200     3 ; CMU, cmbz, yxu, RNA
   OG302    CG2O2    CG311    CG311     9   180.000000     0.209200     6 ; HWG, from OG302 CG2O2 CG311 CG321, yxu, RNA
   OG302    CG2O2    CG311    CG321     9   180.000000     0.209200     6 ; AMGA, Alpha Methyl Glu Acid CDCA Amide, cacha
   OG302    CG2O2    CG311    CG331     9   180.000000     0.209200     6 ; hpme, from OG302 CG2O2 CG311 CG321, not optimized, yxu, RNA
   OG302    CG2O2    CG311   NG2R53     9     0.000000     0.000000     1 ; B5HE, B5H6 ethyl ester, xxwy
   OG302    CG2O2    CG311    NG2S1     9     0.000000     0.000000     1 ; AMGA, Alpha Methyl Glut Acid CDCA Amide, cacha, 05/06
   OG302    CG2O2    CG311    OG311     9   180.000000     1.673600     2 ; CMU (hpme), yxu, RNA
   OG302    CG2O2    CG311    OG311     9     0.000000     0.418400     6 ; CMU (hpme), yxu, RNA
   OG302    CG2O2    CG311     HGA1     9     0.000000     0.000000     1 ; AMGA, Alpha Methyl Glut Acid CDCA Amide, cacha, 05/06
   OG311    CG2O2    CG311    CG2O3     9   180.000000    14.097570     1 ; CGUH, by ac_aa
   OG311    CG2O2    CG311    CG2O3     9   180.000000    12.362046     2 ; CGUH, by ac_aa
   OG311    CG2O2    CG311   CG2R62     9   180.000000     3.891120     2 ; 5UHC, from bzaa, yxu, RNA
   OG311    CG2O2    CG311   CG2R62     9   180.000000     0.502080     3 ; 5UHC, from bzaa, yxu, RNA
   OG311    CG2O2    CG311    CG311     9   180.000000     0.209200     6 ; BUGn, from OG311 CG2O2 CG311 CG321, yxu, RNA
   OG311    CG2O2    CG311    CG321     9   180.000000     0.209200     6 ; drug design project, xxwy
   OG311    CG2O2    CG311   NG2R53     9     0.000000     0.000000     1 ; drug design project, xxwy
   OG311    CG2O2    CG311    NG2S1     9     0.000000     0.000000     1 ; 6AH, from OG302  CG2O2  CG311  NG2S1, yxu, RNA
   OG311    CG2O2    CG311    NG321     9   180.000000     0.000000     6 ; 5UHA, from OG311  CG2O2  CG321  NG321, yxu, RNA
   OG311    CG2O2    CG311    OG311     9   180.000000     1.924640     2 ; 5UHC, from moac, yxu, RNA
   OG311    CG2O2    CG311     HGA1     9   180.000000     0.209200     6 ; drug design project, xxwy
   OG2D1    CG2O2    CG321    CG2O3     9   180.000000     8.834516     2 ; MCS, by ac_aa
   OG2D1    CG2O2    CG321    CG2O3     9     0.000000     9.689726     3 ; MCS, by ac_aa
   OG2D1    CG2O2    CG321   CG2R61     9     0.000000     3.556400     1 ; mebz, yxu, RNA
   OG2D1    CG2O2    CG321   CG2R62     9     0.000000     3.556400     1 ; OCU, from mebz, yxu, RNA
   OG2D1    CG2O2    CG321    CG311     9   180.000000     0.000000     6 ; 576P, standard param [0.05 also acceptable]
   OG2D1    CG2O2    CG321    CG321     9   180.000000     0.209200     6 ; LIPID methyl acetate
   OG2D1    CG2O2    CG321    CG331     9   180.000000     0.209200     6 ; LIPID methyl acetate
   OG2D1    CG2O2    CG321    NG2S1     9     0.000000     0.000000     1 ; 6AH, from OG2D1  CG2O2  CG311  NG2S1, yxu, RNA
   OG2D1    CG2O2    CG321    NG311     9   180.000000     0.000000     6 ; 5UHG, from OG2D1 CG2O2 CG321 NG321, yxu, RNA
   OG2D1    CG2O2    CG321    NG321     9   180.000000     0.000000     6 ; PROT adm jr. 3/19/92, from lipid methyl acetate
   OG2D1    CG2O2    CG321    OG301     9     0.000000     0.418400     1 ; OEU, yxu, RNA
   OG2D1    CG2O2    CG321    OG301     9   180.000000     4.100320     2 ; OEU, yxu, RNA
   OG2D1    CG2O2    CG321     HGA2     9   180.000000     0.000000     6 ; PROT adm jr. 3/19/92, from lipid methyl acetate; LIPID acetic Acid
   OG302    CG2O2    CG321   CG2R61     9     0.000000     1.255200     1 ; mebz, yxu, RNA
   OG302    CG2O2    CG321   CG2R61     9   180.000000     4.184000     2 ; mebz, yxu, RNA
   OG302    CG2O2    CG321   CG2R62     9     0.000000     1.255200     1 ; OCU, from mebz, yxu, RNA
   OG302    CG2O2    CG321   CG2R62     9   180.000000     4.184000     2 ; OCU, from mebz, yxu, RNA
   OG302    CG2O2    CG321    CG321     9   180.000000     2.217520     2 ; LIPID methyl propionate, 12/92
   OG302    CG2O2    CG321    CG331     9   180.000000    -0.627600     1 ; LIPID methyl propionate, 12/92
   OG302    CG2O2    CG321    OG301     9   180.000000     0.418400     1 ; OEU, yxu, RNA
   OG302    CG2O2    CG321    OG301     9   180.000000     4.100320     2 ; OEU, yxu, RNA
   OG302    CG2O2    CG321     HGA2     9     0.000000     0.000000     3 ; LIPID acetic Acid
   OG303    CG2O2    CG321    CG331     9     0.000000     0.627600     1 ; from OG302 CG2O2 CG321 CG331, penalty= 2.5 PHD PHDP
   OG303    CG2O2    CG321     HGA2     9     0.000000     0.000000     3 ; from OG302 CG2O2 CG321 HGA2, PENALTY= 2.5 PHD PHDP
   OG311    CG2O2    CG321   CG2R61     9   180.000000     3.891120     2 ; bzaa, yxu, RNA
   OG311    CG2O2    CG321   CG2R61     9   180.000000     0.502080     3 ; bzaa, yxu, RNA
   OG311    CG2O2    CG321   CG2R62     9   180.000000     3.891120     2 ; 5UHC, from bzaa, yxu, RNA
   OG311    CG2O2    CG321   CG2R62     9   180.000000     0.502080     3 ; 5UHC, from bzaa, yxu, RNA
   OG311    CG2O2    CG321    CG311     9   180.000000     0.000000     6 ; 576P, standard param [0.05 also acceptable]
   OG311    CG2O2    CG321    NG2S1     9     0.000000     0.000000     1 ; 6AH, from OG302  CG2O2  CG311  NG2S1, yxu, RNA
   OG311    CG2O2    CG321    NG311     9   180.000000     0.000000     6 ; 5UHG, from OG311 CG2O2 CG321 NG321, yxu, RNA
   OG311    CG2O2    CG321    NG321     9   180.000000     0.000000     6 ; PROT adm jr. 3/19/92, from lipid methyl acetate
   OG311    CG2O2    CG321    OG301     9   180.000000     0.711280     1 ; 5UHC (moac), yxu, RNA
   OG311    CG2O2    CG321    OG301     9   180.000000     1.924640     2 ; 5UHC (moac), yxu, RNA
   OG311    CG2O2    CG321     HGA2     9   180.000000     0.000000     6 ; PROT adm jr. 3/19/92, from lipid methyl acetate
   SG311    CG2O2    CG321    CG2O3     9   180.000000     6.148388     1 ; MCS, by ac_aa
   SG311    CG2O2    CG321    CG2O3     9     0.000000     6.891048     2 ; MCS, by ac_aa
   SG311    CG2O2    CG321    CG2O3     9   180.000000     9.068820     3 ; MCS, by ac_aa
   SG311    CG2O2    CG321    CG321     9     0.000000     2.685291     1 ; from CG331 CG321 CG2O2 SG311, CYG
   SG311    CG2O2    CG321    CG321     9   180.000000     2.217938     2 ; from CG331 CG321 CG2O2 SG311, CYG
   SG311    CG2O2    CG321    CG321     9   180.000000    15.562806     3 ; from CG331 CG321 CG2O2 SG311, CYG
   SG311    CG2O2    CG321    CG331     9     0.000000     2.685291     1 ; CYG, by ac_aa
   SG311    CG2O2    CG321    CG331     9   180.000000     2.217938     2 ; CYG, by ac_aa
   SG311    CG2O2    CG321    CG331     9   180.000000    15.562806     3 ; CYG, by ac_aa
   SG311    CG2O2    CG321     HGA2     9     0.000000     7.152548     3 ; MCS, by ac_aa
   OG2D1    CG2O2    CG331     HGA3     9   180.000000     0.000000     6 ; PROT adm jr. 3/19/92, from lipid methyl acetate; LIPID acetic Acid
   OG302    CG2O2    CG331     HGA3     9     0.000000     0.000000     3 ; LIPID acetic Acid
   OG311    CG2O2    CG331     HGA3     9   180.000000     0.000000     6 ; PROT adm jr. 3/19/92, from lipid methyl acetate
   SG311    CG2O2    CG331     HGA3     9   180.000000     0.807930     2 ; CYG, by ac_aa
  CG2R61    CG2O2    OG302    CG331     9   180.000000     5.230000     1 ; MBOA, methylbenzoate, jal
  CG2R61    CG2O2    OG302    CG331     9   180.000000     6.276000     2 ; MBOA, methylbenzoate, jal
  CG2R61    CG2O2    OG302    CG331     9   180.000000     0.209200     6 ; MBOA, methylbenzoate, jal
   CG311    CG2O2    OG302    CG301     9   180.000000     8.577200     2 ; ATGM, GAMMA METHYL ALPHA TERT BUTYL GLU ACID CDCA AMIDE, cacha
   CG311    CG2O2    OG302    CG321     9   180.000000     8.577200     2 ; ABGA, ALPHA BENZYL GLU ACID CDCA AMIDE, cacha
   CG311    CG2O2    OG302    CG331     9   180.000000     8.577200     2 ; AMGA, Alpha Methyl Glu Acid CDCA Amide, cacha
   CG321    CG2O2    OG302    CG301     9   180.000000     8.577200     2 ; AMGT, Alpha Methyl Gamma Tert Butyl Glu Acid CDCA Amide, cacha
   CG321    CG2O2    OG302    CG311     9   180.000000     8.577200     2 ; LIPID methyl acetate
   CG321    CG2O2    OG302    CG321     9   180.000000     8.577200     2 ; LIPID methyl acetate ! corrected kevo, 01/08
   CG321    CG2O2    OG302    CG331     9   180.000000     8.577200     2 ; LIPID methyl acetate ! corrected kevo, 01/08
   CG331    CG2O2    OG302    CG311     9   180.000000     8.577200     2 ; LIPID methyl acetate
   CG331    CG2O2    OG302    CG321     9   180.000000     8.577200     2 ; LIPID methyl acetate
   CG331    CG2O2    OG302    CG331     9   180.000000     8.577200     2 ; LIPID methyl acetate ! corrected kevo, 01/08
   OG2D1    CG2O2    OG302    CG301     9   180.000000     4.037560     1 ; AMGT, Alpha Methyl Gamma Tert Butyl Glu Acid CDCA Amide !cacha,corrected kevo, 01/08
   OG2D1    CG2O2    OG302    CG301     9   180.000000    16.108400     2 ; AMGT, Alpha Methyl Gamma Tert Butyl Glu Acid CDCA Amide !cacha,corrected kevo, 01/08
   OG2D1    CG2O2    OG302    CG311     9   180.000000     4.037560     1 ; LIPID methyl acetate
   OG2D1    CG2O2    OG302    CG311     9   180.000000    16.108400     2 ; LIPID methyl acetate
   OG2D1    CG2O2    OG302    CG321     9   180.000000     4.037560     1 ; LIPID methyl acetate
   OG2D1    CG2O2    OG302    CG321     9   180.000000    16.108400     2 ; LIPID methyl acetate
   OG2D1    CG2O2    OG302    CG331     9   180.000000     4.037560     1 ; LIPID methyl acetate
   OG2D1    CG2O2    OG302    CG331     9   180.000000    16.108400     2 ; LIPID methyl acetate ! corrected kevo, 01/08
   CG321    CG2O2    OG303      PG1     9   180.000000    12.682541     1 ; PHDP, by ac_aa
   CG321    CG2O2    OG303      PG1     9   180.000000     1.702470     2 ; PHDP, by ac_aa
   CG321    CG2O2    OG303      PG2     9   180.000000     3.090302     2 ; PHD, by ac_aa
   OG2D1    CG2O2    OG303      PG1     9     0.000000     0.508774     1 ; PHDP, by ac_aa
   OG2D1    CG2O2    OG303      PG1     9   180.000000    14.045270     2 ; PHDP, by ac_aa
   OG2D1    CG2O2    OG303      PG2     9   180.000000     5.581456     1 ; PHD, by ac_aa
   OG2D1    CG2O2    OG303      PG2     9   180.000000    16.179946     2 ; PHD, by ac_aa
  CG2DC1    CG2O2    OG311     HGP1     9   180.000000     4.077308     1 ; DYAP, by ac_aa
  CG2DC1    CG2O2    OG311     HGP1     9   180.000000    11.276298     2 ; DYAP, by ac_aa
  CG2DC1    CG2O2    OG311     HGP1     9   180.000000     0.332628     3 ; DYAP, by ac_aa
  CG2DC1    CG2O2    OG311     HGP1     9   180.000000     0.775714     6 ; DYAP, by ac_aa
  CG2DC2    CG2O2    OG311     HGP1     9   180.000000     4.077308     1 ; DYAP, by ac_aa
  CG2DC2    CG2O2    OG311     HGP1     9   180.000000    11.276298     2 ; DYAP, by ac_aa
  CG2DC2    CG2O2    OG311     HGP1     9   180.000000     0.332628     3 ; DYAP, by ac_aa
  CG2DC2    CG2O2    OG311     HGP1     9   180.000000     0.775714     6 ; DYAP, by ac_aa
  CG2R61    CG2O2    OG311     HGP1     9   180.000000     4.079400     1 ; ZOIC, benzoic acid, jal
  CG2R61    CG2O2    OG311     HGP1     9   180.000000    11.296800     2 ; ZOIC, benzoic acid, jal
  CG2R61    CG2O2    OG311     HGP1     9   180.000000     0.209200     3 ; ZOIC, benzoic acid, jal
  CG2R61    CG2O2    OG311     HGP1     9   180.000000     1.046000     6 ; ZOIC, benzoic acid, jal
   CG311    CG2O2    OG311     HGP1     9   180.000000     8.577200     2 ; drug design project, xxwy
   CG321    CG2O2    OG311     HGP1     9   180.000000     8.577200     2 ; PROT adm jr, 10/17/90, acetic Acid C-Oh rotation barrier
   CG331    CG2O2    OG311     HGP1     9   180.000000     8.577200     2 ; PROT adm jr, 10/17/90, acetic Acid C-Oh rotation barrier
   OG2D1    CG2O2    OG311     HGP1     9   180.000000     8.577200     2 ; PROT adm jr, 10/17/90, acetic Acid C-Oh rotation barrier
   HGR52    CG2O2    OG311     HGP1     9   180.000000    14.434800     2 ; FORH, formic acid, xxwy
  CG2R61    CG2O2    SG311    CG321     9   180.000000     2.228817     2 ; JJJ, by ac_aa
  CG2R61    CG2O2    SG311    CG321     9     0.000000     2.176098     3 ; JJJ, by ac_aa
   CG321    CG2O2    SG311    CG321     9     0.000000     3.545522     1 ; MCS, by ac_aa
   CG321    CG2O2    SG311    CG321     9   180.000000     1.137630     2 ; MCS, by ac_aa
   CG321    CG2O2    SG311    CG321     9     0.000000     1.579042     3 ; MCS, by ac_aa
   CG321    CG2O2    SG311    CG321     9   180.000000     2.821271     4 ; MCS, by ac_aa
   CG321    CG2O2    SG311    CG321     9     0.000000     2.447222     6 ; MCS, by ac_aa
   CG321    CG2O2    SG311    CG331     9   180.000000     6.229558     1 ; CYG, by ac_aa
   CG321    CG2O2    SG311    CG331     9   180.000000     7.723664     2 ; CYG, by ac_aa
   CG331    CG2O2    SG311    CG321     9     0.000000     2.490735     1 ; CYG, by ac_aa
   CG331    CG2O2    SG311    CG321     9   180.000000    12.245313     2 ; CYG, by ac_aa
   OG2D1    CG2O2    SG311    CG321     9     0.000000     0.061923     1 ; MCS, by ac_aa
   OG2D1    CG2O2    SG311    CG321     9   180.000000     9.651233     2 ; MCS, by ac_aa
   OG2D1    CG2O2    SG311    CG321     9   180.000000     0.549359     3 ; MCS, by ac_aa
   OG2D1    CG2O2    SG311    CG331     9   180.000000     8.414442     1 ; CYG, by ac_aa
   OG2D1    CG2O2    SG311    CG331     9   180.000000    13.961171     2 ; CYG, by ac_aa
   OG2D2    CG2O3    CG2O5   CG2R61     9   180.000000     1.255200     2 ; BIPHENYL ANALOGS unmodified, peml
   OG2D2    CG2O3    CG2O5    CG321     9     0.000000     1.100810     2 ; 26P, by ac_aa
   OG2D2    CG2O3    CG2O5    OG2D3     9   180.000000     1.255200     2 ; BIPHENYL ANALOGS unmodified, peml
   OG2D2    CG2O3   CG2R61   CG2R61     9   180.000000    12.970400     2 ; BIPHENYL ANALOGS, peml
   OG2D2    CG2O3    CG301    CG331     9   180.000000     0.209200     6 ; AMOL, alpha-methoxy-lactic acid, og
   OG2D2    CG2O3    CG301    OG301     9   180.000000     2.301200     2 ; AMOL, alpha-methoxy-lactic acid, og
   OG2D2    CG2O3    CG301    OG303     9   180.000000     2.301200     2 ; from OG2D2 CG2O3 CG301 OG301, PENALTY= 3 QPA
   OG2D2    CG2O3    CG301    OG311     9   180.000000     4.644240     2 ; AMOL, alpha-methoxy-lactic acid, og
   OG2D2    CG2O3    CG301    SG311     9   180.000000    13.981254     1 ; QPA, by ac_aa
   OG2D2    CG2O3    CG301    SG311     9   180.000000     3.218751     2 ; QPA, by ac_aa
   OG2D2    CG2O3    CG301    SG311     9     0.000000    28.660818     3 ; QPA, by ac_aa
   OG2D2    CG2O3    CG311    CG2O1     9     0.000000     0.021757     1 ; FGL, by ac_aa
   OG2D2    CG2O3    CG311    CG2O1     9   180.000000     1.765648     2 ; FGL, by ac_aa
   OG2D2    CG2O3    CG311    CG2O1     9   180.000000     0.160247     3 ; FGL, by ac_aa
   OG2D2    CG2O3    CG311    CG2O2     9   180.000000     1.585736     2 ; CGUH, by ac_aa
   OG2D2    CG2O3    CG311    CG2O3     9   180.000000    35.735544     1 ; CGU, by ac_aa
   OG2D2    CG2O3    CG311    CG2O3     9   180.000000     0.789102     2 ; CGU, by ac_aa
   OG2D2    CG2O3    CG311    CG2O3     9     0.000000    12.524386     3 ; CGU, by ac_aa
   OG2D2    CG2O3    CG311   CG2R61     9     0.000000     0.000000     1 ; FBIF, Fatty acid Binding protein Inhibitor F, cacha. Was 3.1 2 180 ==> reset by kevo. re-optimize!!!
   OG2D2    CG2O3    CG311   CG2R62     9   180.000000    12.970400     2 ; HCU, from OG2D2 CG2O3 CG311 CG2R61, yxu, RNA
   OG2D2    CG2O3    CG311    CG311     9   180.000000     0.209200     6 ; PROT C-terminal AA - standard parameter
   OG2D2    CG2O3    CG311    CG321     9   180.000000     0.209200     6 ; PROT For side chains of asp,asn,glu,gln, (n=6) from KK(LK)
   OG2D2    CG2O3    CG311    CG331     9   180.000000     0.209200     6 ; deleteme DELETEME (we want to use wildcarting)
   OG2D2    CG2O3    CG311   NG2R53     9     0.000000     0.000000     1 ; drug design project, xxwy
   OG2D2    CG2O3    CG311    NG2S1     9   180.000000     0.000000     6 ; GA, Glut Acid CDCA Amide, cacha
   OG2D2    CG2O3    CG311    OG301     9   180.000000     2.301200     2 ; og amop mp2/ccpvtz
   OG2D2    CG2O3    CG311    OG302     9   180.000000     2.301200     2 ; from OG2D2 CG2O3 CG311 OG301, PENALTY= 0.5 ASL
   OG2D2    CG2O3    CG311    OG311     9   180.000000     3.556400     2 ; HCU, yxu, 17/4,13, RNA
   OG2D2    CG2O3    CG311    SG311     9     0.000000     9.882190     1 ; CML, by ac_aa
   OG2D2    CG2O3    CG311    SG311     9   180.000000     2.545127     2 ; 0TD, by ac_aa
   OG2D2    CG2O3    CG311     HGA1     9   180.000000     0.209200     6 ; PROT For side chains of asp,asn,glu,gln, (n=6) from KK(LK)
   OG2D2    CG2O3    CG314   CG2R51     9     0.000000     0.000000     1 ; from OG2D2 CG2O3 CG311 CG2R61, PENALTY= 9.5 143
   OG2D2    CG2O3    CG314    CG302     9     0.000000     3.672297     3 ; FLA, by ac_aa
   OG2D2    CG2O3    CG314    CG302     9     0.000000     2.185722     4 ; FLA, by ac_aa
   OG2D2    CG2O3    CG314    CG311     9   180.000000     0.209200     6 ; PROT For side chains of asp,asn,glu,gln, (n=6) from KK(LK)
   OG2D2    CG2O3    CG314    CG321     9   180.000000     0.209200     6 ; PROT For side chains of asp,asn,glu,gln, (n=6) from KK(LK)
   OG2D2    CG2O3    CG314    CG331     9   180.000000     0.209200     6 ; PROT For side chains of asp,asn,glu,gln, (n=6) from KK(LK)
   OG2D2    CG2O3    CG314   CG3C51     9   180.000000     0.209200     6 ; from OG2D2 CG2O3 CG314 CG321, PENALTY= 10 5CS
   OG2D2    CG2O3    CG314    NG3P3     9   180.000000    13.388800     2 ; PROT adm jr. 4/17/94, zwitterionic glycine
   OG2D2    CG2O3    CG314     HGA1     9   180.000000     0.209200     6 ; PROT For side chains of asp,asn,glu,gln, (n=6) from KK(LK)
   OG2D2    CG2O3    CG321    CG2O2     9   180.000000     3.469373     1 ; MCS, by ac_aa
   OG2D2    CG2O3    CG321    CG2O2     9   180.000000     2.379022     2 ; MCS, by ac_aa
   OG2D2    CG2O3    CG321    CG2O2     9   180.000000     6.267214     3 ; MCS, by ac_aa
   OG2D2    CG2O3    CG321   CG2R61     9   180.000000     2.510400     2 ; bzac, yxu, RNA
   OG2D2    CG2O3    CG321   CG2R61     9     0.000000     0.418400     4 ; bzac, yxu, RNA
   OG2D2    CG2O3    CG321   CG2R62     9   180.000000     2.510400     2 ; 5CU, from bzac, yxu, RNA
   OG2D2    CG2O3    CG321   CG2R62     9     0.000000     0.418400     4 ; 5CU, from bzac, yxu, RNA
   OG2D2    CG2O3    CG321    CG311     9   180.000000     0.209200     6 ; PROT For side chains of asp,asn,glu,gln, (n=6) from KK(LK)
   OG2D2    CG2O3    CG321    CG314     9   180.000000     0.209200     6 ; PROT For side chains of asp,asn,glu,gln, (n=6) from KK(LK)
   OG2D2    CG2O3    CG321    CG321     9   180.000000     0.209200     6 ; PROT For side chains of asp,asn,glu,gln, (n=6) from KK(LK)
   OG2D2    CG2O3    CG321    CG331     9   180.000000     0.209200     6 ; PROT For side chains of asp,asn,glu,gln, (n=6) from KK(LK)
   OG2D2    CG2O3    CG321    NG2S1     9   180.000000     0.209200     6 ; GCA, Glycocholic Acid, cacha, 03/06
   OG2D2    CG2O3    CG321    OG301     9   180.000000     5.355520     2 ; OAU, yxu, RNA
   OG2D2    CG2O3    CG321    OG302     9   180.000000     2.301200     2 ; from OG2D2 CG2O3 CG311 OG301, penalty= 4.5 ASB
   OG2D2    CG2O3    CG321    SG311     9   180.000000     4.394455     2 ; CCS, by ac_aa
   OG2D2    CG2O3    CG321     HGA2     9   180.000000     0.209200     6 ; PROT For side chains of asp,asn,glu,gln, (n=6) from KK(LK)
   OG2D2    CG2O3    CG322    CG321     9     0.000000     0.816298     2 ; FGA4, by ac_aa
   OG2D2    CG2O3    CG322     FGA1     9   180.000000     3.391969     2 ; FGA4, by ac_aa
   OG2D2    CG2O3    CG322     HGA6     9   180.000000     0.302922     2 ; FGA4, by ac_aa
   OG2D2    CG2O3    CG324    NG3P2     9   180.000000    12.133600     2 ; 5DU, yxu, RNA
   OG2D2    CG2O3    CG324    NG3P3     9   180.000000    13.388800     2 ; PROT adm jr. 4/17/94, zwitterionic glycine
   OG2D2    CG2O3    CG324     HGA2     9   180.000000     0.209200     6 ; PROT For side chains of asp,asn,glu,gln, (n=6) from KK(LK)
   OG2D2    CG2O3    CG331     HGA3     9   180.000000     0.209200     6 ; PROT For side chains of asp,asn,glu,gln, (n=6) from KK(LK)
   OG2D2    CG2O3   CG3C51   CG3C52     9     0.000000     0.669440     3 ; PROT AcProNH2, ProNH2, AcProNHCH3 RLD 4/23/93
   OG2D2    CG2O3   CG3C51    NG2S0     9     0.000000     0.669440     3 ; PROT AcProNH2, ProNH2, AcProNHCH3 RLD 4/23/93
   OG2D2    CG2O3   CG3C51     HGA1     9     0.000000     0.669440     3 ; PROT AcProNH2, ProNH2, AcProNHCH3 RLD 4/23/93
   OG2D2    CG2O3   CG3C53   CG3C52     9     0.000000     0.669440     3 ; PROT AcProNH2, ProNH2, AcProNHCH3 RLD 4/23/93
   OG2D2    CG2O3   CG3C53    NG3P2     9     0.000000     0.669440     3 ; PROT AcProNH2, ProNH2, AcProNHCH3 RLD 4/23/93
   OG2D2    CG2O3   CG3C53     HGA1     9     0.000000     0.669440     3 ; PROT AcProNH2, ProNH2, AcProNHCH3 RLD 4/23/93
   OG2D2    CG2O3    NG2S1    CG311     9   180.000000     7.522414     2 ; CXM, by ac_aa
   OG2D2    CG2O3    NG2S1    CG321     9     0.000000     6.496915     1 ; KCX, by ac_aa
   OG2D2    CG2O3    NG2S1    CG321     9   180.000000     8.929911     2 ; KCX, by ac_aa
   OG2D2    CG2O3    NG2S1    CG321     9     0.000000     2.026730     3 ; KCX, by ac_aa
   OG2D2    CG2O3    NG2S1    CG321     9     0.000000     0.509193     6 ; KCX, by ac_aa
   OG2D2    CG2O3    NG2S1     HGP1     9   180.000000     2.736754     1 ; KCX, by ac_aa
   OG2D2    CG2O3    NG2S1     HGP1     9     0.000000     0.971943     3 ; KCX, by ac_aa
   OG2D1    CG2O4   CG2R61   CG2R61     9   180.000000     4.518720     2 ; ALDEHYDE benzaldehyde unmodified
   HGR52    CG2O4   CG2R61   CG2R61     9   180.000000     4.518720     2 ; ALDEHYDE benzaldehyde unmodified
   OG2D1    CG2O4   CG2R62   CG2R62     9   180.000000     4.518720     2 ; 5FC, yxu, RNA
   OG2D1    CG2O4   CG2R62   CG2R64     9   180.000000    10.878400     1 ; 5FC, yxu, RNA
   OG2D1    CG2O4   CG2R62   CG2R64     9   180.000000     7.531200     2 ; 5FC, yxu, RNA
   HGR52    CG2O4   CG2R62   CG2R62     9   180.000000     4.518720     2 ; 5FC, yxu, RNA
   HGR52    CG2O4   CG2R62   CG2R64     9   180.000000     6.276000     2 ; 5FC, yxu, RNA
   OG2D1    CG2O4    CG311    CG311     9   180.000000     4.393200     1 ; amba, from OG2D1 CG2O4 CG321 CG331, not optimized, yxu, RNA
   OG2D1    CG2O4    CG311    CG311     9   180.000000     1.673600     2 ; amba, from OG2D1 CG2O4 CG321 CG331, not optimized, yxu, RNA
   OG2D1    CG2O4    CG311    CG311     9   180.000000     2.510400     3 ; amba, from OG2D1 CG2O4 CG321 CG331, not optimized, yxu, RNA
   OG2D1    CG2O4    CG311    CG311     9   180.000000     0.418400     4 ; amba, from OG2D1 CG2O4 CG321 CG331, not optimized, yxu, RNA
   OG2D1    CG2O4    CG311    CG321     9   180.000000     4.393200     1 ; from OG2D1 CG2O4 CG321 CG331, PENALTY= 4.9 LED
   OG2D1    CG2O4    CG311    CG321     9   180.000000     1.673600     2 ; from OG2D1 CG2O4 CG321 CG331, PENALTY= 4.9 LED
   OG2D1    CG2O4    CG311    CG321     9   180.000000     2.510400     3 ; from OG2D1 CG2O4 CG321 CG331, PENALTY= 4.9 LED
   OG2D1    CG2O4    CG311    CG321     9   180.000000     0.418400     4 ; from OG2D1 CG2O4 CG321 CG331, PENALTY= 4.9 LED
   OG2D1    CG2O4    CG311    CG331     9   180.000000     4.393200     1 ; from OG2D1 CG2O4 CG321 CG331, PENALTY= 4 LED LVN
   OG2D1    CG2O4    CG311    CG331     9   180.000000     1.673600     2 ; from OG2D1 CG2O4 CG321 CG331, PENALTY= 4 LED LVN
   OG2D1    CG2O4    CG311    CG331     9   180.000000     2.510400     3 ; from OG2D1 CG2O4 CG321 CG331, PENALTY= 4 LED LVN
   OG2D1    CG2O4    CG311    CG331     9   180.000000     0.418400     4 ; from OG2D1 CG2O4 CG321 CG331, PENALTY= 4 LED LVN
   OG2D1    CG2O4    CG311    NG2S1     9     0.000000     0.000000     1 ; amba, from OG2D1 CG2O2 CG311 NG2S1, not optimized, yxu, RNA
   OG2D1    CG2O4    CG311     HGA1     9   180.000000     0.000000     3 ; amba, from OG2D1 CG2O4 CG321 HGA2, not optimized, yxu, RNA
   HGR52    CG2O4    CG311    CG311     9   180.000000     0.000000     3 ; amba, from HGR52 CG2O4 CG321 CG331, not optimized, yxu, RNA
   HGR52    CG2O4    CG311    CG321     9   180.000000     0.000000     3 ; from HGR52 CG2O4 CG321 CG331, PENALTY= 4.9 LED
   HGR52    CG2O4    CG311    CG331     9   180.000000     0.000000     3 ; from HGR52 CG2O4 CG321 CG331, PENALTY= 4 LED LVN
   HGR52    CG2O4    CG311    NG2S1     9   180.000000     0.000000     3 ; amba, from HGR52 CG2O4 CG321 CG331, not optimized, yxu, RNA
   HGR52    CG2O4    CG311     HGA1     9   180.000000     0.000000     3 ; amba, from HGR52 CG2O4 CG321 HGA2, not optimized, yxu, RNA
   OG2D1    CG2O4    CG321    CG331     9   180.000000     4.393200     1 ; ALDEHYDE propionaldehyde unmodified
   OG2D1    CG2O4    CG321    CG331     9   180.000000     1.673600     2 ; ALDEHYDE propionaldehyde unmodified
   OG2D1    CG2O4    CG321    CG331     9   180.000000     2.510400     3 ; ALDEHYDE propionaldehyde unmodified
   OG2D1    CG2O4    CG321    CG331     9   180.000000     0.418400     4 ; ALDEHYDE propionaldehyde unmodified
   OG2D1    CG2O4    CG321   NG2R51     9   180.000000     6.010316     1 ; C12, by ac_aa
   OG2D1    CG2O4    CG321   NG2R51     9   180.000000     6.037930     2 ; C12, by ac_aa
   OG2D1    CG2O4    CG321    CLGA1     9     0.000000     0.418400     1 ; ALDEHYDE chloracetaldehyde unmodified
   OG2D1    CG2O4    CG321    CLGA1     9   180.000000     4.184000     2 ; ALDEHYDE chloracetaldehyde unmodified
   OG2D1    CG2O4    CG321    CLGA1     9   180.000000     2.301200     3 ; ALDEHYDE chloracetaldehyde unmodified
   OG2D1    CG2O4    CG321     HGA2     9   180.000000     0.000000     3 ; PALD, Propionaldehyde, PROT adm jr. 3/19/92, from lipid methyl acetate (unmodified because this may not be analogous to AALD)
   HGR52    CG2O4    CG321    CG331     9   180.000000     0.000000     3 ; PALD, Propionaldehyde, PROT adm jr. 3/19/92, from lipid methyl acetate unmodified
   HGR52    CG2O4    CG321   NG2R51     9     0.000000     2.478602     3 ; C12, by ac_aa
   HGR52    CG2O4    CG321    CLGA1     9   180.000000     0.000000     3 ; CALD, Chloroacetaldehyde, PROT adm jr. 3/19/92, from lipid methyl acetate unmodified
   HGR52    CG2O4    CG321     HGA2     9   180.000000     0.000000     3 ; acetaldehyde, adm 11/08
   OG2D1    CG2O4    CG331     HGA3     9   180.000000     0.836800     3 ; AALD, acetaldehyde, adm 11/08
   HGR52    CG2O4    CG331     HGA3     9   180.000000     0.000000     3 ; acetaldehyde, adm 11/08
  CG3C41    CG2O4   CG3C41   OG3C51     9     0.000000     0.398735     3 ; 3OXT, ozyo
  CG3C41    CG2O4   CG3C41     HGA2     9   180.000000     0.146440     3 ; 3OXT, ozyo
   OG2D1    CG2O4   CG3C41   CG3C41     9     0.000000     0.416308     2 ; 2OXT, ozyo, 04/19
   OG2D1    CG2O4   CG3C41     HGA2     9   180.000000     1.907067     3 ; 2OXT, ozyo, 04/19
   OG2D3    CG2O4   CG3C41   OG3C51     9     0.000000     0.736802     2 ; 3OXT, ozyo
   OG2D3    CG2O4   CG3C41     HGA2     9     0.000000     0.948931     3 ; 3OXT, ozyo
  OG3C51    CG2O4   CG3C41   CG3C41     9   180.000000     0.429278     3 ; 2OXT, ozyo, 04/19
  OG3C51    CG2O4   CG3C41     HGA2     9   180.000000     0.511703     3 ; 2OXT, ozyo, 04/19
  CG3C41    CG2O4   OG3C51   CG3C41     9   180.000000     0.764835     2 ; 2OXT, ozyo, 04/19
   OG2D1    CG2O4   OG3C51   CG3C41     9     0.000000     0.162758     2 ; 2OXT, ozyo, 04/19
  CG2DC1    CG2O5    CG2O5   CG2R51     9   180.000000     0.001255     2 ; TRQ, by ac_aa
  CG2DC1    CG2O5    CG2O5    OG2D3     9   180.000000     0.100834     2 ; TRQ, by ac_aa
  CG2DC2    CG2O5    CG2O5   CG2R51     9   180.000000     0.001255     2 ; TRQ, by ac_aa
  CG2DC2    CG2O5    CG2O5    OG2D3     9   180.000000     0.100834     2 ; TRQ, by ac_aa
  CG2R51    CG2O5    CG2O5    OG2D3     9   180.000000     0.028870     2 ; TRQ, by ac_aa
   OG2D3    CG2O5    CG2O5    OG2D3     9   180.000000     0.977382     2 ; TRQ, by ac_aa
  CG2DC1    CG2O5   CG2R51   CG2R51     9   180.000000     0.154390     2 ; sb_ot 2021, from CG2DC2 CG2O5  CG2R51 CG2R51
  CG2DC1    CG2O5   CG2R51   NG2R51     9   180.000000     6.632895     2 ; sb_ot 2021, from CG2DC2 CG2O5  CG2R51 NG2R51
  CG2DC2    CG2O5   CG2R51   CG2R51     9   180.000000     0.154390     2 ; sb_ot 2021, from CG2DC2 CG2O5  CG2R51 CG2R51
  CG2DC2    CG2O5   CG2R51   NG2R51     9   180.000000     6.632895     2 ; sb_ot 2021, from CG2DC2 CG2O5  CG2R51 NG2R51
   CG2O5    CG2O5   CG2R51   CG2R51     9   180.000000     0.091630     2 ; TRQ, by ac_aa
   CG2O5    CG2O5   CG2R51   NG2R51     9   180.000000     7.150456     2 ; TRQ, by ac_aa
   OG2D3    CG2O5   CG2R51   CG2R51     9   180.000000     4.571020     2 ; TRQ, by ac_aa
   OG2D3    CG2O5   CG2R51   NG2R51     9   180.000000     7.993114     2 ; TRQ, by ac_aa
   CG2O3    CG2O5   CG2R61   CG2R61     9   180.000000     6.631640     2 ; BIPHENYL ANALOGS unmodified, peml; verified by mcs
  CG2R61    CG2O5   CG2R61   CG2R61     9   180.000000     3.792796     2 ; PBF, by ac_aa
   CG311    CG2O5   CG2R61   CG2R61     9   180.000000     6.631640     2 ; BIPHENYL ANALOGS unmodified, peml
   CG321    CG2O5   CG2R61   CG2R61     9   180.000000     1.129680     2 ; PHEK, phenyl ethyl ketone, mcs
   CG331    CG2O5   CG2R61   CG2R61     9   180.000000     1.046000     2 ; PHMK, phenyl methyl ketone, mcs
   OG2D3    CG2O5   CG2R61   CG2R61     9   180.000000     6.631640     2 ; BIPHENYL ANALOGS unmodified, peml; verified by mcs
  CG2R61    CG2O5    CG311    OG311     9   180.000000     0.000000     2 ; BIPHENYL ANALOGS unmodified, peml
  CG2R61    CG2O5    CG311    OG312     9     0.000000     0.000000     2 ; BIPHENYL ANALOGS unmodified, peml
  CG2R61    CG2O5    CG311     HGA1     9   180.000000     0.000000     1 ; BIPHENYL ANALOGS unmodified, peml
   OG2D3    CG2O5    CG311    OG311     9     0.000000     0.000000     2 ; reverted to BIPHENYL ANALOGS unmodified, peml
   OG2D3    CG2O5    CG311    OG312     9   180.000000     0.000000     2 ; reverted to BIPHENYL ANALOGS unmodified, peml
   OG2D3    CG2O5    CG311     HGA1     9     0.000000     0.000000     1 ; PROT Alanine Dipeptide ab initio calc's (LK) unmodified
   CG2O3    CG2O5    CG321    CG321     9   180.000000     2.128819     1 ; 26P, by ac_aa
   CG2O3    CG2O5    CG321    CG321     9     0.000000     0.503754     2 ; 26P, by ac_aa
   CG2O3    CG2O5    CG321    CG321     9     0.000000     0.238906     3 ; 26P, by ac_aa
   CG2O3    CG2O5    CG321     HGA2     9   180.000000     0.026359     3 ; 26P, by ac_aa
  CG2R61    CG2O5    CG321    CG331     9     0.000000     1.673600     1 ; PHEK, phenyl ethyl ketone, mcs
  CG2R61    CG2O5    CG321    CG331     9   180.000000     0.711280     2 ; PHEK, phenyl ethyl ketone, mcs
  CG2R61    CG2O5    CG321    CG331     9   180.000000     0.543920     3 ; PHEK, phenyl ethyl ketone, mcs
  CG2R61    CG2O5    CG321    CG331     9   180.000000     0.418400     6 ; PHEK, phenyl ethyl ketone, mcs
  CG2R61    CG2O5    CG321     HGA2     9     0.000000     0.418400     3 ; PHEK, phenyl ethyl ketone; from 3ACP, 3-acetylpyridine; mcs
   CG321    CG2O5    CG321    CG321     9     0.000000     3.138000     1 ; CHON, cyclohexanone; from BTON, butanone; yapol
   CG321    CG2O5    CG321    CG321     9   180.000000     0.753120     2 ; CHON, cyclohexanone; from BTON, butanone; yapol
   CG321    CG2O5    CG321    CG321     9     0.000000     0.271960     3 ; CHON, cyclohexanone; from BTON, butanone; yapol
   CG321    CG2O5    CG321    CG321     9     0.000000     0.125520     6 ; CHON, cyclohexanone; from BTON, butanone; yapol
   CG321    CG2O5    CG321    SG311     9     0.000000     6.885190     1 ; from CG331 CG2O5 CG321 SG311, CYD
   CG321    CG2O5    CG321    SG311     9   180.000000     3.999904     2 ; from CG331 CG2O5 CG321 SG311, CYD
   CG321    CG2O5    CG321    SG311     9     0.000000     0.558146     3 ; from CG331 CG2O5 CG321 SG311, CYD
   CG321    CG2O5    CG321     HGA2     9     0.000000     0.418400     3 ; CHON, cyclohexanone; from ACO, acetone; yapol
   CG331    CG2O5    CG321    CG321     9     0.000000     3.138000     1 ; from CG331 CG2O5 CG321 CG331, PENALTY= 0.9 ONL
   CG331    CG2O5    CG321    CG321     9   180.000000     0.753120     2 ; from CG331 CG2O5 CG321 CG331, PENALTY= 0.9 ONL
   CG331    CG2O5    CG321    CG321     9     0.000000     0.271960     3 ; from CG331 CG2O5 CG321 CG331, PENALTY= 0.9 ONL
   CG331    CG2O5    CG321    CG321     9     0.000000     0.125520     6 ; from CG331 CG2O5 CG321 CG331, PENALTY= 0.9 ONL
   CG331    CG2O5    CG321    CG331     9     0.000000     3.138000     1 ; BTON, butanone, yapol
   CG331    CG2O5    CG321    CG331     9   180.000000     0.753120     2 ; BTON, butanone, yapol
   CG331    CG2O5    CG321    CG331     9     0.000000     0.271960     3 ; BTON, butanone, yapol
   CG331    CG2O5    CG321    CG331     9     0.000000     0.125520     6 ; BTON, butanone, yapol
   CG331    CG2O5    CG321    SG311     9     0.000000     6.885190     1 ; CSA, by ac_aa
   CG331    CG2O5    CG321    SG311     9   180.000000     3.999904     2 ; CYD, by ac_aa
   CG331    CG2O5    CG321    SG311     9     0.000000     0.558146     3 ; CSA, by ac_aa
   CG331    CG2O5    CG321     HGA2     9     0.000000     0.418400     3 ; BTON, butanone; from ACO, acetone; yapol
   OG2D3    CG2O5    CG321    CG321     9   180.000000     3.138000     1 ; CHON, cyclohexanone; from BTON, butanone; yapol
   OG2D3    CG2O5    CG321    CG321     9   180.000000     0.753120     2 ; CHON, cyclohexanone; from BTON, butanone; yapol
   OG2D3    CG2O5    CG321    CG321     9   180.000000     0.271960     3 ; CHON, cyclohexanone; from BTON, butanone; yapol
   OG2D3    CG2O5    CG321    CG321     9     0.000000     0.125520     6 ; CHON, cyclohexanone; from BTON, butanone; yapol
   OG2D3    CG2O5    CG321    CG331     9   180.000000     3.138000     1 ; BTON, butanone, yapol
   OG2D3    CG2O5    CG321    CG331     9   180.000000     0.753120     2 ; BTON, butanone, yapol
   OG2D3    CG2O5    CG321    CG331     9   180.000000     0.271960     3 ; BTON, butanone, yapol
   OG2D3    CG2O5    CG321    CG331     9     0.000000     0.125520     6 ; BTON, butanone, yapol
   OG2D3    CG2O5    CG321    SG311     9   180.000000     0.034309     2 ; CYD, by ac_aa
   OG2D3    CG2O5    CG321    SG311     9   180.000000     0.823411     3 ; CYD, by ac_aa
   OG2D3    CG2O5    CG321     HGA2     9     0.000000     0.000000     3 ; BTON, butanone; from ACO, acetone; yapol
  CG2DC1    CG2O5    CG331     HGA3     9     0.000000     0.418400     3 ; BEON, butenone; from ACO, acetone; mcs
  CG2DC2    CG2O5    CG331     HGA3     9     0.000000     0.418400     3 ; BEON, butenone; from ACO, acetone; mcs
  CG2R61    CG2O5    CG331     HGA3     9     0.000000     0.418400     3 ; 3ACP, 3-acetylpyridine; reset by kevo to ketone, RIMP2/cc-pVTZ//MP2/6-31G(d), adm 11/08
   CG321    CG2O5    CG331     HGA3     9     0.000000     0.418400     3 ; BTON, butanone; from ACO, acetone; yapol
   CG331    CG2O5    CG331     HGA3     9     0.000000     0.418400     3 ; ketone, RIMP2/cc-pVTZ//MP2/6-31G(d), adm 11/08
   OG2D3    CG2O5    CG331     HGA3     9     0.000000     0.000000     3 ; 3ACP, ACO; ketone, RIMP2/cc-pVTZ//MP2/6-31G(d), adm 11/08
   NG2S1    CG2O6    NG2D1   CG2R64     9   180.000000     7.865920     2 ; flavin
   OG2D1    CG2O6    NG2D1   CG2R64     9   180.000000    13.472480     2 ; flavin
   NG2S1    CG2O6   NG2R51   CG2R51     9   180.000000     5.983120     2 ; TICA model for D3R, xxwy
   NG2S1    CG2O6   NG2R51   CG2R51     9     0.000000     0.753120     4 ; TICA model for D3R, xxwy
   OG2D1    CG2O6   NG2R51   CG2R51     9   180.000000     5.983120     2 ; TICA model for D3R, xxwy
   OG2D1    CG2O6   NG2R51   CG2R51     9     0.000000     0.753120     4 ; TICA model for D3R, xxwy
   NG2S1    CG2O6    NG2S0   CG2R61     9   180.000000     5.439200     2 ; pmmu, yxu, RNA
   NG2S1    CG2O6    NG2S0   CG2R64     9   180.000000     5.439200     2 ; 66A, from pmmu, yxu, RNA
   NG2S1    CG2O6    NG2S0    CG321     9   180.000000     0.836800     2 ; H2U, yxu, RNA
   NG2S1    CG2O6    NG2S0    CG331     9   180.000000     8.368000     2 ; mmmu, yxu, RNA
   OG2D1    CG2O6    NG2S0   CG2R61     9   180.000000     5.439200     2 ; pmmu, yxu, RNA
   OG2D1    CG2O6    NG2S0   CG2R64     9   180.000000     5.439200     2 ; 66A, from pmmu, yxu, RNA
   OG2D1    CG2O6    NG2S0    CG321     9   180.000000    11.715200     2 ; H2U, yxu, RNA
   OG2D1    CG2O6    NG2S0    CG331     9   180.000000     9.623200     2 ; mmmu, yxu, RNA
   OG302    CG2O6    NG2S0    CG321     9   180.000000    16.736000     2 ; from OG302 CG2O6 NG2S1 CG321, PENALTY= 10 BXT
   OG302    CG2O6    NG2S0    CG321     9     0.000000     3.974800     4 ; from OG302 CG2O6 NG2S1 CG321, PENALTY= 10 BXT
   OG302    CG2O6    NG2S0    CG331     9   180.000000    16.736000     2 ; from OG302 CG2O6 NG2S1 CG331, PENALTY= 10 BXT
   OG302    CG2O6    NG2S0    CG331     9     0.000000     3.974800     4 ; from OG302 CG2O6 NG2S1 CG331, PENALTY= 10 BXT
   NG2D1    CG2O6    NG2S1    CG2O1     9   180.000000     0.920480     2 ; flavin
   NG2D1    CG2O6    NG2S1     HGP1     9   180.000000     4.560560     2 ; flavin
  NG2R51    CG2O6    NG2S1    CG331     9   180.000000    33.472000     2 ; TICA model for D3R, xxwy
  NG2R51    CG2O6    NG2S1    CG331     9     0.000000     3.974800     4 ; TICA model for D3R, xxwy
  NG2R51    CG2O6    NG2S1     HGP1     9   180.000000    16.736000     2 ; TICA model for D3R, xxwy
   NG2S0    CG2O6    NG2S1    CG2O1     9   180.000000     5.439200     2 ; H2U, yxu, RNA
   NG2S0    CG2O6    NG2S1    CG311     9   180.000000     5.020800     1 ; 66A, from mmmu, yxu, RNA
   NG2S0    CG2O6    NG2S1    CG311     9   180.000000     6.276000     2 ; 66A, from mmmu, yxu, RNA
   NG2S0    CG2O6    NG2S1    CG331     9   180.000000     5.020800     1 ; mmmu, yxu, RNA
   NG2S0    CG2O6    NG2S1    CG331     9   180.000000     6.276000     2 ; mmmu, yxu, RNA
   NG2S0    CG2O6    NG2S1     HGP1     9   180.000000     3.765600     2 ; H2U, yxu, RNA
   NG2S1    CG2O6    NG2S1   CG2R61     9   180.000000     6.694400     2 ; mpyu, yxu, 12/2015, RNA
   NG2S1    CG2O6    NG2S1   CG2R61     9     0.000000     2.928800     3 ; mpyu, yxu, 12/2015, RNA
   NG2S1    CG2O6    NG2S1   CG2R64     9   180.000000     8.368000     1 ; HNA, from pymu, yxu, 12/2015, increase to enhance trans (with intra HB), not transferable yet, RNA
   NG2S1    CG2O6    NG2S1   CG2R64     9   180.000000     4.602400     2 ; HNA, from pymu, yxu, 12/2015, RNA
   NG2S1    CG2O6    NG2S1   CG2R64     9     0.000000     2.928800     3 ; HNA, from pymu, yxu, 12/2015, RNA
   NG2S1    CG2O6    NG2S1    CG311     9     0.000000     3.347200     1 ; HNA, from 12mu, yxu, RNA
   NG2S1    CG2O6    NG2S1    CG321     9     0.000000     3.347200     1 ; 6GA, from 12mu, yxu, RNA
   NG2S1    CG2O6    NG2S1    CG331     9     0.000000     6.694400     1 ; S132R, from NMTU, pram
   NG2S1    CG2O6    NG2S1    CG331     9   180.000000    10.460000     2 ; S132R, from NMTU, pram
   NG2S1    CG2O6    NG2S1     HGP1     9   180.000000     6.276000     2 ; HNA, from pymu, cgenff_xyu, yxu, 12/2015, RNA
   NG2S2    CG2O6    NG2S1    CG321     9     0.000000     6.694400     1 ; from NG2S1 CG2O6 NG2S1 CG331, PENALTY= 1.9 CIR THIC
   NG2S2    CG2O6    NG2S1    CG321     9   180.000000    10.460000     2 ; from NG2S1 CG2O6 NG2S1 CG331, PENALTY= 1.9 CIR THIC
   NG2S2    CG2O6    NG2S1    CG331     9     0.000000     6.694400     1 ; from NG2S1 CG2O6 NG2S1 CG331, penalty= 1 THIC
   NG2S2    CG2O6    NG2S1    CG331     9   180.000000    10.460000     2 ; from NG2S1 CG2O6 NG2S1 CG331, penalty= 1 THIC
   NG2S2    CG2O6    NG2S1     HGP1     9   180.000000    16.736000     2 ; from NG2R51 CG2O6 NG2S1 HGP1, PENALTY= 10 CIR THIC
   OG2D1    CG2O6    NG2S1    CG2O1     9   180.000000     1.924640     2 ; flavin
   OG2D1    CG2O6    NG2S1   CG2R61     9   180.000000     8.368000     2 ; mpyu, yxu, RNA
   OG2D1    CG2O6    NG2S1   CG2R64     9   180.000000     8.368000     2 ; HNA, from pymu, yxu, 12/2015, RNA
   OG2D1    CG2O6    NG2S1    CG311     9   180.000000    16.736000     2 ; HNA, from OG2D1 CG2O6 NG2S1 CG321, yxu, RNA
   OG2D1    CG2O6    NG2S1    CG311     9     0.000000     3.974800     4 ; HNA, from OG2D1 CG2O6 NG2S1 CG321, yxu, RNA
   OG2D1    CG2O6    NG2S1    CG321     9   180.000000    16.736000     2 ; DECB, diethyl carbamate, from DMCB, cacha & xxwy
   OG2D1    CG2O6    NG2S1    CG321     9     0.000000     3.974800     4 ; DECB, diethyl carbamate, from DMCB, cacha & xxwy
   OG2D1    CG2O6    NG2S1    CG331     9   180.000000    16.736000     2 ; DMCB, dimethyl carbamate, cacha & xxwy
   OG2D1    CG2O6    NG2S1    CG331     9     0.000000     3.974800     4 ; DMCB, dimethyl carbamate, cacha & xxwy
   OG2D1    CG2O6    NG2S1     HGP1     9   180.000000     0.000000     2 ; DMCB & DECB, dimethyl & diehtyl carbamate, cacha & kevo
   OG302    CG2O6    NG2S1    CG311     9   180.000000    16.736000     2 ; HWG, from OG302 CG2O6 NG2S1 CG321, yxu, RNA
   OG302    CG2O6    NG2S1    CG311     9     0.000000     3.974800     4 ; HWG, from OG302 CG2O6 NG2S1 CG321, yxu, RNA
   OG302    CG2O6    NG2S1    CG321     9   180.000000    16.736000     2 ; DECB, diethyl carbamate, from DMCB, cacha & xxwy
   OG302    CG2O6    NG2S1    CG321     9     0.000000     3.974800     4 ; DECB, diethyl carbamate, from DMCB, cacha & xxwy
   OG302    CG2O6    NG2S1    CG331     9   180.000000    16.736000     2 ; DMCB, dimethyl carbamate, cacha & xxwy
   OG302    CG2O6    NG2S1    CG331     9     0.000000     3.974800     4 ; DMCB, dimethyl carbamate, cacha & xxwy
   OG302    CG2O6    NG2S1     HGP1     9   180.000000     0.000000     2 ; DMCB & DECB, dimethyl & diehtyl carbamate, cacha & kevo
   SG2D1    CG2O6    NG2S1    CG321     9     0.000000    11.286758     1 ; from SG2D1 CG2O6 NG2S1 CG331, THIC
   SG2D1    CG2O6    NG2S1    CG321     9   180.000000     4.596961     2 ; from SG2D1 CG2O6 NG2S1 CG331, THIC
   SG2D1    CG2O6    NG2S1    CG331     9     0.000000    11.286758     1 ; THIC, by ac_aa
   SG2D1    CG2O6    NG2S1    CG331     9   180.000000     4.596961     2 ; THIC, by ac_aa
   SG2D1    CG2O6    NG2S1     HGP1     9   180.000000     0.005858     2 ; THIC, by ac_aa
   NG2S1    CG2O6    NG2S2     HGP1     9   180.000000     6.276000     2 ; from NG2S2 CG2O6 NG2S2 HGP1, PENALTY= 1 CIR THIC
   NG2S2    CG2O6    NG2S2     HGP1     9   180.000000     6.276000     2 ; UREA, Urea
   OG2D1    CG2O6    NG2S2     HGP1     9   180.000000     5.857600     2 ; PROT adm jr. 4/10/91, acetamide update NOW UREA ==> re-optimize???
   SG2D1    CG2O6    NG2S2     HGP1     9   180.000000     0.012134     2 ; THIC, by ac_aa
   SG311    CG2O6    NG2S2     HGP1     9   180.000000     4.969755     2 ; QCS, by ac_aa
   NG2S0    CG2O6    OG302    CG321     9   180.000000     9.204800     2 ; from NG2S1 CG2O6 OG302 CG321, penalty= 1 BXT
   NG2S0    CG2O6    OG302    CG321     9   180.000000     0.418400     3 ; from NG2S1 CG2O6 OG302 CG321, penalty= 1 BXT
   NG2S1    CG2O6    OG302    CG321     9   180.000000     0.627600     1 ; DECB, diethyl carbamate, cacha & xxwy
   NG2S1    CG2O6    OG302    CG321     9   180.000000     9.204800     2 ; DECB, diethyl carbamate, cacha & xxwy
   NG2S1    CG2O6    OG302    CG321     9   180.000000     0.418400     3 ; DECB, diethyl carbamate, cacha & xxwy
   NG2S1    CG2O6    OG302    CG331     9     0.000000     1.046000     1 ; DMCB, dimethyl carbamate, cacha & xxwy
   NG2S1    CG2O6    OG302    CG331     9   180.000000     7.740400     2 ; DMCB, dimethyl carbamate, cacha & xxwy
   NG2S1    CG2O6    OG302    CG331     9   180.000000     0.502080     3 ; DMCB, dimethyl carbamate, cacha & xxwy
   OG2D1    CG2O6    OG302    CG321     9     0.000000     0.627600     1 ; DECB, diethyl carbamate, cacha & xxwy
   OG2D1    CG2O6    OG302    CG321     9   180.000000     9.204800     2 ; DECB, diethyl carbamate, cacha & xxwy
   OG2D1    CG2O6    OG302    CG321     9     0.000000     0.418400     3 ; DECB, diethyl carbamate, cacha & xxwy
   OG2D1    CG2O6    OG302    CG331     9   180.000000     1.046000     1 ; DMCB, dimethyl carbamate, cacha & xxwy
   OG2D1    CG2O6    OG302    CG331     9   180.000000     7.740400     2 ; DMCB, dimethyl carbamate, cacha & xxwy
   OG2D1    CG2O6    OG302    CG331     9     0.000000     0.502080     3 ; DMCB, dimethyl carbamate, cacha & xxwy
   OG302    CG2O6    OG302    CG321     9   180.000000     0.418400     1 ; DECA, diethyl carbonate, xxwy
   OG302    CG2O6    OG302    CG321     9   180.000000    12.970400     2 ; DECA, diethyl carbonate, xxwy
   OG302    CG2O6    OG302    CG331     9   180.000000     2.301200     1 ; DMCA, dimethyl carbonate, xxwy
   OG302    CG2O6    OG302    CG331     9   180.000000    12.342800     2 ; DMCA, dimethyl carbonate, xxwy
   OG2D2    CG2O6    OG311     HGP1     9   180.000000     8.368000     2 ; CO31, bicarbonate, MP2/6-31G* dihedral scan, xxwy
   NG2S2    CG2O6    SG311    CG321     9   180.000000     7.759228     2 ; QCS, by ac_aa
   OG2D1    CG2O6    SG311    CG321     9   180.000000     3.304523     2 ; QCS, by ac_aa
   SG2D1    CG2O6    SG311    CG331     9   180.000000     0.418400     1 ; DMTT, dimethyl trithiocarbonate, kevo
   SG2D1    CG2O6    SG311    CG331     9   180.000000     8.911920     2 ; DMTT, dimethyl trithiocarbonate, kevo
   SG311    CG2O6    SG311    CG331     9     0.000000     0.418400     1 ; DMTT, dimethyl trithiocarbonate, kevo
   SG311    CG2O6    SG311    CG331     9   180.000000     8.911920     2 ; DMTT, dimethyl trithiocarbonate, kevo
   OG2D5    CG2O7    NG2D1    CG331     9   180.000000     1.673600     2 ; MICY, methyl isocyanate, xxwy
   CG1N1   CG2R51   CG2R51   NG2R51     9   180.000000     9.204800     2 ; DCG, yxu, RNA
   CG1N1   CG2R51   CG2R51    HGR52     9   180.000000     0.000000     2 ; DCG, yxu, RNA
  CG2DC1   CG2R51   CG2R51    CG2O5     9   180.000000     0.000000     2 ; TRQ, by ac_aa
  CG2DC1   CG2R51   CG2R51   CG2R51     9   180.000000     0.000000     2 ; TRQ, by ac_aa
  CG2DC1   CG2R51   CG2R51    CG321     9   180.000000     0.000000     2 ; TRQ, by ac_aa
  CG2DC1   CG2R51   CG2R51   NG2R51     9   180.000000     0.013807     2 ; TRQ, by ac_aa
  CG2DC1   CG2R51   CG2R51    OG311     9   180.000000     8.315700     2 ; CR8D, by ac_aa
  CG2DC1   CG2R51   CG2R51    HGR52     9   180.000000     1.564398     2 ; SWG, by ac_aa
  CG2DC2   CG2R51   CG2R51    CG2O5     9   180.000000     0.000000     2 ; TRQ, by ac_aa
  CG2DC2   CG2R51   CG2R51   CG2R51     9   180.000000     0.000000     2 ; TRQ, by ac_aa
  CG2DC2   CG2R51   CG2R51    CG321     9   180.000000     0.000000     2 ; TRQ, by ac_aa
  CG2DC2   CG2R51   CG2R51   NG2R51     9   180.000000     0.013807     2 ; TRQ, by ac_aa
  CG2DC2   CG2R51   CG2R51    OG311     9   180.000000     8.315700     2 ; CR8D, by ac_aa
  CG2DC2   CG2R51   CG2R51    HGR52     9   180.000000     1.564398     2 ; SWG, by ac_aa
   CG2N2   CG2R51   CG2R51   NG2R51     9   180.000000    10.041600     2 ; RCG, yxu, RNA
   CG2N2   CG2R51   CG2R51    HGR52     9   180.000000     4.602400     2 ; RCG, yxu, RNA
   CG2O1   CG2R51   CG2R51   CG2R52     9   180.000000     0.000000     2 ; INCA model for D3R, xxwy
   CG2O1   CG2R51   CG2R51    CG321     9   180.000000     0.000000     2 ; INCA model for D3R, xxwy
   CG2O5   CG2R51   CG2R51   CG2R51     9   180.000000     0.000000     2 ; 23 , from CG2O1 CG2R51 CG2R51 CG2R52, penalty= 5 TQQ TRQ
  CG2R51   CG2R51   CG2R51   CG2R51     9   180.000000    62.760000     2 ; PYRL, pyrrole
  CG2R51   CG2R51   CG2R51   CG2RC0     9   180.000000     8.368000     2 ; INDZ, indolizine, kevo
  CG2R51   CG2R51   CG2R51   CG2RC7     9   180.000000    37.656000     2 ; AZUL, Azulene, kevo
  CG2R51   CG2R51   CG2R51    CG321     9   180.000000    17.991200     2 ; hpiz, from DWG, yxu
  CG2R51   CG2R51   CG2R51    CG324     9   180.000000    17.991200     2 ; pnpa, from DWG, yxu, RNA
  CG2R51   CG2R51   CG2R51    CG331     9   180.000000    17.991200     2 ; sidechai , from CG2R51 CG2R51 CG2R51 CG321, penalty= 0.9 32T THA3 THG2
  CG2R51   CG2R51   CG2R51   CG3C52     9   180.000000    16.736000     2 ; CPDE, cyclopentadiene, kevo
  CG2R51   CG2R51   CG2R51   NG2R51     9   180.000000    16.736000     2 ; PYRL, pyrrole
  CG2R51   CG2R51   CG2R51   NG2R57     9   180.000000    16.736000     2 ; 13BPO, 1,3-bipyrrole; from CG2R51 CG2R51 CG2R51 NG2R51; lf
  CG2R51   CG2R51   CG2R51   NG2RC0     9   180.000000    66.944000     2 ; INDZ, indolizine, kevo
  CG2R51   CG2R51   CG2R51   OG2R50     9   180.000000    35.564000     2 ; FURA, furan
  CG2R51   CG2R51   CG2R51   SG2R50     9   180.000000    35.564000     2 ; THIP, thiophene
  CG2R51   CG2R51   CG2R51    SG3O2     9   180.000000     6.694400     2 ; TSPD model for D3R, xxwy
  CG2R51   CG2R51   CG2R51    HGR51     9   180.000000     4.184000     2 ; PYRL, pyrrole
  CG2R51   CG2R51   CG2R51    HGR52     9   180.000000     6.276000     2 ; PYRL, pyrrole
  CG2R52   CG2R51   CG2R51   CG3C52     9   180.000000    27.614400     2 ; 2HPR, 2H-pyrrole !1,(1a), kevo
  CG2R52   CG2R51   CG2R51   CG3C54     9   180.000000    31.380000     2 ; 2HPP, 2H-pyrrole.H+ 1a, kevo
  CG2R52   CG2R51   CG2R51   NG2R51     9   180.000000    50.208000     2 ; PYRZ, pyrazole
  CG2R52   CG2R51   CG2R51   OG2R50     9   180.000000    39.748000     2 ; ISOX, isoxazole
  CG2R52   CG2R51   CG2R51   SG2R50     9   180.000000    35.564000     2 ; ISOT, isothiazole
  CG2R52   CG2R51   CG2R51    HGR51     9   180.000000    10.878400     2 ; 2HPR, 2H-pyrrole; 2HPP, 2H-pyrrole.H+, kevo
  CG2R52   CG2R51   CG2R51    HGR52     9   180.000000     6.276000     2 ; PYRZ, pyrazole
  CG2R53   CG2R51   CG2R51   CG3C52     9   180.000000    27.614400     2 ; B2FO, from CG2R52 CG2R51 CG2R51 CG3C52, ctsai
  CG2R53   CG2R51   CG2R51    HGR51     9   180.000000    10.878400     2 ; B2FO, from CG2R52 CG2R51 CG2R51 HGR51, ctsai
  CG2R57   CG2R51   CG2R51   NG2R51     9   180.000000    16.736000     2 ; 13BPO, 1,3-bipyrrole; from CG2R51 CG2R51 CG2R51 NG2R51; lf
  CG2R57   CG2R51   CG2R51    HGR52     9   180.000000     6.276000     2 ; 13BPO, 1,3-bipyrrole; from CG2R51 CG2R51 CG2R51 HGR52; lf
  CG2RC0   CG2R51   CG2R51   CG3C52     9   180.000000    28.869600     2 ; INDE, indene, kevo
  CG2RC0   CG2R51   CG2R51   NG2R51     9   180.000000    16.736000     2 ; PROT JWK 05/14/91 fit to indole
  CG2RC0   CG2R51   CG2R51   OG2R50     9   180.000000    35.564000     2 ; ZFUR, benzofuran, kevo
  CG2RC0   CG2R51   CG2R51    OG311     9   180.000000    20.424196     2 ; TRO, by ac_aa
  CG2RC0   CG2R51   CG2R51   SG2R50     9   180.000000    35.564000     2 ; ZTHP, benzothiophene, kevo
  CG2RC0   CG2R51   CG2R51    HGR51     9   180.000000    11.715200     2 ; INDO/TRP
  CG2RC0   CG2R51   CG2R51    HGR52     9   180.000000    11.715200     2 ; INDO/TRP
  CG2RC7   CG2R51   CG2R51    HGR51     9   180.000000    11.296800     2 ; AZUL, Azulene, kevo
   CG311   CG2R51   CG2R51   NG2R51     9   180.000000    12.552000     2 ; from CG321 CG2R51 CG2R51 NG2R51, PENALTY= 0.6 HTR
   CG311   CG2R51   CG2R51    HGR52     9   180.000000     4.184000     2 ; from CG321 CG2R51 CG2R51 HGR52, PENALTY= 0.6 HTR
   CG314   CG2R51   CG2R51   CG3C51     9   180.000000    27.662098     2 ; 143, by ac_aa
   CG314   CG2R51   CG2R51    HGR51     9   180.000000     9.162123     2 ; 143, by ac_aa
   CG321   CG2R51   CG2R51    CG321     9   180.000000     8.368000     2 ; TICA model for D3R, xxwy
   CG321   CG2R51   CG2R51    CG331     9   180.000000     2.092000     2 ; HWG, from MWG, yxu, RNA
   CG321   CG2R51   CG2R51   CG3C50     9   180.000000    29.528998     2 ; from CG3C50 CG2R51 CG2R51 CG331, R1A
   CG321   CG2R51   CG2R51   CG3C52     9   180.000000    21.949264     2 ; R1A, by ac_aa1
   CG321   CG2R51   CG2R51   NG2R50     9   180.000000    12.552000     2 ; PROT his, ADM JR., 7/22/89
   CG321   CG2R51   CG2R51   NG2R51     9   180.000000    12.552000     2 ; PROT his, ADM JR., 7/22/89
   CG321   CG2R51   CG2R51   NG2R52     9   180.000000    10.460000     2 ; PROT his, adm jr., 6/27/90
   CG321   CG2R51   CG2R51    OG311     9   180.000000     0.225099     2 ; from CG331 CG2R51 CG2R51 OG311, TRO
   CG321   CG2R51   CG2R51   SG2R50     9   180.000000    28.249113     2 ; from SG2R50 CG2R51 CG2R51 CG331, TZA4
   CG321   CG2R51   CG2R51    HGR51     9   180.000000     4.184000     2 ; TICA model for D3R, xxwy
   CG321   CG2R51   CG2R51    HGR52     9   180.000000     4.184000     2 ; PROT his, adm jr., 6/27/90
   CG324   CG2R51   CG2R51   NG2R51     9   180.000000    12.552000     2 ; prf, ashalini
   CG324   CG2R51   CG2R51    HGR51     9   180.000000     4.184000     2 ; pnpa, from DAG, yxu, RNA
   CG324   CG2R51   CG2R51    HGR52     9   180.000000     4.184000     2 ; prf, ashalini
   CG331   CG2R51   CG2R51    CG331     9   180.000000     2.092000     2 ; MWG, yxu, RNA
   CG331   CG2R51   CG2R51   CG3C50     9   180.000000    29.528998     2 ; R1A, by ac_aa
   CG331   CG2R51   CG2R51   CG3C51     9   180.000000    25.229102     2 ; 143, by ac_aa
   CG331   CG2R51   CG2R51   CG3C52     9   180.000000    25.229102     2 ; 143, by ac_aa
   CG331   CG2R51   CG2R51   NG2R50     9   180.000000    12.552000     2 ; PROT his, ADM JR., 7/22/89
   CG331   CG2R51   CG2R51   NG2R51     9   180.000000    12.552000     2 ; PROT his, ADM JR., 7/22/89
   CG331   CG2R51   CG2R51   NG2R52     9   180.000000    10.460000     2 ; from CG321 CG2R51 CG2R51 NG2R52, penalty= 0.9 DDEP
   CG331   CG2R51   CG2R51   NG2RC0     9   180.000000    17.991200     2 ; DWG, yxu, RNA
   CG331   CG2R51   CG2R51    OG311     9   180.000000     0.225099     2 ; B2H, by ac_aa
   CG331   CG2R51   CG2R51    OG312     9   180.000000     9.742026     2 ; C12, by ac_aa
   CG331   CG2R51   CG2R51   SG2R50     9   180.000000    28.249113     2 ; TZA4, by ac_aa
   CG331   CG2R51   CG2R51    HGR51     9   180.000000     4.184000     2 ; sidechai , from CG331 CG2R51 CG2R51 HGR52, penalty= 0.5 R1A THA3 THG2
   CG331   CG2R51   CG2R51    HGR52     9   180.000000     4.184000     2 ; PROT his, adm jr., 6/27/90
  CG3C50   CG2R51   CG2R51   CG3C50     9   180.000000    50.208000     2 ; from CG3C52 CG2R51 CG2R51 CG3C52, PENALTY= 2.4 R1A
  CG3C50   CG2R51   CG2R51    HGR51     9   180.000000    12.133600     2 ; from CG3C52 CG2R51 CG2R51 HGR51, PENALTY= 1.2 R1A
  CG3C51   CG2R51   CG2R51   CG3C51     9   180.000000    50.208000     2 ; 7GNM, from CG3C52 CG2R51 CG2R51 CG3C52, yxu, RNA
  CG3C51   CG2R51   CG2R51   CG3C52     9   180.000000    50.208000     2 ; cena, from CG3C52 CG2R51 CG2R51 CG3C52, yxu, RNA
  CG3C51   CG2R51   CG2R51   CG3C53     9   180.000000    50.208000     2 ; QUG, from CG3C52 CG2R51 CG2R51 CG3C52, yxu, RNA
  CG3C51   CG2R51   CG2R51   OG3C51     9   180.000000    37.195760     2 ; from CG3C52 CG2R51 CG2R51 OG3C51, PENALTY= 0.4 143
  CG3C51   CG2R51   CG2R51    HGR51     9   180.000000    12.133600     2 ; QUG, from CG3C52 CG2R51 CG2R51 HGR51, yxu, RNA
  CG3C52   CG2R51   CG2R51   CG3C52     9   180.000000    50.208000     2 ; 3PRL, 3-pyrroline, kevo
  CG3C52   CG2R51   CG2R51   CG3C53     9   180.000000    50.208000     2 ; cpea, from CG3C52 CG2R51 CG2R51 CG3C52, yxu, RNA
  CG3C52   CG2R51   CG2R51   NG2R50     9   180.000000    31.380000     2 ; 3HPR, 3H-pyrrole, kevo
  CG3C52   CG2R51   CG2R51   NG3C51     9   180.000000    46.024000     2 ; 2PRL, 2-pyrroline, kevo
  CG3C52   CG2R51   CG2R51    NG3P2     9   180.000000    43.932000     2 ; 2PRP, 2-pyrroline.H+, kevo
  CG3C52   CG2R51   CG2R51   OG3C51     9   180.000000    37.195760     2 ; 2DHF, 2,3-dihydrofuran, kevo
  CG3C52   CG2R51   CG2R51    HGR51     9   180.000000    12.133600     2 ; 2HPR, 2H-pyrrole, kevo
  CG3C52   CG2R51   CG2R51    HGR52     9   180.000000    24.267200     2 ; 2PRP, 2-pyrroline.H+; 2PRL, 2-pyrroline, kevo
  CG3C53   CG2R51   CG2R51    HGR51     9   180.000000    17.782000     2 ; QUG, from CG3C54 CG2R51 CG2R51 HGR51, yxu, RNA
  CG3C54   CG2R51   CG2R51   CG3C54     9   180.000000    48.116000     2 ; 3PRP, 3-pyrroline.H+, kevo
  CG3C54   CG2R51   CG2R51    HGR51     9   180.000000    17.782000     2 ; 3PRP, 3-pyrroline.H+; 2HPP, 2H-pyrrole.H+, kevo
  NG2R50   CG2R51   CG2R51   NG2R50     9   180.000000    58.576000     2 ; OXAD
  NG2R50   CG2R51   CG2R51   NG2R51     9   180.000000    58.576000     2 ; PROT his, ADM JR., 7/20/89
  NG2R50   CG2R51   CG2R51   NG2RC0     9   180.000000    41.840000     2 ; DWG, yxu, RNA
  NG2R50   CG2R51   CG2R51   OG2R50     9   180.000000    58.576000     2 ; OXAZ, oxazole
  NG2R50   CG2R51   CG2R51    OG311     9   180.000000     1.363147     2 ; B2H, by ac_aa
  NG2R50   CG2R51   CG2R51    OG312     9   180.000000     0.064852     2 ; C12, by ac_aa
  NG2R50   CG2R51   CG2R51   SG2R50     9   180.000000    29.288000     2 ; THAZ, thiazole
  NG2R50   CG2R51   CG2R51    HGR51     9   180.000000    11.296800     2 ; 3HPR, 3H-pyrrole, kevo
  NG2R50   CG2R51   CG2R51    HGR52     9   180.000000    12.552000     2 ; PROT adm jr., 3/24/92
  NG2R51   CG2R51   CG2R51   SG2R50     9   180.000000    15.596697     2 ; 32T, by ac_aa
  NG2R51   CG2R51   CG2R51    HGR51     9   180.000000    14.644000     2 ; INDO/TRP
  NG2R51   CG2R51   CG2R51    HGR52     9   180.000000    12.552000     2 ; PROT adm jr., 3/24/92
  NG2R52   CG2R51   CG2R51   NG2R52     9   180.000000    50.208000     2 ; PROT his, adm jr., 6/27/90
  NG2R52   CG2R51   CG2R51    HGR52     9   180.000000    10.460000     2 ; PROT his, adm jr., 6/27/90
  NG2R57   CG2R51   CG2R51    HGR51     9   180.000000    14.644000     2 ; 13BPO, 1,3-bipyrrole; lf
  NG2RC0   CG2R51   CG2R51    HGR51     9   180.000000    15.480800     2 ; INDZ, indolizine, kevo
  NG3C51   CG2R51   CG2R51    HGR51     9   180.000000    14.644000     2 ; 2PRL, 2-pyrroline, kevo
   NG3P2   CG2R51   CG2R51    HGR51     9   180.000000    29.288000     2 ; 7.0 2PRP, 2-pyrroline.H+, kevo
  OG2R50   CG2R51   CG2R51    HGR51     9   180.000000    18.828000     2 ; FURA, furan
  OG2R50   CG2R51   CG2R51    HGR52     9   180.000000    12.552000     2 ; OXAZ, oxazole
  OG3C51   CG2R51   CG2R51    HGR51     9   180.000000    15.480800     2 ; 2DHF, 2,3-dihydrofuran, kevo
  SG2R50   CG2R51   CG2R51    HGR51     9   180.000000    16.736000     2 ; THIP, thiophene
  SG2R50   CG2R51   CG2R51    HGR52     9   180.000000    23.012000     2 ; THAZ, thiazole
   SG3O2   CG2R51   CG2R51    HGR51     9   180.000000     0.418400     2 ; TSPD model for D3R, xxwy
   HGR51   CG2R51   CG2R51    HGR51     9   180.000000     4.184000     2 ; INDO/TRP
   HGR51   CG2R51   CG2R51    HGR52     9   180.000000     4.184000     2 ; PYRL, pyrrole
   HGR52   CG2R51   CG2R51    HGR52     9   180.000000     4.184000     2 ; PROT his, adm jr., 6/27/90, his
  CG2R51   CG2R51   CG2R52    CG321     9   180.000000    12.552000     2 ; INCA model for D3R, xxwy
  CG2R51   CG2R51   CG2R52   NG2R50     9   180.000000    35.564000     2 ; PYRZ, pyrazole
  CG2R51   CG2R51   CG2R52   NG2R52     9   180.000000    17.363600     2 ; 4.1 2HPP, 2H-pyrrole.H+ 1, kevo
  CG2R51   CG2R51   CG2R52    HGR52     9   180.000000    15.899200     2 ; PYRZ, pyrazole
   CG321   CG2R51   CG2R52    CG321     9   180.000000    10.460000     2 ; INCA model for D3R, xxwy
   CG321   CG2R51   CG2R52   NG2R50     9   180.000000    12.552000     2 ; INCA model for D3R, xxwy
   HGR51   CG2R51   CG2R52   NG2R50     9   180.000000    18.828000     2 ; v 4.25 2HPR, 2H-pyrrole !wC4H !coupled with pyrz, pyrazole, kevo
   HGR51   CG2R51   CG2R52   NG2R52     9   180.000000    18.828000     2 ; 2HPP, 2H-pyrrole.H+, kevo
   HGR51   CG2R51   CG2R52    HGR52     9   180.000000     0.418400     2 ; 2HPR, 2H-pyrrole; 2HPP, 2H-pyrrole.H+, kevo
  CG2R51   CG2R51   CG2R53    OG2D1     9   180.000000     5.020800     2 ; B2FO, from CG2RC0 CG25C1 CG2R53 OG2D1, ctsai
  CG2R51   CG2R51   CG2R53   OG3C51     9   180.000000     1.715440     1 ; B2FO, 5H-furan-2-one, ctsai
   HGR51   CG2R51   CG2R53    OG2D1     9   180.000000    18.828000     2 ; B2FO, from OG2R50 CG2R51 CG2R51 HGR51, ctsai
   HGR51   CG2R51   CG2R53   OG3C51     9   180.000000    15.480800     2 ; B2FO, from OG3C51 CG2R51 CG2R51 HGR51, ctsai
  CG2R51   CG2R51   CG2R57   CG2R51     9   180.000000    62.760000     2 ; 13BPO, 1,3-bipyrrole; from CG2R51 CG2R51 CG2R51 CG2R51; lf
  CG2R51   CG2R51   CG2R57   CG2R57     9   180.000000     8.786400     2 ; 33BPO, 3,3-bipyrrole, lf
  CG2R51   CG2R51   CG2R57   NG2R57     9   180.000000     7.949600     2 ; 13BPO, 1,3-bipyrrole, lf
  NG2R51   CG2R51   CG2R57   CG2R51     9   180.000000    16.736000     2 ; 13BPO, 1,3-bipyrrole; from CG2R51 CG2R51 CG2R51 NG2R51; lf
  NG2R51   CG2R51   CG2R57   CG2R57     9   180.000000     8.786400     2 ; 33BPO, 3,3-bipyrrole, lf
  NG2R51   CG2R51   CG2R57   NG2R57     9   180.000000     7.949600     2 ; 13BPO, 1,3-bipyrrole, lf
   HGR51   CG2R51   CG2R57   CG2R51     9   180.000000     4.184000     2 ; 13BPO, 1,3-bipyrrole; from CG2R51 CG2R51 CG2R51 HGR51; lf
   HGR51   CG2R51   CG2R57   CG2R57     9   180.000000    14.644000     2 ; 33BPO, 3,3-bipyrrole; from NG2R51 CG2R51 CG2R51 HGR51; lf
   HGR51   CG2R51   CG2R57   NG2R57     9   180.000000    14.644000     2 ; 13BPO, 1,3-bipyrrole; from NG2R51 CG2R51 CG2R51 HGR51; lf
   HGR52   CG2R51   CG2R57   CG2R51     9   180.000000     6.276000     2 ; 13BPO, 1,3-bipyrrole; from CG2R51 CG2R51 CG2R51 HGR52; lf
   HGR52   CG2R51   CG2R57   CG2R57     9   180.000000    12.552000     2 ; 33BPO, 3,3-bipyrrole, lf
   HGR52   CG2R51   CG2R57   NG2R57     9   180.000000    12.552000     2 ; 13BPO, 1,3-bipyrrole; from NG2R51 CG2R51 CG2R51 HGR52; lf
   CG1N1   CG2R51   CG2RC0   CG2R63     9   180.000000     6.694400     2 ; DCG, yxu, RNA
   CG1N1   CG2R51   CG2RC0   CG2RC0     9   180.000000     9.204800     2 ; DCG, yxu, RNA
  CG2DC1   CG2R51   CG2RC0   CG2R61     9   180.000000     0.023849     2 ; SWG, by ac_aa
  CG2DC1   CG2R51   CG2RC0   CG2RC0     9   180.000000     5.122890     2 ; SWG, by ac_aa
  CG2DC2   CG2R51   CG2RC0   CG2R61     9   180.000000     0.023849     2 ; SWG, by ac_aa
  CG2DC2   CG2R51   CG2RC0   CG2RC0     9   180.000000     5.122890     2 ; SWG, by ac_aa
   CG2N2   CG2R51   CG2RC0   CG2R61     9   180.000000     0.000000     2 ; 7mip, yxu, RNA
   CG2N2   CG2R51   CG2RC0   CG2R63     9   180.000000     0.000000     2 ; RCG, from 7mip, yxu, RNA
   CG2N2   CG2R51   CG2RC0   CG2RC0     9   180.000000    10.041600     2 ; RCG, yxu, RNA
  CG2R51   CG2R51   CG2RC0   CG2R61     9   180.000000    12.552000     2 ; PROT JWK 09/05/89
  CG2R51   CG2R51   CG2RC0   CG2R63     9   180.000000    12.552000     2 ; prf, ashalini
  CG2R51   CG2R51   CG2RC0   CG2R66     9   180.000000    12.552000     2 ; from CG2R51 CG2R51 CG2RC0 CG2R61, PENALTY= 1.5 4FW
  CG2R51   CG2R51   CG2RC0   CG2RC0     9   180.000000    16.736000     2 ; PROT JWK 05/14/91 fit to indole
  CG2R51   CG2R51   CG2RC0   NG2RC0     9   180.000000    50.208000     2 ; INDZ, indolizine, kevo
   CG311   CG2R51   CG2RC0   CG2R61     9   180.000000    10.460000     2 ; from CG321 CG2R51 CG2RC0 CG2R61, PENALTY= 0.6 HTR
   CG311   CG2R51   CG2RC0   CG2RC0     9   180.000000    12.552000     2 ; from CG321 CG2R51 CG2RC0 CG2RC0, PENALTY= 0.6 HTR
   CG321   CG2R51   CG2RC0   CG2R61     9   180.000000    10.460000     2 ; INDO/TRP
   CG321   CG2R51   CG2RC0   CG2R63     9   180.000000    10.460000     2 ; 7GNA, from CG321 CG2R51 CG2RC0 CG2R61, yxu, RNA
   CG321   CG2R51   CG2RC0   CG2R66     9   180.000000    10.460000     2 ; from CG321 CG2R51 CG2RC0 CG2R61, PENALTY= 1.5 4FW
   CG321   CG2R51   CG2RC0   CG2RC0     9   180.000000    12.552000     2 ; INDO/TRP
   CG324   CG2R51   CG2RC0   CG2R61     9   180.000000     9.204800     2 ; ampu, yxu, RNA
   CG324   CG2R51   CG2RC0   CG2R63     9   180.000000    10.460000     2 ; prf, ashalini
   CG324   CG2R51   CG2RC0   CG2RC0     9   180.000000    12.552000     2 ; prf, ashalini
   CG331   CG2R51   CG2RC0   CG2R61     9   180.000000    10.460000     2 ; INDO/TRP
   CG331   CG2R51   CG2RC0   CG2R66     9   180.000000    10.460000     2 ; sidechai , from CG331 CG2R51 CG2RC0 CG2R61, penalty= 1.5 4FW
   CG331   CG2R51   CG2RC0   CG2RC0     9   180.000000    10.460000     2 ; INDO/TRP
  NG2R51   CG2R51   CG2RC0   CG2R61     9   180.000000     6.276000     2 ; ISOI, isoindole, kevo
  NG2R51   CG2R51   CG2RC0   CG2RC0     9   180.000000    37.656000     2 ; ISOI, isoindole, kevo
   HGR51   CG2R51   CG2RC0   CG2R61     9   180.000000    11.715200     2 ; INDO/TRP
   HGR51   CG2R51   CG2RC0   CG2R63     9   180.000000    11.715200     2 ; dng, not optimized, yxu, RNA
   HGR51   CG2R51   CG2RC0   CG2RC0     9   180.000000    10.878400     2 ; INDO/TRP
   HGR51   CG2R51   CG2RC0   NG2RC0     9   180.000000     3.347200     2 ; INDZ, indolizine, kevo
   HGR52   CG2R51   CG2RC0   CG2R61     9   180.000000     1.046000     2 ; ISOI, isoindole, kevo
   HGR52   CG2R51   CG2RC0   CG2RC0     9   180.000000     1.046000     2 ; ISOI, isoindole, kevo
  CG2R51   CG2R51   CG2RC7   CG2R71     9   180.000000     8.368000     2 ; AZUL, Azulene, kevo
  CG2R51   CG2R51   CG2RC7   CG2RC7     9   180.000000    16.736000     2 ; AZUL, Azulene, kevo
   HGR51   CG2R51   CG2RC7   CG2R71     9   180.000000     9.204800     2 ; AZUL, Azulene, kevo
   HGR51   CG2R51   CG2RC7   CG2RC7     9   180.000000     9.204800     2 ; AZUL, Azulene, kevo
  CG2R51   CG2R51    CG311    CG331     9     0.000000     0.836800     1 ; from CG2R51 CG2R51 CG321 CG331, penalty= 4 HTR
  CG2R51   CG2R51    CG311    CG331     9     0.000000     1.129680     2 ; from CG2R51 CG2R51 CG321 CG331, penalty= 4 HTR
  CG2R51   CG2R51    CG311    CG331     9     0.000000     0.000000     3 ; from CG2R51 CG2R51 CG321 CG331, penalty= 4 HTR
  CG2R51   CG2R51    CG311    OG311     9     0.000000     0.525510     1 ; HTR, by ac_aa
  CG2R51   CG2R51    CG311    OG311     9   180.000000     0.993700     2 ; HTR, by ac_aa
  CG2R51   CG2R51    CG311    OG311     9   180.000000     0.263174     3 ; HTR, by ac_aa
  CG2R51   CG2R51    CG311     HGA1     9     0.000000     0.000000     3 ; from CG2R51 CG2R51 CG321 HGA2, PENALTY= 4 HTR
  CG2RC0   CG2R51    CG311    CG331     9   180.000000     1.046000     2 ; from CG2RC0 CG2R51 CG321 CG331, penalty= 4 HTR
  CG2RC0   CG2R51    CG311    OG311     9   180.000000     0.212129     1 ; HTR, by ac_aa
  CG2RC0   CG2R51    CG311    OG311     9   180.000000     3.857648     2 ; HTR, by ac_aa
  CG2RC0   CG2R51    CG311    OG311     9     0.000000     0.011715     3 ; HTR, by ac_aa
  CG2RC0   CG2R51    CG311     HGA1     9     0.000000     0.836800     3 ; from CG2RC0 CG2R51 CG321 HGA2, PENALTY= 4 HTR
  CG2R51   CG2R51    CG314    CG2O3     9     0.000000     8.907318     1 ; 143, by ac_aa
  CG2R51   CG2R51    CG314    CG2O3     9     0.000000     1.604982     2 ; 143, by ac_aa
  CG2R51   CG2R51    CG314    NG3P3     9     0.000000     0.279073     1 ; 143, by ac_aa
  CG2R51   CG2R51    CG314    NG3P3     9     0.000000     0.019665     2 ; 143, by ac_aa
  CG2R51   CG2R51    CG314     HGA1     9     0.000000     0.000000     3 ; from CG2R51 CG2R51 CG321 HGA2, PENALTY= 5 143
  OG3C51   CG2R51    CG314    CG2O3     9   180.000000     2.561026     2 ; 143, by ac_aa
  OG3C51   CG2R51    CG314    NG3P3     9     0.000000     0.190790     3 ; 143, by ac_aa
  OG3C51   CG2R51    CG314     HGA1     9     0.000000     0.524255     3 ; 143, by ac_aa
  CG2R51   CG2R51    CG321   CG2R51     9     0.000000     0.125520     1 ; from CA CY CT2 CT1, B2H
  CG2R51   CG2R51    CG321   CG2R51     9     0.000000     2.301200     2 ; from CA CY CT2 CT1, B2H
  CG2R51   CG2R51    CG321   CG2R51     9   180.000000     1.631760     3 ; from CA CY CT2 CT1, B2H
  CG2R51   CG2R51    CG321    CG311     9     0.000000     0.836800     1 ; PROT 4-ethylimidazole 4-21G rot bar, adm jr. 3/4/92
  CG2R51   CG2R51    CG321    CG311     9     0.000000     1.129680     2 ; PROT 4-ethylimidazole 4-21G rot bar, adm jr. 3/4/92
  CG2R51   CG2R51    CG321    CG311     9     0.000000     0.000000     3 ; PROT 4-ethylimidazole 4-21G rot bar, adm jr. 3/4/92
  CG2R51   CG2R51    CG321    CG314     9     0.000000     0.836800     1 ; PROT 4-ethylimidazole 4-21G rot bar, adm jr. 3/4/92
  CG2R51   CG2R51    CG321    CG314     9     0.000000     1.129680     2 ; PROT 4-ethylimidazole 4-21G rot bar, adm jr. 3/4/92
  CG2R51   CG2R51    CG321    CG314     9     0.000000     0.000000     3 ; PROT 4-ethylimidazole 4-21G rot bar, adm jr. 3/4/92
  CG2R51   CG2R51    CG321    CG321     9     0.000000     0.836800     1 ; INCA model for D3R, xxwy, from WBG, from CG2R51 CG2R51 CG321 CG311, yxu
  CG2R51   CG2R51    CG321    CG321     9     0.000000     1.129680     2 ; INCA model for D3R, xxwy
  CG2R51   CG2R51    CG321    CG331     9     0.000000     0.836800     1 ; PROT 4-ethylimidazole 4-21G rot bar, adm jr. 3/4/92
  CG2R51   CG2R51    CG321    CG331     9     0.000000     1.129680     2 ; PROT 4-ethylimidazole 4-21G rot bar, adm jr. 3/4/92
  CG2R51   CG2R51    CG321    CG331     9     0.000000     0.000000     3 ; PROT 4-ethylimidazole 4-21G rot bar, adm jr. 3/4/92
  CG2R51   CG2R51    CG321    NG301     9     0.000000     0.836800     1 ; D3R set1 scaffold 2, xxwy
  CG2R51   CG2R51    CG321    NG301     9     0.000000     1.129680     2 ; D3R set1 scaffold 2, xxwy
  CG2R51   CG2R51    CG321    NG311     9   180.000000     1.715440     2 ; 7GNM, from idam, yxu, RNA
  CG2R51   CG2R51    CG321    NG321     9   180.000000     1.715440     2 ; 7GNA (idam), yxu, RNA
  CG2R51   CG2R51    CG321    SG301     9   180.000000     6.027470     1 ; R1A, by ac_aa1
  CG2R51   CG2R51    CG321    SG301     9   180.000000     0.519653     2 ; R1A, by ac_aa1
  CG2R51   CG2R51    CG321     HGA2     9     0.000000     0.000000     3 ; PROT 4-methylimidazole 4-21G//rot bar. adm jr., 9/4/89
  CG2R52   CG2R51    CG321    CG321     9     0.000000     0.836800     1 ; INCA model for D3R, xxwy
  CG2R52   CG2R51    CG321    CG321     9     0.000000     1.129680     2 ; INCA model for D3R, xxwy
  CG2R52   CG2R51    CG321    NG301     9     0.000000     0.836800     1 ; D3R set1 scaffold 1, xxwy
  CG2R52   CG2R51    CG321    NG301     9     0.000000     1.129680     2 ; D3R set1 scaffold 1, xxwy
  CG2R52   CG2R51    CG321     HGA2     9     0.000000     0.000000     3 ; INCA model for D3R, xxwy
  CG2RC0   CG2R51    CG321   CG2R51     9   180.000000     1.506240     1 ; from CPT CY CT2 CT1, B2H
  CG2RC0   CG2R51    CG321   CG2R51     9     0.000000     0.209200     2 ; from CPT CY CT2 CT1, B2H
  CG2RC0   CG2R51    CG321   CG2R51     9   180.000000     0.794960     3 ; from CPT CY CT2 CT1, B2H
  CG2RC0   CG2R51    CG321    CG311     9   180.000000     0.376560     2 ; INDO/TRP
  CG2RC0   CG2R51    CG321    CG311     9     0.000000     2.384880     3 ; INDO/TRP
  CG2RC0   CG2R51    CG321    CG314     9   180.000000     0.376560     2 ; INDO/TRP
  CG2RC0   CG2R51    CG321    CG314     9     0.000000     2.384880     3 ; INDO/TRP
  CG2RC0   CG2R51    CG321    CG331     9   180.000000     1.046000     2 ; INDO/TRP
  CG2RC0   CG2R51    CG321    NG311     9     0.000000     2.259360     1 ; 7GNM, from idam, yxu, RNA
  CG2RC0   CG2R51    CG321    NG311     9     0.000000     1.924640     3 ; 7GNM, from idam, yxu, RNA
  CG2RC0   CG2R51    CG321    NG321     9     0.000000     2.259360     1 ; 7GNA (idam), yxu, RNA
  CG2RC0   CG2R51    CG321    NG321     9     0.000000     1.924640     3 ; 7GNA (idam), yxu, RNA
  CG2RC0   CG2R51    CG321     HGA2     9     0.000000     0.836800     3 ; INDO/TRP
  CG3C50   CG2R51    CG321    SG301     9     0.000000     4.289855     2 ; from CG3C52 CG2R51 CG321 SG301, R1A
  CG3C50   CG2R51    CG321     HGA2     9     0.000000     1.471931     3 ; from CG3C50 CG2R51 CG331 HGA3, R1A
  CG3C52   CG2R51    CG321    SG301     9     0.000000     4.289855     2 ; R1A, by ac_aa1
  CG3C52   CG2R51    CG321     HGA2     9     0.000000     1.807906     3 ; R1A, by ac_aa1
  NG2R50   CG2R51    CG321   CG2R51     9     0.000000     0.794960     3 ; from NG2R50 CG2R51 CG321 CG311, PENALTY= 71.6 B2H
  NG2R50   CG2R51    CG321    CG311     9     0.000000     0.794960     3 ; PROT HIS CB-CG TORSION,
  NG2R50   CG2R51    CG321    CG314     9     0.000000     0.794960     3 ; PROT HIS CB-CG TORSION,
  NG2R50   CG2R51    CG321    CG331     9     0.000000     0.794960     3 ; from NG2R50 CG2R51 CG321 CG311, penalty= 1.5 DDE NEP B2H
  NG2R50   CG2R51    CG321     HGA2     9     0.000000     0.794960     3 ; PROT 4-METHYLIMIDAZOLE 4-21G//ROT BAR. ADM JR., 9/4/89
  NG2R51   CG2R51    CG321    CG311     9     0.000000     0.794960     3 ; PROT 4-METHYLIMIDAZOLE 4-21G//ROT BAR. ADM JR., 9/4/89
  NG2R51   CG2R51    CG321    CG314     9     0.000000     0.794960     3 ; PROT 4-METHYLIMIDAZOLE 4-21G//ROT BAR. ADM JR., 9/4/89
  NG2R51   CG2R51    CG321    CG321     9     0.000000     0.794960     3 ; TICA model for D3R, xxwy
  NG2R51   CG2R51    CG321    CG331     9     0.000000     0.794960     3 ; PROT 4-METHYLIMIDAZOLE 4-21G//ROT BAR. ADM JR., 9/4/89
  NG2R51   CG2R51    CG321    NG301     9     0.000000     0.794960     3 ; D3R set1 scaffold 2, xxwy
  NG2R51   CG2R51    CG321     HGA2     9     0.000000     0.794960     3 ; PROT 4-METHYLIMIDAZOLE 4-21G//ROT BAR. ADM JR., 9/4/89
  NG2R52   CG2R51    CG321    CG311     9     0.000000     0.794960     3 ; PROT 4-METHYLIMIDAZOLE 4-21G//ROT BAR. ADM JR., 9/4/89
  NG2R52   CG2R51    CG321    CG314     9     0.000000     0.794960     3 ; PROT 4-METHYLIMIDAZOLE 4-21G//ROT BAR. ADM JR., 9/4/89
  NG2R52   CG2R51    CG321    CG331     9     0.000000     0.794960     3 ; PROT 4-METHYLIMIDAZOLE 4-21G//ROT BAR. ADM JR., 9/4/89
  NG2R52   CG2R51    CG321     HGA2     9     0.000000     0.794960     3 ; PROT 4-METHYLIMIDAZOLE 4-21G//ROT BAR. ADM JR., 9/4/89
  NG2RC0   CG2R51    CG321    CG311     9     0.000000     1.338880     3 ; HWG, yxu, RNA
  NG2RC0   CG2R51    CG321    CG321     9     0.000000     1.338880     3 ; WBG, from HWG, yxu, RNA
  NG2RC0   CG2R51    CG321     HGA2     9     0.000000     1.338880     3 ; HWG, yxu, RNA
  OG2R50   CG2R51    CG321    CG331     9     0.000000     0.906254     3 ; FUA2, by ac_aa
  OG2R50   CG2R51    CG321     HGA2     9     0.000000     0.769438     3 ; FUA2, by ac_aa
  SG2R50   CG2R51    CG321    CG331     9     0.000000     0.738894     1 ; TIH, by ac_aa
  SG2R50   CG2R51    CG321    CG331     9     0.000000     0.281165     3 ; TIH, by ac_aa
  SG2R50   CG2R51    CG321     HGA2     9     0.000000     0.375305     3 ; from SG2R50 CG2R51 CG331 HGA3, TIH
  CG2R51   CG2R51    CG324    NG3P2     9     0.000000     2.510400     2 ; QUG, from DAG, yxu, RNA
  CG2R51   CG2R51    CG324    NG3P3     9     0.000000    20.083200     1 ; prf, ashalini
  CG2R51   CG2R51    CG324    NG3P3     9     0.000000     0.836800     2 ; prf, ashalini
  CG2R51   CG2R51    CG324     HGA2     9     0.000000     0.000000     3 ; prf, ashalini
  CG2RC0   CG2R51    CG324    NG3P2     9   180.000000     2.928800     1 ; QUG, from DAG, yxu, RNA
  CG2RC0   CG2R51    CG324    NG3P2     9     0.000000     2.510400     2 ; QUG, from DAG, yxu, RNA
  CG2RC0   CG2R51    CG324    NG3P2     9     0.000000     0.627600     3 ; QUG, from DAG, yxu, RNA
  CG2RC0   CG2R51    CG324    NG3P3     9   180.000000     0.376560     2 ; prf, ashalini
  CG2RC0   CG2R51    CG324    NG3P3     9     0.000000     2.384880     3 ; prf, ashalini
  CG2RC0   CG2R51    CG324     HGA2     9     0.000000     1.673600     3 ; prf, ashalini
  CG2R51   CG2R51    CG331     HGA3     9     0.000000     0.000000     3 ; PROT 4-methylimidazole 4-21G//rot bar. adm jr., 9/4/89
  CG2RC0   CG2R51    CG331     HGA3     9     0.000000     0.836800     3 ; INDO/TRP
  CG3C50   CG2R51    CG331     HGA3     9     0.000000     1.471931     3 ; R1A, by ac_aa
  NG2R50   CG2R51    CG331     HGA3     9     0.000000     0.794960     3 ; DWG, from NG2R50 CG2R51 CG321 HGA2, yxu, RNA
  NG2R51   CG2R51    CG331     HGA3     9     0.000000     0.794960     3 ; PROT 4-METHYLIMIDAZOLE 4-21G//ROT BAR. ADM JR., 9/4/89
  NG2R52   CG2R51    CG331     HGA3     9     0.000000     0.794960     3 ; from NG2R52 CG2R51 CG321 HGA2, penalty= 6 DDEP
  NG2RC0   CG2R51    CG331     HGA3     9     0.000000     0.794960     3 ; MWG, from NG2R51 CG2R51 CG331 HGA3, yxu, RNA
  OG3C51   CG2R51    CG331     HGA3     9     0.000000     1.172357     3 ; 143, by ac_aa
  SG2R50   CG2R51    CG331     HGA3     9     0.000000     0.375305     3 ; TIH, by ac_aa
  CG2R51   CG2R51   CG3C50    CG331     9     0.000000     0.064015     3 ; R1A, by ac_aa
  CG2R51   CG2R51   CG3C50   NG3C51     9   180.000000     2.928800     3 ; from CG2R51 CG2R51 CG3C52 NG3C51, PENALTY= 10 R1A
   CG321   CG2R51   CG3C50    CG331     9     0.000000     1.627994     3 ; from CG331 CG3C50 CG2R51 CG331, R1A
   CG321   CG2R51   CG3C50   NG3C51     9   180.000000     2.669392     3 ; from NG3C51 CG3C50 CG2R51 CG331, R1A
   CG331   CG2R51   CG3C50    CG331     9     0.000000     1.627994     3 ; R1A, by ac_aa
   CG331   CG2R51   CG3C50   NG3C51     9   180.000000     2.669392     3 ; R1A, by ac_aa
   HGR51   CG2R51   CG3C50    CG331     9   180.000000     4.113290     2 ; R1A, by ac_aa
   HGR51   CG2R51   CG3C50   NG3C51     9   180.000000    12.970400     2 ; from HGR51 CG2R51 CG3C52 NG3C51, PENALTY= 10 R1A
  CG2R51   CG2R51   CG3C51    CG2O1     9   180.000000     7.523669     3 ; 8LJ, by ac_aa
  CG2R51   CG2R51   CG3C51   CG3C51     9   180.000000     1.464400     3 ; QUG, from cpea, yxu, RNA
  CG2R51   CG2R51   CG3C51   CG3C52     9   180.000000     1.464400     3 ; cpea, yxu, RNA
  CG2R51   CG2R51   CG3C51    NG2S0     9   180.000000    15.026418     2 ; 8LJ, by ac_aa
  CG2R51   CG2R51   CG3C51    NG311     9     0.000000     7.112800     2 ; 7GNM, yxu, RNA
  CG2R51   CG2R51   CG3C51    NG311     9     0.000000    12.970400     3 ; 7GNM, yxu, RNA
  CG2R51   CG2R51   CG3C51   NG3C51     9   180.000000     2.928800     3 ; from CG2R51 CG2R51 CG3C52 NG3C51, PENALTY= 4 143
  CG2R51   CG2R51   CG3C51    OG311     9   180.000000     8.786400     3 ; QUG, yxu, RNA
  CG2R51   CG2R51   CG3C51    SG311     9   180.000000     3.996557     3 ; 143, by ac_aa
  CG2R51   CG2R51   CG3C51     HGA1     9     0.000000     0.000000     3 ; QUG, yxu, RNA
   HGR51   CG2R51   CG3C51    CG2O1     9     0.000000     8.518206     3 ; 8LJ, by ac_aa
   HGR51   CG2R51   CG3C51   CG3C51     9     0.000000     2.092000     2 ; QUG, from cpea, yxu, RNA
   HGR51   CG2R51   CG3C51   CG3C52     9     0.000000     2.092000     2 ; cpea, yxu, RNA
   HGR51   CG2R51   CG3C51    NG2S0     9   180.000000     1.198298     2 ; 8LJ, by ac_aa
   HGR51   CG2R51   CG3C51    NG311     9     0.000000     7.112800     2 ; 7GNM, yxu, RNA
   HGR51   CG2R51   CG3C51    NG311     9     0.000000    12.970400     3 ; 7GNM, yxu, RNA
   HGR51   CG2R51   CG3C51   NG3C51     9   180.000000    12.970400     2 ; from HGR51 CG2R51 CG3C52 NG3C51, PENALTY= 4 143
   HGR51   CG2R51   CG3C51    OG311     9   180.000000     2.092000     2 ; QUG, yxu, RNA
   HGR51   CG2R51   CG3C51    SG311     9   180.000000     1.602472     2 ; 143, by ac_aa
   HGR51   CG2R51   CG3C51     HGA1     9     0.000000     0.000000     3 ; QUG, yxu, RNA
  CG2R51   CG2R51   CG3C52   CG2R51     9   180.000000     8.577200     3 ; CPDE, cyclopentadiene, kevo
  CG2R51   CG2R51   CG3C52   CG2R52     9   180.000000    14.644000     3 ; 3HPR, 3H-pyrrole, kevo
  CG2R51   CG2R51   CG3C52   CG2R53     9   180.000000    14.644000     3 ; A2FO, from CG2R51 CG2R51 CG3C52 CG2R52, ctsai
  CG2R51   CG2R51   CG3C52   CG2RC0     9   180.000000     6.276000     3 ; INDE, indene, kevo
  CG2R51   CG2R51   CG3C52   CG3C51     9   180.000000     0.209200     3 ; pepr, from CG2R51 CG2R51 CG3C52 CG3C52, not optimized, yxu, RNA
  CG2R51   CG2R51   CG3C52   CG3C52     9   180.000000     0.209200     3 ; 2PRL, 2-pyrroline, kevo
  CG2R51   CG2R51   CG3C52   CG3C54     9   180.000000     2.092000     3 ; 0.05 2PRL, 2-pyrroline, kevo
  CG2R51   CG2R51   CG3C52   NG2R50     9   180.000000    15.062400     2 ; 2HPR, 2H-pyrrole !1a, kevo
  CG2R51   CG2R51   CG3C52    NG2S0     9   180.000000     1.087840     2 ; 8LJ, by ac_aa
  CG2R51   CG2R51   CG3C52   NG3C51     9   180.000000     2.928800     3 ; 0.70 0.50 3PRL, 3-pyrroline, kevo
  CG2R51   CG2R51   CG3C52   OG3C51     9   180.000000     1.171520     1 ; B2FO, 5H-furan-2-one, ctsai
  CG2R51   CG2R51   CG3C52   OG3C51     9   180.000000     4.100320     2 ; B2FO, 5H-furan-2-one, ctsai
  CG2R51   CG2R51   CG3C52   OG3C51     9   180.000000     7.322000     3 ; B2FO, 5H-furan-2-one, ctsai
  CG2R51   CG2R51   CG3C52     HGA2     9     0.000000     0.000000     3 ; 2PRP, 2-pyrroline.H+; 2PRL, 2-pyrroline, kevo
   CG321   CG2R51   CG3C52   NG3C51     9     0.000000     2.718763     3 ; R1A, by ac_aa1
   CG321   CG2R51   CG3C52     HGA2     9   180.000000     4.618718     3 ; R1A, by ac_aa1
   HGR51   CG2R51   CG3C52   CG2R51     9     0.000000     8.577200     3 ; CPDE, cyclopentadiene, kevo
   HGR51   CG2R51   CG3C52   CG2R52     9     0.000000     6.276000     3 ; 3HPR, 3H-pyrrole, kevo
   HGR51   CG2R51   CG3C52   CG2R53     9     0.000000     6.276000     3 ; A2FO, from HGR51 CG2R51 CG3C52 CG2R52, ctsai
   HGR51   CG2R51   CG3C52   CG2RC0     9     0.000000     7.949600     3 ; INDE, indene, kevo
   HGR51   CG2R51   CG3C52   CG3C51     9   180.000000     8.368000     2 ; pepr, from HGR51 CG2R51 CG3C52 CG3C52, not optimized, yxu, RNA
   HGR51   CG2R51   CG3C52   CG3C52     9   180.000000     8.368000     2 ; 2PRL, 2-pyrroline, kevo
   HGR51   CG2R51   CG3C52   CG3C54     9   180.000000     6.276000     2 ; 2.00 2PRL, 2-pyrroline, kevo
   HGR51   CG2R51   CG3C52   NG2R50     9   180.000000    17.991200     2 ; v 2.6 2HPR, 2H-pyrrole !wC3H, kevo
   HGR51   CG2R51   CG3C52    NG2S0     9   180.000000    18.504995     2 ; 8LJ, by ac_aa
   HGR51   CG2R51   CG3C52   NG3C51     9   180.000000    12.970400     2 ; 3PRL, 3-pyrroline, kevo
   HGR51   CG2R51   CG3C52   OG3C51     9   180.000000    12.970400     2 ; B2FO, from HGR51 CG2R51 CG3C52 NG3C51, ctsai
   HGR51   CG2R51   CG3C52     HGA2     9     0.000000     0.000000     3 ; 2PRP, 2-pyrroline.H+; 2PRL, 2-pyrroline, kevo
  CG2R51   CG2R51   CG3C53   CG3C51     9   180.000000     1.464400     3 ; QUG, from cpea, yxu, RNA
  CG2R51   CG2R51   CG3C53   CG3C52     9   180.000000     1.464400     3 ; cpea, yxu, RNA
  CG2R51   CG2R51   CG3C53    NG3P2     9   180.000000     8.786400     3 ; QUG, from cpea, yxu, RNA
  CG2R51   CG2R51   CG3C53    NG3P3     9   180.000000     8.786400     3 ; cpea, yxu, RNA
  CG2R51   CG2R51   CG3C53     HGA1     9     0.000000     0.000000     3 ; QUG, yxu, RNA
   HGR51   CG2R51   CG3C53   CG3C51     9     0.000000     2.092000     2 ; QUG, from cpea, yxu, RNA
   HGR51   CG2R51   CG3C53   CG3C52     9     0.000000     2.092000     2 ; cpea, yxu, RNA
   HGR51   CG2R51   CG3C53    NG3P2     9   180.000000     0.000000     2 ; QUG, from cpea, yxu, RNA
   HGR51   CG2R51   CG3C53    NG3P3     9   180.000000     0.000000     2 ; cpea, yxu, RNA
   HGR51   CG2R51   CG3C53     HGA1     9     0.000000     0.000000     3 ; QUG, yxu, RNA
  CG2R51   CG2R51   CG3C54   NG2R52     9   180.000000    11.715200     2 ; 2.7 2.4 2HPP, 2H-pyrrole.H+ 1a, kevo
  CG2R51   CG2R51   CG3C54    NG3P2     9   180.000000     3.765600     3 ; 0.9 3PRP, 3-pyrroline.H+, kevo
  CG2R51   CG2R51   CG3C54     HGA2     9     0.000000     0.000000     3 ; 3PRP, 3-pyrroline.H+; 2HPP, 2H-pyrrole.H+, kevo
   HGR51   CG2R51   CG3C54   NG2R52     9   180.000000    20.920000     2 ; 2HPP, 2H-pyrrole.H+, kevo
   HGR51   CG2R51   CG3C54    NG3P2     9   180.000000     7.112800     2 ; 3PRP, 3-pyrroline.H+, kevo
   HGR51   CG2R51   CG3C54     HGA2     9     0.000000     0.000000     3 ; 3PRP, 3-pyrroline.H+; 2HPP, 2H-pyrrole.H+, kevo
  CG2DC1   CG2R51   NG2R50   CG2R53     9   180.000000     3.792796     2 ; CR8D, by ac_aa
  CG2DC2   CG2R51   NG2R50   CG2R53     9   180.000000     3.792796     2 ; CR8D, by ac_aa
  CG2R51   CG2R51   NG2R50   CG2R52     9   180.000000    22.593600     2 ; 3HPR, 3H-pyrrole, kevo
  CG2R51   CG2R51   NG2R50   CG2R53     9   180.000000    58.576000     2 ; PROT his, ADM JR., 7/20/89
  CG2R51   CG2R51   NG2R50   CG2RC0     9   180.000000    48.116000     2 ; DWG, yxu, RNA
  CG2R51   CG2R51   NG2R50   NG2R50     9   180.000000    35.564000     2 ; OXAD, oxadiazole123
  CG2R51   CG2R51   NG2R50     HGP1     9   180.000000    58.576000     2 ; HIS
   CG321   CG2R51   NG2R50   CG2R53     9   180.000000    12.552000     2 ; PROT his, ADM JR., 7/22/89, FROM HGR52 CG2R51 NG2R50CPH2
   CG331   CG2R51   NG2R50   CG2R53     9   180.000000    12.552000     2 ; from CG321 CG2R51 NG2R50 CG2R53, penalty= 0.9 2HF2 B2H TZA4
   CG331   CG2R51   NG2R50   CG2RC0     9   180.000000    17.154400     2 ; DWG, yxu, RNA
   HGR52   CG2R51   NG2R50   CG2R52     9   180.000000     8.368000     2 ; 3HPR, 3H-pyrrole, kevo
   HGR52   CG2R51   NG2R50   CG2R53     9   180.000000    12.552000     2 ; PROT adm jr., 3/24/92
   HGR52   CG2R51   NG2R50   NG2R50     9   180.000000    23.012000     2 ; OXAD, oxadiazole123
   HGR52   CG2R51   NG2R50     HGP1     9   180.000000     4.184000     2 ; OXAD
   CG2O1   CG2R51   NG2R51   CG2R61     9   180.000000    12.552000     2 ; D3R set1 scaffold 1, xxwy
   CG2O1   CG2R51   NG2R51    CG331     9   180.000000    12.552000     2 ; INCA model for D3R, xxwy
   CG2O1   CG2R51   NG2R51   NG2R50     9   180.000000     0.000000     2 ; INCA model for D3R, xxwy
   CG2O5   CG2R51   NG2R51   CG2R51     9   180.000000     0.082425     2 ; TRQ, by ac_aa
   CG2O5   CG2R51   NG2R51     HGP1     9   180.000000     0.160666     2 ; TRQ, by ac_aa
  CG2R51   CG2R51   NG2R51    CG2O6     9   180.000000     0.000000     2 ; TICA model for D3R, xxwy
  CG2R51   CG2R51   NG2R51   CG2R51     9   180.000000    41.840000     2 ; PYRL, pyrrole
  CG2R51   CG2R51   NG2R51   CG2R53     9   180.000000    58.576000     2 ; PROT his, ADM JR., 7/20/89
  CG2R51   CG2R51   NG2R51   CG2R61     9     0.000000     0.000000     1 ; D3R set1 scaffold 1, xxwy
  CG2R51   CG2R51   NG2R51   CG2R64     9   180.000000     0.836800     2 ; PIPA model for D3R, xxwy
  CG2R51   CG2R51   NG2R51   CG2RC0     9   180.000000    20.920000     2 ; PROT JWK 05/14/91 fit to indole
  CG2R51   CG2R51   NG2R51    CG321     9     0.000000     0.000000     1 ; ETRZ, 1-Ethyl-1,2,3-triazole, from CG2R51 CG2R51 NG2R51 CG3C51, kevo
  CG2R51   CG2R51   NG2R51    CG331     9   180.000000    46.024000     2 ; INCA model for D3R, xxwy; updated to match yxu par in na_rna_modified.prm : DCG
  CG2R51   CG2R51   NG2R51   CG3C51     9     0.000000     0.000000     1 ; NA, glycosyl linkage
  CG2R51   CG2R51   NG2R51   NG2R50     9   180.000000    41.840000     2 ; PYRZ, pyrazole
  CG2R51   CG2R51   NG2R51    OG301     9   180.000000     2.194090     2 ; TOX, by ac_aa
  CG2R51   CG2R51   NG2R51      PG2     9     0.000000     1.181562     1 ; NEP, by ac_aa
  CG2R51   CG2R51   NG2R51     HGP1     9   180.000000     4.184000     2 ; PROT his, adm jr., 7/20/89
  CG2R57   CG2R51   NG2R51   CG2R51     9   180.000000    41.840000     2 ; 13BPO, 1,3-bipyrrole; from CG2R51 CG2R51 NG2R51 CG2R51; lf
  CG2R57   CG2R51   NG2R51     HGP1     9   180.000000     4.184000     2 ; 13BPO, 1,3-bipyrrole; from CG2R51 CG2R51 NG2R51 HGP1; lf
  CG2RC0   CG2R51   NG2R51   CG2R51     9   180.000000    25.104000     2 ; ISOI, isoindole, kevo
  CG2RC0   CG2R51   NG2R51     HGP1     9   180.000000     4.184000     2 ; ISOI, isoindole, kevo
   CG321   CG2R51   NG2R51    CG2O6     9   180.000000     0.000000     2 ; TICA model for D3R, xxwy
   CG321   CG2R51   NG2R51   CG2R51     9   180.000000    12.552000     2 ; TICA model for D3R, xxwy
   CG321   CG2R51   NG2R51   CG2R53     9   180.000000    12.552000     2 ; PROT his, ADM JR., 7/22/89, FROM HGR52 CG2R51 NG2R51CPH2
   CG321   CG2R51   NG2R51    CG331     9     0.000000    12.833583     2 ; MHS, by ac_aa
   CG321   CG2R51   NG2R51   NG2R50     9   180.000000    18.017141     2 ; HIX, by ac_aa
   CG321   CG2R51   NG2R51      PG2     9   180.000000     3.233814     2 ; HIP, by ac_aa
   CG321   CG2R51   NG2R51     HGP1     9   180.000000     4.184000     2 ; PROT his, adm jr., 7/22/89, FROM HGR52 CG2R51 NG2R51H
   CG331   CG2R51   NG2R51   CG2R53     9   180.000000    12.552000     2 ; PROT his, ADM JR., 7/22/89, FROM HGR52 CG2R51 NG2R51CPH2
   CG331   CG2R51   NG2R51     HGP1     9   180.000000     4.184000     2 ; PROT his, adm jr., 7/22/89, FROM HGR52 CG2R51 NG2R51H
   OG311   CG2R51   NG2R51   CG2R53     9   180.000000    25.623653     2 ; B2H, by ac_aa
   OG311   CG2R51   NG2R51   CG2RC0     9   180.000000    14.691279     2 ; TRO, by ac_aa
   OG311   CG2R51   NG2R51    CG321     9   180.000000     0.421747     2 ; from OG311 CG2R51 NG2R51 CG331, B2H
   OG311   CG2R51   NG2R51    CG331     9   180.000000     0.421747     2 ; B2H, by ac_aa
   OG311   CG2R51   NG2R51     HGP1     9   180.000000     0.001255     2 ; TRO, by ac_aa
   OG312   CG2R51   NG2R51   CG2R53     9   180.000000     0.017154     2 ; C12, by ac_aa
   OG312   CG2R51   NG2R51    CG321     9   180.000000     0.204179     2 ; C12, by ac_aa
   HGR52   CG2R51   NG2R51    CG2O6     9   180.000000     0.000000     2 ; TICA model for D3R, xxwy
   HGR52   CG2R51   NG2R51   CG2R51     9   180.000000    10.878400     2 ; PYRL, pyrrole
   HGR52   CG2R51   NG2R51   CG2R53     9   180.000000    12.552000     2 ; PROT adm jr., 3/24/92
   HGR52   CG2R51   NG2R51   CG2R64     9   180.000000     0.000000     2 ; PIPA model for D3R, xxwy
   HGR52   CG2R51   NG2R51   CG2RC0     9   180.000000    10.878400     2 ; INDO/TRP
   HGR52   CG2R51   NG2R51    CG321     9   180.000000     0.000000     2 ; ETRZ, 1-Ethyl-1,2,3-triazole, from HGR52 CG2R53 NG2R51 CG331, kevo
   HGR52   CG2R51   NG2R51    CG331     9   180.000000     0.000000     2 ; DCG, from HGR52 CG2R51 NG2R51 CG321, yxu, RNA
   HGR52   CG2R51   NG2R51   CG3C51     9   180.000000     0.000000     2 ; NA, glycosyl linkage
   HGR52   CG2R51   NG2R51   NG2R50     9   180.000000    12.552000     2 ; PYRZ, pyrazole
   HGR52   CG2R51   NG2R51    OG301     9   180.000000     0.066107     2 ; TOX, by ac_aa
   HGR52   CG2R51   NG2R51      PG2     9   180.000000     3.492385     2 ; NEP, by ac_aa
   HGR52   CG2R51   NG2R51     HGP1     9   180.000000     4.184000     2 ; PROT adm jr., 3/24/92
  CG2R51   CG2R51   NG2R52   CG2R53     9   180.000000    50.208000     2 ; PROT his, ADM JR., 7/20/89
  CG2R51   CG2R51   NG2R52    CG334     9   180.000000     7.127862     2 ; MHSP, by ac_aa
  CG2R51   CG2R51   NG2R52     HGP2     9   180.000000     5.857600     2 ; PROT his, adm jr., 6/27/90
   CG321   CG2R51   NG2R52   CG2R53     9   180.000000    10.460000     2 ; PROT his, adm jr., 6/27/90
   CG321   CG2R51   NG2R52    CG334     9   180.000000     5.035862     2 ; MHSP, by ac_aa
   CG321   CG2R51   NG2R52     HGP2     9   180.000000    12.552000     2 ; PROT his, adm jr., 7/22/89, FROM HC NG2R52CPH1 HA
   CG331   CG2R51   NG2R52   CG2R53     9   180.000000    10.460000     2 ; from CG321 CG2R51 NG2R52 CG2R53, penalty= 0.9 DDEP
   CG331   CG2R51   NG2R52     HGP2     9   180.000000    12.552000     2 ; from CG321 CG2R51 NG2R52 HGP2, penalty= 0.9 DDEP
   HGR52   CG2R51   NG2R52   CG2R53     9   180.000000    10.460000     2 ; PROT his, adm jr., 6/27/90
   HGR52   CG2R51   NG2R52    CG334     9   180.000000     5.678525     2 ; HICP, by ac_aa
   HGR52   CG2R51   NG2R52     HGP2     9   180.000000    12.552000     2 ; PROT his, adm jr., 6/27/90
  CG2R51   CG2R51   NG2R57   CG2R51     9   180.000000    41.840000     2 ; 13BPO, 1,3-bipyrrole; from CG2R51 CG2R51 NG2R51 CG2R51; lf
  CG2R51   CG2R51   NG2R57   CG2R57     9   180.000000     0.836800     2 ; 13BPO, 1,3-bipyrrole, lf
  CG2R51   CG2R51   NG2R57   NG2R57     9   180.000000     0.836800     2 ; 11BPO, 1,1-bipyrrole, lf
   HGR52   CG2R51   NG2R57   CG2R51     9   180.000000    10.878400     2 ; 13BPO, 1,3-bipyrrole; from HGR52  CG2R51 NG2R51 CG2R51; lf
   HGR52   CG2R51   NG2R57   CG2R57     9   180.000000     6.276000     2 ; 13BPO, 1,3-bipyrrole, lf
   HGR52   CG2R51   NG2R57   NG2R57     9   180.000000     4.602400     2 ; 11BPO, 1,1-bipyrrole, lf
  CG2R51   CG2R51   NG2RC0   CG2R61     9   180.000000    12.552000     2 ; INDZ, indolizine, kevo
  CG2R51   CG2R51   NG2RC0   CG2R63     9   180.000000    12.552000     2 ; DWG, from CG2R51 CG2R51 NG2RC0 CG2R61, yxu, RNA
  CG2R51   CG2R51   NG2RC0   CG2RC0     9   180.000000    37.656000     2 ; INDZ, indolizine, kevo
   CG321   CG2R51   NG2RC0   CG2R61     9   180.000000     2.928800     2 ; hpiz, from MWG, yxu, RNA
   CG321   CG2R51   NG2RC0   CG2R63     9   180.000000     2.928800     2 ; HWG, from MWG, yxu, RNA
   CG321   CG2R51   NG2RC0   CG2RC0     9   180.000000     2.928800     2 ; HWG, from MWG, yxu, RNA
   CG331   CG2R51   NG2RC0   CG2R63     9   180.000000     2.928800     2 ; MWG, yxu, RNA
   CG331   CG2R51   NG2RC0   CG2RC0     9   180.000000     2.928800     2 ; MWG, yxu, RNA
   HGR52   CG2R51   NG2RC0   CG2R61     9   180.000000     5.857600     2 ; INDZ, indolizine, kevo
   HGR52   CG2R51   NG2RC0   CG2R63     9   180.000000     1.464400     2 ; DWG, yxu, RNA
   HGR52   CG2R51   NG2RC0   CG2RC0     9   180.000000     5.857600     2 ; INDZ, indolizine, kevo
  CG2R51   CG2R51   NG3C51   CG3C52     9   180.000000    33.472000     2 ; 2PRL, 2-pyrroline, kevo
  CG2R51   CG2R51   NG3C51     HGP1     9     0.000000     0.000000     3 ; 2PRL, 2-pyrroline, kevo
   HGR52   CG2R51   NG3C51   CG3C52     9   180.000000    12.552000     2 ; 2PRL, 2-pyrroline, kevo
   HGR52   CG2R51   NG3C51     HGP1     9     0.000000     0.000000     3 ; 2PRL, 2-pyrroline, kevo
  CG2R51   CG2R51    NG3P2   CG3C54     9     0.000000     1.255200     3 ; 2PRP, 2-pyrroline.H+, kevo
  CG2R51   CG2R51    NG3P2     HGP2     9   180.000000     1.255200     3 ; 2PRP, 2-pyrroline.H+, kevo
   HGR52   CG2R51    NG3P2   CG3C54     9   180.000000     0.000000     3 ; 2PRP, 2-pyrroline.H+, kevo
   HGR52   CG2R51    NG3P2     HGP2     9   180.000000     0.000000     3 ; 2PRP, 2-pyrroline.H+, kevo
  CG2R51   CG2R51   OG2R50   CG2R51     9   180.000000    31.380000     2 ; FURA, furan @@@@@ Kenno: 8.5 --> 7.5 @@@@@
  CG2R51   CG2R51   OG2R50   CG2R53     9   180.000000    35.564000     2 ; OXAZ, oxazole
  CG2R51   CG2R51   OG2R50   CG2RC0     9   180.000000    35.564000     2 ; ZFUR, benzofuran, kevo
  CG2R51   CG2R51   OG2R50   NG2R50     9   180.000000    35.564000     2 ; ISOX, isoxazole
   CG321   CG2R51   OG2R50   CG2R51     9   180.000000    13.236921     2 ; FUA2, by ac_aa
   HGR52   CG2R51   OG2R50   CG2R51     9   180.000000    15.899200     2 ; FURA, furan
   HGR52   CG2R51   OG2R50   CG2R53     9   180.000000    15.899200     2 ; OXAZ, oxazole
   HGR52   CG2R51   OG2R50   CG2RC0     9   180.000000    12.552000     2 ; ZFUR, benzofuran, kevo
   HGR52   CG2R51   OG2R50   NG2R50     9   180.000000    23.012000     2 ; ISOX, isoxazole
  CG2R51   CG2R51    OG311     HGP1     9   180.000000     0.943074     1 ; B2H, by ac_aa
  CG2R51   CG2R51    OG311     HGP1     9   180.000000     0.000000     2 ; TRO, by ac_aa
  NG2R51   CG2R51    OG311     HGP1     9   180.000000     0.005021     2 ; B2H, by ac_aa
  CG2R51   CG2R51   OG3C51   CG2R53     9   180.000000     5.150504     2 ; A2FO, 3H-furan-2-one, ctsai
  CG2R51   CG2R51   OG3C51   CG2R53     9   180.000000     9.598096     3 ; A2FO, 3H-furan-2-one, ctsai
  CG2R51   CG2R51   OG3C51   CG3C52     9   180.000000    18.158560     2 ; 2DHF, 2,3-dihydrofuran, kevo
  CG2R51   CG2R51   OG3C51   NG3C51     9   180.000000    31.444434     2 ; 143, by ac_aa
   CG314   CG2R51   OG3C51   NG3C51     9   180.000000     1.086585     2 ; 143, by ac_aa
   CG331   CG2R51   OG3C51   NG3C51     9   180.000000    14.802155     2 ; 143, by ac_aa
   HGR52   CG2R51   OG3C51   CG2R53     9   180.000000     8.786400     2 ; A2FO, from HGR52 CG2R51 OG3C51 CG3C52, ctsai
   HGR52   CG2R51   OG3C51   CG3C52     9   180.000000     8.786400     2 ; 2DHF, 2,3-dihydrofuran, kevo
  CG2R51   CG2R51   SG2R50   CG2R51     9   180.000000    35.564000     2 ; THIP, thiophene
  CG2R51   CG2R51   SG2R50   CG2R53     9   180.000000    35.564000     2 ; THAZ, thiazole @@@@@ Kenno: 8.0 --> 8.5 @@@@@
  CG2R51   CG2R51   SG2R50   CG2RC0     9   180.000000    35.564000     2 ; ZTHP, benzothiophene, kevo
  CG2R51   CG2R51   SG2R50   NG2R50     9   180.000000    37.656000     2 ; ISOT, isothiazole
   CG321   CG2R51   SG2R50   CG2R51     9   180.000000    10.634891     2 ; from CG2R51 SG2R50 CG2R51 CG331, TIH
   CG331   CG2R51   SG2R50   CG2R51     9   180.000000    10.634891     2 ; TIH, by ac_aa
   SG3O2   CG2R51   SG2R50   CG2R51     9   180.000000     6.694400     2 ; TSPD model for D3R, xxwy
   HGR52   CG2R51   SG2R50   CG2R51     9   180.000000    16.736000     2 ; THIP, thiophene
   HGR52   CG2R51   SG2R50   CG2R53     9   180.000000    23.012000     2 ; THAZ, thiazole
   HGR52   CG2R51   SG2R50   CG2RC0     9   180.000000    16.317600     2 ; ZTHP, benzothiophene, kevo
   HGR52   CG2R51   SG2R50   NG2R50     9   180.000000    18.828000     2 ; ISOT, isothiazole
  CG2R51   CG2R51    SG3O2    NG301     9   180.000000    13.639840     1 ; TSPD model for D3R, xxwy
  CG2R51   CG2R51    SG3O2    NG301     9   180.000000     1.004160     2 ; TSPD model for D3R, xxwy
  CG2R51   CG2R51    SG3O2    OG2P1     9     0.000000     0.000000     6 ; TSPD model for D3R, xxwy
  SG2R50   CG2R51    SG3O2    NG301     9   180.000000    13.639840     1 ; TSPD model for D3R, xxwy
  SG2R50   CG2R51    SG3O2    NG301     9   180.000000     1.004160     2 ; TSPD model for D3R, xxwy
  SG2R50   CG2R51    SG3O2    OG2P1     9     0.000000     0.000000     6 ; TSPD model for D3R, xxwy
  NG2R50   CG2R52   CG2R52   NG2R50     9   180.000000    39.748000     2 ; TRZ2, 2H-1,2,3-triazole, lf
  NG2R50   CG2R52   CG2R52    HGR52     9   180.000000    16.317600     2 ; TRZ2, 2H-1,2,3-triazole, lf
   HGR52   CG2R52   CG2R52    HGR52     9   180.000000     0.711280     2 ; TRZ2, 2H-1,2,3-triazole, lf
  NG2R50   CG2R52   CG2RC0   CG2R61     9   180.000000     8.368000     2 ; INDA, 1H-indazole, kevo
  NG2R50   CG2R52   CG2RC0   CG2RC0     9   180.000000    33.472000     2 ; INDA, 1H-indazole, kevo
   HGR52   CG2R52   CG2RC0   CG2R61     9   180.000000    10.041600     2 ; INDA, 1H-indazole, kevo
   HGR52   CG2R52   CG2RC0   CG2RC0     9   180.000000    10.041600     2 ; INDA, 1H-indazole, kevo
  CG2R51   CG2R52    CG321    CG321     9     0.000000     0.836800     1 ; INCA model for D3R, xxwy
  CG2R51   CG2R52    CG321    CG321     9     0.000000     1.129680     2 ; INCA model for D3R, xxwy
  CG2R51   CG2R52    CG321    CG321     9     0.000000     0.000000     3 ; INCA model for D3R, xxwy
  CG2R51   CG2R52    CG321     HGA2     9     0.000000     0.000000     3 ; INCA model for D3R, xxwy
  NG2R50   CG2R52    CG321    CG321     9     0.000000     0.794960     3 ; INCA model for D3R, xxwy
  NG2R50   CG2R52    CG321     HGA2     9     0.000000     0.794960     3 ; INCA model for D3R, xxwy
  NG2R50   CG2R52   CG3C52   CG2R51     9   180.000000    14.644000     3 ; 3HPR, 3H-pyrrole, kevo
  NG2R50   CG2R52   CG3C52   CG2RC0     9   180.000000    14.644000     3 ; 3HIN, 3H-indole, kevo
  NG2R50   CG2R52   CG3C52   CG3C52     9   180.000000    11.715200     3 ; 2.85 2PRZ, 2-pyrazoline, kevo
  NG2R50   CG2R52   CG3C52     HGA2     9     0.000000     5.857600     3 ; 2PRZ, 2-pyrazoline, kevo
   HGR52   CG2R52   CG3C52   CG2R51     9     0.000000     5.439200     3 ; 3HPR, 3H-pyrrole, kevo
   HGR52   CG2R52   CG3C52   CG2RC0     9     0.000000     8.368000     3 ; 3HIN, 3H-indole, kevo
   HGR52   CG2R52   CG3C52   CG3C52     9   180.000000    16.736000     2 ; 2PRZ, 2-pyrazoline, kevo
   HGR52   CG2R52   CG3C52     HGA2     9     0.000000     0.000000     3 ; 2PRZ, 2-pyrazoline, kevo
  CG2R51   CG2R52   NG2R50   CG3C52     9   180.000000    23.012000     2 ; 2HPR, 2H-pyrrole !1,1a, kevo
  CG2R51   CG2R52   NG2R50   NG2R51     9   180.000000    50.208000     2 ; PYRZ, pyrazole
  CG2R51   CG2R52   NG2R50   OG2R50     9   180.000000    50.208000     2 ; ISOX, isoxazole
  CG2R51   CG2R52   NG2R50   SG2R50     9   180.000000    35.564000     2 ; ISOT, isothiazole
  CG2R52   CG2R52   NG2R50   NG2R51     9   180.000000    50.208000     2 ; TRZ2, 2H-1,2,3-triazole, lf
  CG2RC0   CG2R52   NG2R50   NG2R51     9   180.000000    56.484000     2 ; INDA, 1H-indazole, kevo
   CG321   CG2R52   NG2R50   NG2R51     9   180.000000    15.899200     2 ; INCA model for D3R, xxwy
  CG3C52   CG2R52   NG2R50   CG2R51     9   180.000000    27.196000     2 ; 3HPR, 3H-pyrrole, kevo
  CG3C52   CG2R52   NG2R50   CG2RC0     9   180.000000    54.392000     2 ; 3HIN, 3H-indole, kevo
  CG3C52   CG2R52   NG2R50   NG3C51     9   180.000000    71.128000     2 ; 2PRZ, 2-pyrazoline, kevo
   HGR52   CG2R52   NG2R50   CG2R51     9   180.000000    20.920000     2 ; 3HPR, 3H-pyrrole, kevo
   HGR52   CG2R52   NG2R50   CG2RC0     9   180.000000    16.736000     2 ; 3HIN, 3H-indole, kevo
   HGR52   CG2R52   NG2R50   CG3C52     9   180.000000    31.798400     2 ; v 7.1 2HPR, 2H-pyrrole !wC5H, kevo
   HGR52   CG2R52   NG2R50   NG2R51     9   180.000000    15.899200     2 ; PYRZ, pyrazole
   HGR52   CG2R52   NG2R50   NG3C51     9   180.000000    20.920000     2 ; 2PRZ, 2-pyrazoline, kevo
   HGR52   CG2R52   NG2R50   OG2R50     9   180.000000    23.012000     2 ; ISOX, isoxazole
   HGR52   CG2R52   NG2R50   SG2R50     9   180.000000    18.828000     2 ; ISOT, isothiazole
  CG2R51   CG2R52   NG2R52   CG3C54     9   180.000000    25.104000     2 ; 2HPP, 2H-pyrrole.H+ 1a, kevo
  CG2R51   CG2R52   NG2R52     HGP2     9   180.000000    11.296800     2 ; 2.5 2HPP, 2H-pyrrole.H+, kevo
   HGR52   CG2R52   NG2R52   CG3C54     9   180.000000    37.656000     2 ; 2HPP, 2H-pyrrole.H+, kevo
   HGR52   CG2R52   NG2R52     HGP2     9   180.000000     0.000000     2 ; 2HPP, 2H-pyrrole.H+, kevo
  NG2R50   CG2R53   CG2R61   CG2R61     9   180.000000     3.723760     2 ; 2PTZ model for D3R, xxwy
  NG2R50   CG2R53   CG2R61   CG2R61     9     0.000000     0.418400     4 ; 2PTZ model for D3R, xxwy
  SG2R50   CG2R53   CG2R61   CG2R61     9   180.000000     3.723760     2 ; 2PTZ model for D3R, xxwy
  SG2R50   CG2R53   CG2R61   CG2R61     9     0.000000     0.418400     4 ; 2PTZ model for D3R, xxwy
  NG2R50   CG2R53    CG311    CG311     9   180.000000     1.522139     1 ; from NG2R50 CG2R53 CG321 CG331, PENALTY= 5.5 CRF B2H CRO
  NG2R50   CG2R53    CG311    CG311     9     0.000000     0.062342     2 ; from NG2R50 CG2R53 CG321 CG331, PENALTY= 5.5 CRF B2H CRO
  NG2R50   CG2R53    CG311    CG311     9   180.000000     1.188674     3 ; from NG2R50 CG2R53 CG321 CG331, PENALTY= 5.5 CRF B2H CRO
  NG2R50   CG2R53    CG311    CG311     9     0.000000     0.123428     6 ; from NG2R50 CG2R53 CG321 CG331, PENALTY= 5.5 CRF B2H CRO
  NG2R50   CG2R53    CG311    CG321     9   180.000000     1.522139     1 ; from NG2R50 CG2R53 CG321 CG331, PENALTY= 4.9 SWG GYS CH6 CR8D DYG
  NG2R50   CG2R53    CG311    CG321     9     0.000000     0.062342     2 ; from NG2R50 CG2R53 CG321 CG331, PENALTY= 4.9 SWG GYS CH6 CR8D DYG
  NG2R50   CG2R53    CG311    CG321     9   180.000000     1.188674     3 ; from NG2R50 CG2R53 CG321 CG331, PENALTY= 4.9 SWG GYS CH6 CR8D DYG
  NG2R50   CG2R53    CG311    CG321     9     0.000000     0.123428     6 ; from NG2R50 CG2R53 CG321 CG331, PENALTY= 4.9 SWG GYS CH6 CR8D DYG
  NG2R50   CG2R53    CG311    CG331     9   180.000000     1.522139     1 ; from NG2R50 CG2R53 CG321 CG331, PENALTY= 4 MDO PIA
  NG2R50   CG2R53    CG311    CG331     9     0.000000     0.062342     2 ; from NG2R50 CG2R53 CG321 CG331, PENALTY= 4 MDO PIA
  NG2R50   CG2R53    CG311    CG331     9   180.000000     1.188674     3 ; from NG2R50 CG2R53 CG321 CG331, PENALTY= 4 MDO PIA
  NG2R50   CG2R53    CG311    CG331     9     0.000000     0.123428     6 ; from NG2R50 CG2R53 CG321 CG331, PENALTY= 4 MDO PIA
  NG2R50   CG2R53    CG311    NG2S1     9   180.000000     0.018828     1 ; MDO, by ac_aa
  NG2R50   CG2R53    CG311    NG2S1     9     0.000000     0.035564     2 ; MDO, by ac_aa
  NG2R50   CG2R53    CG311    NG2S1     9   180.000000     6.273908     3 ; MDO, by ac_aa
  NG2R50   CG2R53    CG311    NG2S1     9     0.000000     0.411706     6 ; MDO, by ac_aa
  NG2R50   CG2R53    CG311     HGA1     9     0.000000     0.794960     3 ; from NG2R50 CG2R53 CG321 HGA2, PENALTY= 4 SWG CRF B2H CRO MDO PIA
  NG2R51   CG2R53    CG311    CG311     9     0.000000     3.695727     1 ; from NG2R51 CG2R53 CG321 CG331, PENALTY= 5.5 CRF B2H CRO
  NG2R51   CG2R53    CG311    CG311     9     0.000000     0.211710     2 ; from NG2R51 CG2R53 CG321 CG331, PENALTY= 5.5 CRF B2H CRO
  NG2R51   CG2R53    CG311    CG311     9   180.000000     0.749354     3 ; from NG2R51 CG2R53 CG321 CG331, PENALTY= 5.5 CRF B2H CRO
  NG2R51   CG2R53    CG311    CG311     9   180.000000     0.066107     6 ; from NG2R51 CG2R53 CG321 CG331, PENALTY= 5.5 CRF B2H CRO
  NG2R51   CG2R53    CG311    CG321     9     0.000000     3.695727     1 ; from NG2R51 CG2R53 CG321 CG331, PENALTY= 4.9 SWG GYS CH6 CR8D DYG
  NG2R51   CG2R53    CG311    CG321     9     0.000000     0.211710     2 ; from NG2R51 CG2R53 CG321 CG331, PENALTY= 4.9 SWG GYS CH6 CR8D DYG
  NG2R51   CG2R53    CG311    CG321     9   180.000000     0.749354     3 ; from NG2R51 CG2R53 CG321 CG331, PENALTY= 4.9 SWG GYS CH6 CR8D DYG
  NG2R51   CG2R53    CG311    CG321     9   180.000000     0.066107     6 ; from NG2R51 CG2R53 CG321 CG331, PENALTY= 4.9 SWG GYS CH6 CR8D DYG
  NG2R51   CG2R53    CG311    CG331     9     0.000000     3.695727     1 ; from NG2R51 CG2R53 CG321 CG331, PENALTY= 4 MDO PIA
  NG2R51   CG2R53    CG311    CG331     9     0.000000     0.211710     2 ; from NG2R51 CG2R53 CG321 CG331, PENALTY= 4 MDO PIA
  NG2R51   CG2R53    CG311    CG331     9   180.000000     0.749354     3 ; from NG2R51 CG2R53 CG321 CG331, PENALTY= 4 MDO PIA
  NG2R51   CG2R53    CG311    CG331     9   180.000000     0.066107     6 ; from NG2R51 CG2R53 CG321 CG331, PENALTY= 4 MDO PIA
  NG2R51   CG2R53    CG311    NG2S1     9     0.000000     0.372376     1 ; MDO, by ac_aa
  NG2R51   CG2R53    CG311    NG2S1     9     0.000000     0.059413     2 ; MDO, by ac_aa
  NG2R51   CG2R53    CG311    NG2S1     9   180.000000     1.102902     3 ; MDO, by ac_aa
  NG2R51   CG2R53    CG311    NG2S1     9   180.000000     0.423421     6 ; MDO, by ac_aa
  NG2R51   CG2R53    CG311     HGA1     9     0.000000     0.794960     3 ; from NG2R51 CG2R53 CG321 HGA2, PENALTY= 4 SWG CRF B2H CRO MDO PIA
  NG2R50   CG2R53    CG321    CG321     9   180.000000     1.522139     1 ; from NG2R50 CG2R53 CG321 CG331, PENALTY= 0.9 DDE
  NG2R50   CG2R53    CG321    CG321     9     0.000000     0.062342     2 ; from NG2R50 CG2R53 CG321 CG331, PENALTY= 0.9 DDE
  NG2R50   CG2R53    CG321    CG321     9   180.000000     1.188674     3 ; from NG2R50 CG2R53 CG321 CG331, PENALTY= 0.9 DDE
  NG2R50   CG2R53    CG321    CG321     9     0.000000     0.123428     6 ; from NG2R50 CG2R53 CG321 CG331, PENALTY= 0.9 DDE
  NG2R50   CG2R53    CG321    CG331     9   180.000000     1.522139     1 ; ETEA, 5-Ethyl-1H-tetrazole, pchat
  NG2R50   CG2R53    CG321    CG331     9     0.000000     0.062342     2 ; ETEA, 5-Ethyl-1H-tetrazole, pchat
  NG2R50   CG2R53    CG321    CG331     9   180.000000     1.188674     3 ; ETEA, 5-Ethyl-1H-tetrazole, pchat
  NG2R50   CG2R53    CG321    CG331     9     0.000000     0.123428     6 ; ETEA, 5-Ethyl-1H-tetrazole, pchat
  NG2R50   CG2R53    CG321    NG2S1     9   180.000000     0.018828     1 ; from NG2R50 CG2R53 CG311 NG2S1, CR2
  NG2R50   CG2R53    CG321    NG2S1     9     0.000000     0.035564     2 ; from NG2R50 CG2R53 CG311 NG2S1, CR2
  NG2R50   CG2R53    CG321    NG2S1     9   180.000000     6.273908     3 ; from NG2R50 CG2R53 CG311 NG2S1, CR2
  NG2R50   CG2R53    CG321    NG2S1     9     0.000000     0.411706     6 ; from NG2R50 CG2R53 CG311 NG2S1, CR2
  NG2R50   CG2R53    CG321     HGA2     9     0.000000     0.794960     3 ; ETEA, 5-Ethyl-1H-tetrazole, pchat
  NG2R51   CG2R53    CG321    CG321     9     0.000000     3.695727     1 ; from NG2R51 CG2R53 CG321 CG331, PENALTY= 0.9 DDE
  NG2R51   CG2R53    CG321    CG321     9     0.000000     0.211710     2 ; from NG2R51 CG2R53 CG321 CG331, PENALTY= 0.9 DDE
  NG2R51   CG2R53    CG321    CG321     9   180.000000     0.749354     3 ; from NG2R51 CG2R53 CG321 CG331, PENALTY= 0.9 DDE
  NG2R51   CG2R53    CG321    CG321     9   180.000000     0.066107     6 ; from NG2R51 CG2R53 CG321 CG331, PENALTY= 0.9 DDE
  NG2R51   CG2R53    CG321    CG331     9     0.000000     3.695727     1 ; ETEA, 5-Ethyl-1H-tetrazole, pchat
  NG2R51   CG2R53    CG321    CG331     9     0.000000     0.211710     2 ; ETEA, 5-Ethyl-1H-tetrazole, pchat
  NG2R51   CG2R53    CG321    CG331     9   180.000000     0.749354     3 ; ETEA, 5-Ethyl-1H-tetrazole, pchat
  NG2R51   CG2R53    CG321    CG331     9   180.000000     0.066107     6 ; ETEA, 5-Ethyl-1H-tetrazole, pchat
  NG2R51   CG2R53    CG321    NG2S1     9     0.000000     0.372376     1 ; from NG2R51 CG2R53 CG311 NG2S1, CR2
  NG2R51   CG2R53    CG321    NG2S1     9     0.000000     0.059413     2 ; from NG2R51 CG2R53 CG311 NG2S1, CR2
  NG2R51   CG2R53    CG321    NG2S1     9   180.000000     1.102902     3 ; from NG2R51 CG2R53 CG311 NG2S1, CR2
  NG2R51   CG2R53    CG321    NG2S1     9   180.000000     0.423421     6 ; from NG2R51 CG2R53 CG311 NG2S1, CR2
  NG2R51   CG2R53    CG321     HGA2     9     0.000000     0.794960     3 ; ETEA, 5-Ethyl-1H-tetrazole, pchat
  NG2R52   CG2R53    CG321    CG321     9   180.000000     0.123428     2 ; from CG331 CG321 CG2R53 NG2R52, DDEP
  NG2R52   CG2R53    CG321    CG321     9     0.000000     0.794960     3 ; from CG331 CG321 CG2R53 NG2R52, DDEP
  NG2R52   CG2R53    CG321    CG331     9   180.000000     0.123428     2 ; DDEP, by ac_aa
  NG2R52   CG2R53    CG321    CG331     9     0.000000     0.794960     3 ; DDEP, by ac_aa
  NG2R52   CG2R53    CG321     HGA2     9     0.000000     1.414610     3 ; from NG2R52 CG2R53 CG331 HGA3, DDEP
  NG2R50   CG2R53    CG331     HGA3     9     0.000000     0.794960     3 ; MTEA, 5-Methyl-1H-tetrazole , pchat
  NG2R51   CG2R53    CG331     HGA3     9     0.000000     0.794960     3 ; MTEA, 5-Methyl-1H-tetrazole , pchat
  NG2R52   CG2R53    CG331     HGA3     9     0.000000     1.414610     3 ; DDEP, by ac_aa
  NG2R43   CG2R53   CG3C41   CG3C41     9     0.000000    12.552000     3 ; AZDO, 2-azetidinone, kevo
  NG2R43   CG2R53   CG3C41     HGA2     9     0.000000     2.384880     3 ; AZDO, 2-azetidinone; lsk & kevo
   OG2D1   CG2R53   CG3C41   CG3C41     9     0.000000     2.384880     3 ; AZDO, 2-azetidinone, kevo
   OG2D1   CG2R53   CG3C41     HGA2     9     0.000000     2.384880     3 ; AZDO, 2-azetidinone, kevo
  NG2R53   CG2R53   CG3C50   CG2RC0     9   180.000000     4.184000     3 ; MSCH model for D3R, xxwy
  NG2R53   CG2R53   CG3C50    CG321     9   180.000000     4.184000     3 ; MSCH model for D3R, xxwy
   OG2D1   CG2R53   CG3C50   CG2RC0     9     0.000000     0.334720     3 ; MSCH model for D3R, xxwy
   OG2D1   CG2R53   CG3C50    CG321     9     0.000000     0.334720     3 ; MSCH model for D3R, xxwy
  NG2R53   CG2R53   CG3C51   CG3C52     9   180.000000     4.393200     3 ; from NG2R53 CG2R53 CG3C52 CG3C52, penalty= 4 6V1 SUI
  NG2R53   CG2R53   CG3C51    NG2S1     9   180.000000     4.461818     3 ; SUI, by ac_aa
  NG2R53   CG2R53   CG3C51    SG311     9   180.000000     2.891562     3 ; 6V1, by ac_aa
  NG2R53   CG2R53   CG3C51     HGA1     9   180.000000     0.000000     3 ; from NG2R53 CG2R53 CG3C52 HGA2, penalty= 4 6V1 SUI
   OG2D1   CG2R53   CG3C51   CG3C52     9     0.000000     0.334720     3 ; from OG2D1 CG2R53 CG3C52 CG3C52, penalty= 4 6V1 SUI
   OG2D1   CG2R53   CG3C51    NG2S1     9     0.000000     1.171102     3 ; SUI, by ac_aa
   OG2D1   CG2R53   CG3C51    SG311     9     0.000000     0.337230     3 ; 6V1, by ac_aa
   OG2D1   CG2R53   CG3C51     HGA1     9     0.000000     0.000000     3 ; from OG2D1 CG2R53 CG3C52 HGA2, penalty= 4 6V1 SUI
  NG2R53   CG2R53   CG3C52   CG3C51     9   180.000000     4.393200     3 ; from NG2R53 CG2R53 CG3C52 CG3C52, penalty= 0.4 6V1 SUI
  NG2R53   CG2R53   CG3C52   CG3C52     9   180.000000     4.393200     3 ; 2PDO, 2-pyrrolidinone, kevo
  NG2R53   CG2R53   CG3C52     HGA2     9   180.000000     0.000000     3 ; 2PDO, 2-pyrrolidinone, kevo
   OG2D1   CG2R53   CG3C52   CG2R51     9     0.000000     0.334720     3 ; A2FO, from OG2D1 CG2R53 CG3C52 CG3C52, ctsai
   OG2D1   CG2R53   CG3C52   CG3C51     9     0.000000     0.334720     3 ; from OG2D1 CG2R53 CG3C52 CG3C52, penalty= 0.4 6V1 SUI
   OG2D1   CG2R53   CG3C52   CG3C52     9     0.000000     0.334720     3 ; 2PDO, 2-pyrrolidinone, kevo
   OG2D1   CG2R53   CG3C52     HGA2     9     0.000000     0.000000     3 ; = 2PDO, 2-pyrrolidinone, kevo
  OG3C51   CG2R53   CG3C52   CG2R51     9     0.000000     0.916296     3 ; A2FO, 3H-furan-2-one, ctsai
  OG3C51   CG2R53   CG3C52   CG2R51     9     0.000000     1.209176     4 ; A2FO, 3H-furan-2-one, ctsai
  OG3C51   CG2R53   CG3C52   CG3C52     9     0.000000     9.916080     2 ; GBL, Gamma-batyrolactone, ctsai
  OG3C51   CG2R53   CG3C52     HGA2     9   180.000000     0.000000     3 ; GBL, from NG2R53 CG2R53 CG3C52 HGA2, ctsai
  CG3C41   CG2R53   NG2R43   CG3C41     9   180.000000     6.276000     2 ; AZDO, 2-azetidinone, kevo
  CG3C41   CG2R53   NG2R43     HGP1     9     0.000000     0.000000     1 ; AZDO, 2-azetidinone, kevo
   OG2D1   CG2R53   NG2R43   CG3C41     9   180.000000    10.460000     2 ; AZDO, 2-azetidinone, kevo
   OG2D1   CG2R53   NG2R43     HGP1     9   180.000000    10.460000     2 ; AZDO, 2-azetidinone, kevo
  CG2DC1   CG2R53   NG2R50   CG251O     9   180.000000     0.307106     2 ; NRQ, by ac_aa
  CG2DC2   CG2R53   NG2R50   CG252O     9   180.000000     0.307106     2 ; NRQ, by ac_aa
  CG2R61   CG2R53   NG2R50   CG2R51     9   180.000000    16.736000     2 ; 2PTZ model for D3R, xxwy
   CG311   CG2R53   NG2R50   CG251O     9   180.000000     0.373631     2 ; MDO, by ac_aa
   CG311   CG2R53   NG2R50   CG252O     9   180.000000     0.373631     2 ; MDO, by ac_aa
   CG311   CG2R53   NG2R50   CG2R51     9   180.000000    20.576075     2 ; from CG331 CG2R53 NG2R50 CG2R51, B2H
   CG321   CG2R53   NG2R50   CG251O     9   180.000000     0.373631     2 ; from CG251O NG2R50 CG2R53 CG311 CR2
   CG321   CG2R53   NG2R50   CG252O     9   180.000000     0.373631     2 ; from CG251O NG2R50 CG2R53 CG311 CR2
   CG321   CG2R53   NG2R50   CG2R51     9   180.000000    20.576075     2 ; from CG331 CG2R53 NG2R50 CG2R51, DDE
   CG321   CG2R53   NG2R50   NG2R50     9   180.000000    29.288000     2 ; ETEA, 5-Ethyl-1H-tetrazole, pchat
   CG331   CG2R53   NG2R50   CG251O     9   180.000000     0.677808     2 ; MDO, by ac_aa
   CG331   CG2R53   NG2R50   CG252O     9   180.000000     0.677808     2 ; MDO, by ac_aa
   CG331   CG2R53   NG2R50   CG2R51     9   180.000000    20.576075     2 ; B2H, by ac_aa
   CG331   CG2R53   NG2R50   CG2RC0     9   180.000000    23.012000     2 ; 8MA, yxu, RNA
   CG331   CG2R53   NG2R50   NG2R50     9   180.000000    29.288000     2 ; MTEA, 5-Methyl-1H-tetrazole , pchat
  NG2R50   CG2R53   NG2R50   CG2R53     9   180.000000    41.840000     2 ; TRZ4, triazole124, xxwy
  NG2R50   CG2R53   NG2R50   NG2R50     9   180.000000    52.514221     2 ; TEZA, by ac_aa
  NG2R50   CG2R53   NG2R50   NG2R51     9   180.000000    50.208000     2 ; TRZ4, triazole124, xxwy
  NG2R50   CG2R53   NG2R50   OG2R50     9   180.000000    50.208000     2 ; OXD4, oxadiazole124, xxwy
  NG2R51   CG2R53   NG2R50   CG251O     9   180.000000    50.208000     2 ; from NG2R51 CG2R53 NG2R50 CG2R53, PENALTY= 3.5 CRQ SWG CRF CRO MDO PIA DYG NRQ
  NG2R51   CG2R53   NG2R50   CG252O     9   180.000000    50.208000     2 ; from NG2R51 CG2R53 NG2R50 CG2R53, PENALTY= 3.5 CRQ SWG CRF CRO MDO PIA DYG NRQ
  NG2R51   CG2R53   NG2R50   CG2R51     9   180.000000    58.576000     2 ; PROT his, ADM JR., 7/20/89
  NG2R51   CG2R53   NG2R50   CG2R53     9   180.000000    50.208000     2 ; TRZ4, triazole124, xxwy
  NG2R51   CG2R53   NG2R50   CG2RC0     9   180.000000    58.576000     2 ; NA A
  NG2R51   CG2R53   NG2R50   NG2R50     9   180.000000    58.576000     2 ; TEAZ , 1H-tetrazole, pchat
  NG3C51   CG2R53   NG2R50   CG3C52     9   180.000000    75.312000     2 ; 14 ! 13 2IMI, 2-imidazoline 1, kevo
  OG2R50   CG2R53   NG2R50   CG2R51     9   180.000000    58.576000     2 ; OXAZ, oxazole
  OG2R50   CG2R53   NG2R50   CG2R53     9   180.000000    50.208000     2 ; OXD4, oxadiazole124, xxwy
  SG2R50   CG2R53   NG2R50   CG2R51     9   180.000000    25.104000     2 ; THAZ, thiazole @@@@@ Kenno: 7.0 --> 6.0 @@@@@
  SG2R50   CG2R53   NG2R50   CG2RC0     9   180.000000    52.300000     2 ; ZTHZ, benzothiazole, kevo
    FGR1   CG2R53   NG2R50   CG2R51     9   180.000000    52.204605     2 ; 2HF1, by ac_aa
   HGR52   CG2R53   NG2R50   CG251O     9   180.000000     1.816274     2 ; NRQ, by ac_aa
   HGR52   CG2R53   NG2R50   CG252O     9   180.000000     1.816274     2 ; NRQ, by ac_aa
   HGR52   CG2R53   NG2R50   CG2R51     9   180.000000     8.368000     2 ; NA bases
   HGR52   CG2R53   NG2R50   CG2R53     9   180.000000    23.012000     2 ; TRZ4, triazole124, xxwy
   HGR52   CG2R53   NG2R50   CG2RC0     9   180.000000    21.756800     2 ; NA A
   HGR52   CG2R53   NG2R50   CG3C52     9   180.000000    47.697600     2 ; 2IMI, 2-imidazoline, kevo
   HGR52   CG2R53   NG2R50   NG2R50     9   180.000000    17.991200     2 ; TEAZ , 1H-tetrazole, pchat
   HGR52   CG2R53   NG2R50   NG2R51     9   180.000000    13.807200     2 ; TRZ4, triazole124, xxwy
   HGR52   CG2R53   NG2R50   OG2R50     9   180.000000    15.899200     2 ; OXD4, oxadiazole124, xxwy
  CG251O   CG2R53   NG2R51   CG2R53     9   180.000000     8.368000     2 ; from CG25C1 CG2R53 NG2R51 CG2RC0, PENALTY= 8.5 CRQ SWG CRF CRO MDO PIA DYG NRQ
  CG251O   CG2R53   NG2R51    CG321     9   180.000000     0.083680     2 ; XYG, by ac_aa
  CG251O   CG2R53   NG2R51    CG331     9   180.000000     0.001255     2 ; NRQ, by ac_aa
  CG252O   CG2R53   NG2R51   CG2R53     9   180.000000     8.368000     2 ; from CG25C1 CG2R53 NG2R51 CG2RC0, PENALTY= 8.5 CRQ SWG CRF CRO MDO PIA DYG NRQ
  CG252O   CG2R53   NG2R51    CG321     9   180.000000     0.083680     2 ; XYG, by ac_aa
  CG252O   CG2R53   NG2R51    CG331     9   180.000000     0.001255     2 ; NRQ, by ac_aa
  CG25C1   CG2R53   NG2R51   CG2RC0     9   180.000000     8.368000     2 ; MEOI, methyleneoxindole, kevo & xxwy
  CG25C1   CG2R53   NG2R51     HGP1     9   180.000000     1.255200     2 ; MEOI, methyleneoxindole, kevo & xxwy
  CG25C2   CG2R53   NG2R51   CG2RC0     9   180.000000     8.368000     2 ; MEOI, methyleneoxindole, kevo & xxwy
  CG25C2   CG2R53   NG2R51     HGP1     9   180.000000     1.255200     2 ; MEOI, methyleneoxindole, kevo & xxwy
  CG2DC1   CG2R53   NG2R51   CG2R53     9   180.000000     1.124659     2 ; NRQ, by ac_aa
  CG2DC1   CG2R53   NG2R51    CG321     9   180.000000     0.263174     2 ; from CG331 NG2R51 CG2R53 CG2DC1, XYG
  CG2DC1   CG2R53   NG2R51    CG331     9   180.000000     0.263174     2 ; NRQ, by ac_aa
  CG2DC2   CG2R53   NG2R51   CG2R53     9   180.000000     1.124659     2 ; NRQ, by ac_aa
  CG2DC2   CG2R53   NG2R51    CG321     9   180.000000     0.263174     2 ; from CG331 NG2R51 CG2R53 CG2DC1, XYG
  CG2DC2   CG2R53   NG2R51    CG331     9   180.000000     0.263174     2 ; NRQ, by ac_aa
   CG311   CG2R53   NG2R51   CG2R51     9   180.000000    13.786280     2 ; from CG331 CG2R53 NG2R51 CG2R51, B2H
   CG311   CG2R53   NG2R51   CG2R53     9   180.000000     0.393296     2 ; MDO, by ac_aa
   CG311   CG2R53   NG2R51    CG321     9   180.000000     0.017154     2 ; from CG321 NG2R51 CG2R53 CG331, B2H
   CG311   CG2R53   NG2R51    CG331     9   180.000000     0.202087     2 ; MDO, by ac_aa
   CG321   CG2R53   NG2R51   CG2R51     9   180.000000    13.786280     2 ; from CG331 CG2R53 NG2R51 CG2R51, DDE
   CG321   CG2R53   NG2R51   CG2R53     9   180.000000     0.393296     2 ; from CG2R53 NG2R51 CG2R53 CG311 CR2
   CG321   CG2R53   NG2R51    CG321     9   180.000000     0.202087     2 ; from CG331 NG2R51 CG2R53 CG311 CR2
   CG321   CG2R53   NG2R51   NG2R50     9   180.000000    20.920000     2 ; ETEA, 5-Ethyl-1H-tetrazole, pchat
   CG321   CG2R53   NG2R51     HGP1     9   180.000000     4.184000     2 ; ETEA, 5-Ethyl-1H-tetrazole, pchat
   CG331   CG2R53   NG2R51   CG2R51     9   180.000000    13.786280     2 ; B2H, by ac_aa
   CG331   CG2R53   NG2R51   CG2R53     9   180.000000    29.568746     2 ; DYG, by ac_aa
   CG331   CG2R53   NG2R51   CG2RC0     9   180.000000    23.012000     2 ; 8MA, yxu, RNA
   CG331   CG2R53   NG2R51    CG321     9   180.000000     0.017154     2 ; C12, by ac_aa
   CG331   CG2R53   NG2R51    CG331     9   180.000000    12.552000     2 ; 8MA, yxu, RNA
   CG331   CG2R53   NG2R51   NG2R50     9   180.000000    20.920000     2 ; MTEA, 5-Methyl-1H-tetrazole , pchat
   CG331   CG2R53   NG2R51     HGP1     9   180.000000     4.184000     2 ; MTEA, 5-Methyl-1H-tetrazole , pchat
  NG2R50   CG2R53   NG2R51   CG2R51     9   180.000000    58.576000     2 ; PROT his, ADM JR., 7/20/89
  NG2R50   CG2R53   NG2R51   CG2R53     9   180.000000    58.576000     2 ; from NG2R50 CG2R53 NG2R51 CG2R51, PENALTY= 2.5 CRQ SWG CRF CRO MDO PIA DYG NRQ
  NG2R50   CG2R53   NG2R51   CG2RC0     9   180.000000    25.104000     2 ; NA A
  NG2R50   CG2R53   NG2R51    CG321     9   180.000000    46.024000     2 ; from NG2R50 CG2R53 NG2R51 CG331, PENALTY= 0.9 CRQ SWG CRF B2H CRO MDO C12 TRZ4
  NG2R50   CG2R53   NG2R51    CG331     9   180.000000    46.024000     2 ; 9MAD, 9-Methyl-Adenine, kevo for gsk/ibm
  NG2R50   CG2R53   NG2R51   CG3C51     9   180.000000    46.024000     2 ; NA, glycosyl linkage
  NG2R50   CG2R53   NG2R51   CG3RC1     9   180.000000     6.276000     2 ; NA bases
  NG2R50   CG2R53   NG2R51   NG2R50     9   180.000000    41.840000     2 ; TRZ4, triazole124, xxwy
  NG2R50   CG2R53   NG2R51      PG2     9   180.000000     7.249198     2 ; NEP, by ac_aa
  NG2R50   CG2R53   NG2R51     HGP1     9   180.000000     4.184000     2 ; PROT his, ADM JR., 7/20/89
   OG2D1   CG2R53   NG2R51   CG2R53     9   180.000000    10.460000     2 ; from OG2D1 CG2R53 NG2R51 CG2RC0, PENALTY= 7 CRQ SWG CRF CRO MDO PIA DYG NRQ
   OG2D1   CG2R53   NG2R51   CG2RC0     9   180.000000    10.460000     2 ; MEOI, methyleneoxindole, kevo & xxwy
   OG2D1   CG2R53   NG2R51    CG321     9   180.000000     0.083680     2 ; XYG, by ac_aa
   OG2D1   CG2R53   NG2R51    CG331     9   180.000000     0.000418     2 ; NRQ, by ac_aa
   OG2D1   CG2R53   NG2R51     HGP1     9   180.000000     3.598240     2 ; MEOI, methyleneoxindole, kevo & xxwy
    FGR1   CG2R53   NG2R51   CG2R51     9   180.000000    12.793835     2 ; 2HF1, by ac_aa
    FGR1   CG2R53   NG2R51     HGP1     9   180.000000     1.401640     2 ; 2HF1, by ac_aa
   HGR52   CG2R53   NG2R51   CG2R51     9   180.000000    12.552000     2 ; PROT his, adm jr., 6/27/90
   HGR52   CG2R53   NG2R51   CG2R53     9   180.000000    31.190465     2 ; NRQ, by ac_aa
   HGR52   CG2R53   NG2R51   CG2RC0     9   180.000000    23.430400     2 ; NA G
   HGR52   CG2R53   NG2R51    CG321     9   180.000000     0.000000     2 ; from HGR52 CG2R53 NG2R51 CG331, PENALTY= 0.9 TRZ4 XYG
   HGR52   CG2R53   NG2R51    CG331     9   180.000000     0.000000     2 ; 9MAD, 9-Methyl-Adenine, kevo for gsk/ibm
   HGR52   CG2R53   NG2R51   CG3C51     9   180.000000     0.000000     2 ; NA, glycosyl linkage
   HGR52   CG2R53   NG2R51   CG3RC1     9   180.000000     6.276000     2 ; NA bases
   HGR52   CG2R53   NG2R51   NG2R50     9   180.000000     7.112800     2 ; TRZ4, triazole124, xxwy
   HGR52   CG2R53   NG2R51      PG2     9   180.000000     4.547590     2 ; NEP, by ac_aa
   HGR52   CG2R53   NG2R51     HGP1     9   180.000000     4.184000     2 ; PROT his, adm jr., 6/27/90
   CG321   CG2R53   NG2R52   CG2R51     9   180.000000     7.623666     2 ; from CG331 CG2R53 NG2R52 CG2R51, DDEP
   CG321   CG2R53   NG2R52     HGP2     9   180.000000     3.878568     2 ; from CG331 CG2R53 NG2R52 HGP2, DDEP
   CG331   CG2R53   NG2R52   CG2R51     9   180.000000     7.623666     2 ; DDEP, by ac_aa
   CG331   CG2R53   NG2R52     HGP2     9   180.000000     3.878568     2 ; DDEP, by ac_aa
  NG2R52   CG2R53   NG2R52   CG2R51     9   180.000000    50.208000     2 ; PROT his, ADM JR., 7/20/89
  NG2R52   CG2R53   NG2R52   CG2RC0     9   180.000000    58.576000     2 ; 7MG, NA36, RNA
  NG2R52   CG2R53   NG2R52    CG334     9   180.000000    15.480800     2 ; 7MG, yxu, RNA
  NG2R52   CG2R53   NG2R52   CG3C54     9   180.000000    32.216800     2 ; 7.7 2IMP, 2-imidazoline.H+, kevo
  NG2R52   CG2R53   NG2R52     HGP2     9   180.000000     5.857600     2 ; PROT his, adm jr., 6/27/90
    FGR1   CG2R53   NG2R52   CG2R51     9   180.000000    14.879978     2 ; 2HF, by ac_aa
    FGR1   CG2R53   NG2R52     HGP2     9   180.000000     6.281021     2 ; 2HF, by ac_aa
   HGR53   CG2R53   NG2R52   CG2R51     9   180.000000    12.552000     2 ; PROT his, adm jr., 6/27/90
   HGR53   CG2R53   NG2R52   CG2RC0     9   180.000000    11.296800     2 ; 7MG, yxu, RNA
   HGR53   CG2R53   NG2R52    CG334     9   180.000000     4.184000     2 ; 7MG, yxu, RNA
   HGR53   CG2R53   NG2R52   CG3C54     9   180.000000    26.359200     2 ; 2IMP, 2-imidazoline.H+, kevo
   HGR53   CG2R53   NG2R52     HGP2     9   180.000000     0.000000     2 ; PROT his, adm jr., 6/27/90, YES, 0.0
  CG251O   CG2R53   NG2R53   CG2R53     9   180.000000     6.276000     2 ; MRDN, methylidene rhodanine, kevo & xxwy
  CG251O   CG2R53   NG2R53    CG311     9     0.000000     6.694400     1 ; drug design project, xxwy
  CG251O   CG2R53   NG2R53    CG311     9   180.000000    10.460000     2 ; drug design project, xxwy
  CG251O   CG2R53   NG2R53     HGP1     9   180.000000     7.112800     2 ; MRDN, methylidene rhodanine, kevo & xxwy
  CG252O   CG2R53   NG2R53   CG2R53     9   180.000000     6.276000     2 ; MRDN, methylidene rhodanine, kevo & xxwy
  CG252O   CG2R53   NG2R53    CG311     9     0.000000     6.694400     1 ; drug design project, xxwy
  CG252O   CG2R53   NG2R53    CG311     9   180.000000    10.460000     2 ; drug design project, xxwy
  CG252O   CG2R53   NG2R53     HGP1     9   180.000000     7.112800     2 ; MRDN, methylidene rhodanine, kevo & xxwy
  CG3C50   CG2R53   NG2R53   CG2RC0     9   180.000000     0.836800     2 ; MSCH model for D3R, xxwy
  CG3C50   CG2R53   NG2R53    CG331     9   180.000000     0.836800     2 ; MSCH model for D3R, xxwy
  CG3C51   CG2R53   NG2R53   CG2R53     9   180.000000     0.836800     2 ; from CG3C50 CG2R53 NG2R53 CG2RC0, penalty= 7.8 6V1 SUI
  CG3C51   CG2R53   NG2R53    CG321     9   180.000000     0.836800     2 ; from CG3C50 CG2R53 NG2R53 CG331, penalty= 1.7 6V1 SUI
  CG3C51   CG2R53   NG2R53    CG331     9   180.000000     0.836800     2 ; from CG3C50 CG2R53 NG2R53 CG331, penalty= 0.8, sm155
  CG3C52   CG2R53   NG2R53   CG2R53     9   180.000000     0.836800     2 ; from CG3C50 CG2R53 NG2R53 CG2RC0, penalty= 8.2 6V1 SUI
  CG3C52   CG2R53   NG2R53    CG321     9   180.000000     0.836800     2 ; from CG3C50 CG2R53 NG2R53 CG331, penalty= 2.1 6V1 SUI
  CG3C52   CG2R53   NG2R53    CG331     9   180.000000     0.836800     2 ; from CG3C50 CG2R53 NG2R53 CG331, penalty= 1.2, sm155
  CG3C52   CG2R53   NG2R53   CG3C52     9   180.000000     1.673600     2 ; 2PDO, 2-pyrrolidinone, kevo
  CG3C52   CG2R53   NG2R53     HGP1     9   180.000000     5.313680     2 ; 2PDO, 2-pyrrolidinone, kevo
  NG2R53   CG2R53   NG2R53   CG251O     9   180.000000     2.092000     2 ; MHYO, 5-methylenehydantoin, xxwy
  NG2R53   CG2R53   NG2R53   CG252O     9   180.000000     2.092000     2 ; MHYO, 5-methylenehydantoin, xxwy
  NG2R53   CG2R53   NG2R53   CG2R53     9   180.000000     2.092000     2 ; MHYO, 5-methylenehydantoin, xxwy
  NG2R53   CG2R53   NG2R53    CG311     9   180.000000     2.092000     2 ; drug design project, xxwy
  NG2R53   CG2R53   NG2R53   CG3RC1     9   180.000000     2.092000     2 ; CBHH, glycoluril, (NG2R53 CG2R53 NG2R53 CG311), jing
  NG2R53   CG2R53   NG2R53     HGP1     9   180.000000     3.347200     2 ; MHYO, 5-methylenehydantoin, xxwy
   OG2D1   CG2R53   NG2R53   CG251O     9   180.000000    25.104000     2 ; MHYO, 5-methylenehydantoin, xxwy
   OG2D1   CG2R53   NG2R53   CG252O     9   180.000000    25.104000     2 ; MHYO, 5-methylenehydantoin, xxwy
   OG2D1   CG2R53   NG2R53   CG2R53     9   180.000000     4.602400     2 ; MRDN, methylidene rhodanine, kevo & xxwy
   OG2D1   CG2R53   NG2R53   CG2RC0     9   180.000000     0.836800     2 ; MSCH model for D3R, xxwy
   OG2D1   CG2R53   NG2R53    CG311     9   180.000000    10.460000     2 ; drug design project, xxwy
   OG2D1   CG2R53   NG2R53    CG321     9   180.000000    10.460000     2 ; from OG2D1 CG2R53 NG2R53 CG311, penalty= 0.6 6V1 SUI
   OG2D1   CG2R53   NG2R53    CG331     9   180.000000     0.836800     2 ; MSCH model for D3R, xxwy
   OG2D1   CG2R53   NG2R53   CG3C52     9   180.000000    10.836560     2 ; 2PDO, 2-pyrrolidinone, kevo
   OG2D1   CG2R53   NG2R53   CG3RC1     9   180.000000    10.836560     2 ; CBHH, glycoluril, (OG2D1  CG2R53 NG2R53 CG3C52), jing
   OG2D1   CG2R53   NG2R53     HGP1     9   180.000000     3.598240     2 ; 2PDO, 2-pyrrolidinone, kevo
   SG2D1   CG2R53   NG2R53   CG2R53     9   180.000000     6.276000     2 ; MRDN, methylidene rhodanine, kevo & xxwy
   SG2D1   CG2R53   NG2R53    CG311     9   180.000000     6.276000     2 ; drug design project, xxwy
   SG2D1   CG2R53   NG2R53     HGP1     9   180.000000     4.184000     2 ; MRDN, methylidene rhodanine, kevo & xxwy
   SG311   CG2R53   NG2R53   CG2R53     9   180.000000     6.276000     2 ; MRDN, methylidene rhodanine, kevo & xxwy
   SG311   CG2R53   NG2R53    CG311     9   180.000000     6.276000     2 ; drug design project, xxwy
   SG311   CG2R53   NG2R53     HGP1     9   180.000000     7.112800     2 ; MRDN, methylidene rhodanine, kevo & xxwy
  NG2R50   CG2R53   NG3C51   CG3C52     9   180.000000    16.736000     2 ; 4 2IMI, 2-imidazoline x, kevo
  NG2R50   CG2R53   NG3C51     HGP1     9     0.000000     5.020800     3 ; .85 ! 0 ! 0.6 3 0 2IMI, 2-imidazoline -wN1H, kevo
   HGR52   CG2R53   NG3C51   CG3C52     9   180.000000     0.000000     2 ; 4.6 2IMI, 2-imidazoline, kevo
   HGR52   CG2R53   NG3C51     HGP1     9     0.000000     0.000000     3 ; 2IMI, 2-imidazoline, kevo
  NG2R50   CG2R53   OG2R50   CG2R51     9   180.000000    35.564000     2 ; OXAZ, oxazole
  NG2R50   CG2R53   OG2R50   NG2R50     9   180.000000    37.656000     2 ; OXD4, oxadiazole124, xxwy
   HGR52   CG2R53   OG2R50   CG2R51     9   180.000000    15.899200     2 ; OXAZ, oxazole
   HGR52   CG2R53   OG2R50   NG2R50     9   180.000000    16.736000     2 ; OXD4, oxadiazole124, xxwy
  CG2R51   CG2R53   OG3C51   CG3C52     9   180.000000     5.188160     2 ; B2FO, 5H-furan-2-one, ctsai
  CG2R51   CG2R53   OG3C51   CG3C52     9   180.000000     9.497680     3 ; B2FO, 5H-furan-2-one, ctsai
  CG3C52   CG2R53   OG3C51   CG2R51     9   180.000000     1.238464     2 ; A2FO, 3H-furan-2-one, ctsai
  CG3C52   CG2R53   OG3C51   CG2R51     9   180.000000     2.142208     3 ; A2FO, 3H-furan-2-one, ctsai
  CG3C52   CG2R53   OG3C51   CG3C52     9   180.000000    15.899200     2 ; GBL, Gamma-butyrolactone, ctsai
   OG2D1   CG2R53   OG3C51   CG2R51     9   180.000000    18.158560     2 ; A2FO, from CG2R51 CG2R51 OG3C51 CG3C52, ctsai
   OG2D1   CG2R53   OG3C51   CG3C52     9   180.000000    18.158560     2 ; GBL, from CG2R51 CG2R51 OG3C51 CG3C52, ctsai
  CG2R61   CG2R53   SG2R50   CG2R51     9   180.000000    16.736000     2 ; 2PTZ model for D3R, xxwy
  NG2R50   CG2R53   SG2R50   CG2R51     9   180.000000    35.564000     2 ; THAZ, thiazole @@@@@ Kenno: 8.0 --> 8.5 @@@@@
  NG2R50   CG2R53   SG2R50   CG2RC0     9   180.000000    12.552000     2 ; ZTHZ, benzothiazole, kevo
   HGR52   CG2R53   SG2R50   CG2R51     9   180.000000    23.012000     2 ; THAZ, thiazole
   HGR52   CG2R53   SG2R50   CG2RC0     9   180.000000    12.552000     2 ; ZTHZ, benzothiazole, kevo
  NG2R53   CG2R53    SG311   CG251O     9     0.000000     1.046000     1 ; MRDN, methylidene rhodanine, kevo & xxwy
  NG2R53   CG2R53    SG311   CG251O     9   180.000000     5.439200     2 ; MRDN, methylidene rhodanine, kevo & xxwy
  NG2R53   CG2R53    SG311   CG252O     9     0.000000     1.046000     1 ; MRDN, methylidene rhodanine, kevo & xxwy
  NG2R53   CG2R53    SG311   CG252O     9   180.000000     5.439200     2 ; MRDN, methylidene rhodanine, kevo & xxwy
   OG2D1   CG2R53    SG311   CG251O     9     0.000000     1.046000     1 ; MTDO, 5-methylene-2,4-thiazolidinedione, xxwy & oashi
   OG2D1   CG2R53    SG311   CG251O     9   180.000000     5.439200     2 ; MTDO, 5-methylene-2,4-thiazolidinedione, xxwy & oashi
   OG2D1   CG2R53    SG311   CG252O     9     0.000000     1.046000     1 ; MTDO, 5-methylene-2,4-thiazolidinedione, xxwy & oashi
   OG2D1   CG2R53    SG311   CG252O     9   180.000000     5.439200     2 ; MTDO, 5-methylene-2,4-thiazolidinedione, xxwy & oashi
   SG2D1   CG2R53    SG311   CG251O     9   180.000000     1.046000     1 ; MRDN, methylidene rhodanine, kevo & xxwy
   SG2D1   CG2R53    SG311   CG251O     9   180.000000     2.510400     2 ; MRDN, methylidene rhodanine, kevo & xxwy
   SG2D1   CG2R53    SG311   CG252O     9   180.000000     1.046000     1 ; MRDN, methylidene rhodanine, kevo & xxwy
   SG2D1   CG2R53    SG311   CG252O     9   180.000000     2.510400     2 ; MRDN, methylidene rhodanine, kevo & xxwy
  CG2R51   CG2R57   CG2R57   CG2R51     9   180.000000     1.882800     2 ; 33BPO, 3,3-bipyrrole, lf
  CG2R51   CG2R57   CG2R57   CG2R51     9     0.000000     0.334720     4 ; 33BPO, 3,3-bipyrrole, lf
  CG2R51   CG2R57   NG2R57   CG2R51     9   180.000000     1.338880     2 ; 13BPO, 1,3-bipyrrole, lf
  CG2R51   CG2R57   NG2R57   CG2R51     9     0.000000     0.502080     4 ; 13BPO, 1,3-bipyrrole, lf
  CG2R51   CG2R57   NG2R57   CG2R51     9     0.000000     0.062760     6 ; 13BPO, 1,3-bipyrrole, lf
   CG1N1   CG2R61   CG2R61   CG2R61     9   180.000000     8.368000     2 ; 3CYP, 3-Cyanopyridine (PYRIDINE pyr-CN), yin
   CG1N1   CG2R61   CG2R61   CG2RC0     9   180.000000     5.439200     2 ; CYIN, 5-cyanoindole; from 3CYP, 3-Cyanopyridine; alr
   CG1N1   CG2R61   CG2R61    CG321     9   180.000000    10.041600     2 ; CNP2, by ac_aa
   CG1N1   CG2R61   CG2R61   NG2R60     9   180.000000     4.184000     2 ; 3CYP, 3-Cyanopyridine (PYRIDINE pyr-CN), yin
   CG1N1   CG2R61   CG2R61    HGR61     9   180.000000    10.041600     2 ; 3CYP, 3-Cyanopyridine (PYRIDINE pyr-CN) Kenno: was 5.0 1 0.0 (sic!) ==> reset to default.
   CG1N1   CG2R61   CG2R61    HGR62     9   180.000000    10.041600     2 ; 3CYP, 3-Cyanopyridine (PYRIDINE pyr-CN) Kenno: was 5.0 1 0.0 (sic!) ==> reset to default.
  CG2DC1   CG2R61   CG2R61   CG2R61     9   180.000000    12.970400     2 ; HDZ2, hydrazone model cmpd 2
  CG2DC1   CG2R61   CG2R61    CG321     9   180.000000    11.319394     2 ; from CG331 CG2R61 CG2R61 CG2DC1, LLPP
  CG2DC1   CG2R61   CG2R61    CG331     9   180.000000    11.319394     2 ; LLPP, by ac_aa
  CG2DC1   CG2R61   CG2R61    OG311     9   180.000000    10.310213     2 ; LLPP, by ac_aa
  CG2DC1   CG2R61   CG2R61    HGR61     9   180.000000    10.041600     2 ; HDZ2, hydrazone model cmpd 2 Kenno: 4.2 -> 2.4
  CG2DC2   CG2R61   CG2R61   CG2R61     9   180.000000    12.970400     2 ; HDZ2, hydrazone model cmpd 2
  CG2DC2   CG2R61   CG2R61    CG321     9   180.000000    11.319394     2 ; from CG331 CG2R61 CG2R61 CG2DC1, LLPP
  CG2DC2   CG2R61   CG2R61    CG331     9   180.000000    11.319394     2 ; LLPP, by ac_aa
  CG2DC2   CG2R61   CG2R61    OG311     9   180.000000    10.310213     2 ; LLPP, by ac_aa
  CG2DC2   CG2R61   CG2R61    HGR61     9   180.000000    10.041600     2 ; HDZ2, hydrazone model cmpd 2 Kenno: 4.2 -> 2.4
   CG2N2   CG2R61   CG2R61   CG2R61     9   180.000000    12.970400     2 ; BAMI, benzamidinium; default parameter; sz
   CG2N2   CG2R61   CG2R61    HGR61     9   180.000000    10.041600     2 ; BAMI, benzamidinium; default parameter; sz
   CG2O1   CG2R61   CG2R61   CG2R61     9   180.000000    12.970400     2 ; 3NAP, nicotinamide Kenno: 1.0 -> 3.1
   CG2O1   CG2R61   CG2R61   NG2R60     9   180.000000    20.920000     2 ; 3NAP, nicotinamide
   CG2O1   CG2R61   CG2R61    HGR61     9   180.000000    10.041600     2 ; 3NAP, nicotinamide Kenno: 4.2 -> 2.4
   CG2O1   CG2R61   CG2R61    HGR62     9   180.000000    10.041600     2 ; 3NAP, nicotinamide Kenno: 4.2 -> 2.4
   CG2O2   CG2R61   CG2R61   CG2R61     9   180.000000    12.970400     2 ; ZOIC, benzoic acid, MBOA, methylbenzoate; default parameter; kevo & jal
   CG2O2   CG2R61   CG2R61   NG2R60     9   180.000000     4.184000     2 ; from CG2O4 CG2R61 CG2R61 NG2R60, penalty= 1.5 JJJ
   CG2O2   CG2R61   CG2R61    HGR61     9   180.000000    10.041600     2 ; ZOIC, benzoic acid, MBOA, methylbenzoate; default parameter; kevo & jal
   CG2O2   CG2R61   CG2R61    HGR62     9   180.000000    10.041600     2 ; from CG2O2 CG2R61 CG2R61 HGR61, penalty= 1 JJJ
   CG2O3   CG2R61   CG2R61   CG2R61     9   180.000000    12.970400     2 ; BIPHENYL ANALOGS, peml
   CG2O3   CG2R61   CG2R61    CG311     9   180.000000    10.041600     2 ; from CG331 CG2R61 CG2R61 NG2S1, PENALTY= 48.5 CYF
   CG2O3   CG2R61   CG2R61   NG2R60     9   180.000000     4.184000     2 ; PYRIDINE pyridine, yin
   CG2O3   CG2R61   CG2R61    NG2S1     9   180.000000    10.041600     2 ; 2XBD, Gamma 2-carboxy phenyl GA CDCA amide, corrected by kevo
   CG2O3   CG2R61   CG2R61    HGR61     9   180.000000    10.041600     2 ; PYRIDINE aminopyridine Kenno: 4.2 -> 2.4
   CG2O3   CG2R61   CG2R61    HGR62     9   180.000000    10.041600     2 ; PYRIDINE aminopyridine Kenno: 4.2 -> 2.4
   CG2O4   CG2R61   CG2R61   CG2R61     9   180.000000    12.970400     2 ; 3ALP, nicotinaldehyde (PYRIDINE pyr-aldehyde) unmodified, yin
   CG2O4   CG2R61   CG2R61   NG2R60     9   180.000000     4.184000     2 ; 3ALP, nicotinaldehyde (PYRIDINE pyr-aldehyde) unmodified, yin
   CG2O4   CG2R61   CG2R61    HGR61     9   180.000000    10.041600     2 ; 3ALP, nicotinaldehyde (PYRIDINE pyr-aldehyde) Kenno: 4.2 -> 2.4 unmodified
   CG2O4   CG2R61   CG2R61    HGR62     9   180.000000    10.041600     2 ; 3ALP, nicotinaldehyde (PYRIDINE pyr-aldehyde) Kenno: 4.2 -> 2.4 unmodified
   CG2O5   CG2R61   CG2R61   CG2R61     9   180.000000    12.970400     2 ; BIPHENYL ANALOGS unmodified, peml
   CG2O5   CG2R61   CG2R61   NG2R60     9   180.000000    20.920000     2 ; 3ACP, 3-acetylpyridine unmodified
   CG2O5   CG2R61   CG2R61    NG2S3     9   180.000000     5.409075     2 ; KYN, by ac_aa
   CG2O5   CG2R61   CG2R61    HGR61     9   180.000000    10.041600     2 ; 3ACP, 3-acetylpyridine reset to default by kevo; verified by mcs
   CG2O5   CG2R61   CG2R61    HGR62     9   180.000000    10.041600     2 ; 3ACP, 3-acetylpyridine reset to default by kevo; verified by mcs
  CG2R53   CG2R61   CG2R61   CG2R61     9   180.000000    12.552000     2 ; 2PTZ model for D3R, xxwy
  CG2R53   CG2R61   CG2R61    HGR61     9   180.000000     8.368000     2 ; 2PTZ model for D3R, xxwy
  CG2R61   CG2R61   CG2R61   CG2R61     9   180.000000    12.970400     2 ; PROT JES 8/25/89
  CG2R61   CG2R61   CG2R61   CG2R62     9   180.000000     2.092000     2 ; RIN, coumarin, isg
  CG2R61   CG2R61   CG2R61   CG2R63     9   180.000000    13.388800     2 ; YTS2, 2,4(1H,3H)-quinazolinedithione, isg
  CG2R61   CG2R61   CG2R61   CG2R64     9   180.000000    12.970400     2 ; 18NFD, 1,8-naphthyridine, erh
  CG2R61   CG2R61   CG2R61   CG2R66     9   180.000000    12.970400     2 ; NAMODEL difluorotoluene
  CG2R61   CG2R61   CG2R61   CG2R67     9   180.000000    12.970400     2 ; BIPHENYL ANALOGS, peml
  CG2R61   CG2R61   CG2R61   CG2RC0     9   180.000000    12.552000     2 ; INDO/TRP
  CG2R61   CG2R61   CG2R61    CG301     9   180.000000    12.970400     2 ; from CG2R61 CG2R61 CG2R61 CG311, PENALTY= 1.2 TBP4
  CG2R61   CG2R61   CG2R61    CG302     9   180.000000    12.970400     2 ; from CG2R61 CG2R61 CG2R61 CG312, PENALTY= 2 TFG2 TFG3 TFG4
  CG2R61   CG2R61   CG2R61    CG311     9   180.000000    12.970400     2 ; NAMODEL difluorotoluene
  CG2R61   CG2R61   CG2R61    CG312     9   180.000000    12.970400     2 ; BDFP, BDFD, Difuorobenzylphosphonate
  CG2R61   CG2R61   CG2R61    CG321     9   180.000000    12.970400     2 ; PROT JES 8/25/89 toluene and ethylbenzene
  CG2R61   CG2R61   CG2R61    CG324     9   180.000000    12.970400     2 ; BPIP, N-Benzyl PIP, cacha
  CG2R61   CG2R61   CG2R61    CG331     9   180.000000    12.970400     2 ; PROT toluene, adm jr., 3/7/92
  CG2R61   CG2R61   CG2R61    NG2D1     9   180.000000    11.386338     2 ; ABNB, amide base, sr
  CG2R61   CG2R61   CG2R61    NG2O1     9   180.000000     8.368000     2 ; NITB, nitrobenzene
  CG2R61   CG2R61   CG2R61   NG2R51     9   180.000000    20.920000     2 ; D3R set1 scaffold 1, xxwy
  CG2R61   CG2R61   CG2R61   NG2R60     9   180.000000     5.020800     2 ; PYR1, pyridine, yin
  CG2R61   CG2R61   CG2R61   NG2R61     9   180.000000    15.480800     2 ; YTS2, 2,4(1H,3H)-quinazolinedithione, isg
  CG2R61   CG2R61   CG2R61   NG2R62     9   180.000000     5.020800     2 ; PYRD, pyridazine (also applies to PYRM, pyrimidine); from PYR1, pyridine, yin; adm
  CG2R61   CG2R61   CG2R61   NG2RC0     9   180.000000     6.276000     2 ; INDZ, indolizine, kevo
  CG2R61   CG2R61   CG2R61    NG2S0     9   180.000000    12.970400     2 ; dmpu, yxu, RNA, fentanyl, Lesnik et al, 2020
  CG2R61   CG2R61   CG2R61    NG2S1     9   180.000000    12.970400     2 ; RETINOL PACP
  CG2R61   CG2R61   CG2R61    NG2S3     9   180.000000    20.920000     2 ; PYRIDINE aminopyridine, yin
  CG2R61   CG2R61   CG2R61    NG301     9   180.000000     5.857600     2 ; DMAN, N,N-dimethylaniline, kevo
  CG2R61   CG2R61   CG2R61    NG311     9   180.000000    12.970400     2 ; FEOZ, phenoxazine, erh based on PROT toluene, adm jr., 3/7/92
  CG2R61   CG2R61   CG2R61    NG3N1     9   180.000000    12.970400     2 ; PHHZ, phenylhydrazine, ed; reset to default param by kevo
  CG2R61   CG2R61   CG2R61    OG301     9   180.000000    12.970400     2 ; BIPHENYL ANALOGS, peml
  CG2R61   CG2R61   CG2R61    OG303     9   180.000000    12.970400     2 ; PROTNA phenol phosphate, 6/94, adm jr.
  CG2R61   CG2R61   CG2R61    OG311     9   180.000000    12.970400     2 ; PYRIDINE phenol, yin
  CG2R61   CG2R61   CG2R61    OG312     9   180.000000    12.970400     2 ; PROT adm jr. 8/27/91, phenoxide
  CG2R61   CG2R61   CG2R61   OG3R60     9   180.000000    12.970400     2 ; FEOZ, phenoxazine, erh based on PROT toluene, adm jr., 3/7/92
  CG2R61   CG2R61   CG2R61    SG311     9   180.000000    18.828000     2 ; FETZ, phenothiazine, erh based on toluene, adm jr., 3/7/92
  CG2R61   CG2R61   CG2R61    SG3O1     9   180.000000    12.970400     2 ; based on toluene, adm jr., 3/7/92
  CG2R61   CG2R61   CG2R61    SG3O2     9   180.000000    12.552000     2 ; BSAM, benzenesulfonamide and other sulfonamides, xxwy
  CG2R61   CG2R61   CG2R61    CLGR1     9   180.000000    12.552000     2 ; CHLB, chlorobenzene
  CG2R61   CG2R61   CG2R61    BRGR1     9   180.000000    12.552000     2 ; BROB, bromobenzene
  CG2R61   CG2R61   CG2R61     IGR1     9   180.000000     8.786400     2 ; IODB, iodobenzene
  CG2R61   CG2R61   CG2R61    BG201     9   180.000000     5.857600     2 ; BORB,BONB,BNNB Boronic acid, sr
  CG2R61   CG2R61   CG2R61    HGR61     9   180.000000    17.572800     2 ; PROT JES 8/25/89 benzene
  CG2R61   CG2R61   CG2R61    HGR62     9   180.000000    17.572800     2 ; BROB, bromobenzene
  CG2R62   CG2R61   CG2R61    HGR61     9   180.000000    17.572800     2 ; RIN, coumarin, isg
  CG2R63   CG2R61   CG2R61   NG2R61     9   180.000000     2.092000     2 ; YTS2, 2,4(1H,3H)-quinazolinedithione, isg
  CG2R63   CG2R61   CG2R61   NG2R62     9   180.000000     5.020800     2 ; 43HSPY, 4(3H)-pyrimidinethione; from CG2R64 CG2R61 CG2R61 NG2R62; isg
  CG2R63   CG2R61   CG2R61    HGR61     9   180.000000     4.184000     2 ; YTS2, 2,4(1H,3H)-quinazolinedithione, isg
  CG2R63   CG2R61   CG2R61    HGR62     9   180.000000     2.092000     2 ; URA24S, 2,4(1H,3H)-pyrimidinedithione; from CG2R64 CG2R61 CG2R61 HGR62; isg
  CG2R64   CG2R61   CG2R61    CG331     9   180.000000    12.970400     2 ; 2A46PD, 2-Amino-4,6-dimethyl-pyridine CDCA conjugate, cacha
  CG2R64   CG2R61   CG2R61    NG2P1     9   180.000000    12.970400     2 ; K2C, yxu, 16/7,13, RNA
  CG2R64   CG2R61   CG2R61   NG2R61     9   180.000000    25.104000     2 ; 2SC, from NA36, RNA
  CG2R64   CG2R61   CG2R61   NG2R62     9   180.000000     5.020800     2 ; PTID, pteridine, erh
  CG2R64   CG2R61   CG2R61    HGR61     9   180.000000     4.184000     2 ; 18NFD, 1,8-naphthyridine, erh
  CG2R64   CG2R61   CG2R61    HGR62     9   180.000000     2.092000     2 ; PTID, pteridine, erh
  CG2R66   CG2R61   CG2R61   CG2RC0     9   180.000000    12.970400     2 ; from CG2R61 CG2R61 CG2R61 CG2R66, PENALTY= 1.5 FT6 FTR
  CG2R66   CG2R61   CG2R61    CG321     9   180.000000    12.970400     2 ; from CG2R61 CG2R61 CG2R61 CG321, PENALTY= 1.5 F2F WFP YOF
  CG2R66   CG2R61   CG2R61    CG331     9   180.000000    12.970400     2 ; sidechai , from CG2R61 CG2R61 CG2R61 CG331, penalty= 1.5 F2F YOF
  CG2R66   CG2R61   CG2R61    NG2S1     9   180.000000    12.970400     2 ; 3FBD, 3-fluoroanilide patch. Kenno: copied from RETINOL PACP while retrofitting CG2R66 ==> re-optimize
  CG2R66   CG2R61   CG2R61    HGR61     9   180.000000    17.572800     2 ; NAMODEL difluorotoluene
  CG2R67   CG2R61   CG2R61    HGR61     9   180.000000    17.572800     2 ; BIPHENYL ANALOGS, peml
  CG2RC0   CG2R61   CG2R61    CG331     9   180.000000    12.970400     2 ; from CG2R61 CG2R61 CG2R61 CG331, PENALTY= 1.5 MTR5 MTR6
  CG2RC0   CG2R61   CG2R61    NG2S3     9   180.000000    20.920000     2 ; from CG2R61 CG2R61 CG2R61 NG2S3, PENALTY= 1.5 TQQ TTQ
  CG2RC0   CG2R61   CG2R61    NG3N1     9   180.000000    12.970400     2 ; from CG2R61 CG2R61 CG2R61 NG3N1, PENALTY= 1.5 TRW
  CG2RC0   CG2R61   CG2R61    OG301     9   180.000000    12.970400     2 ; from CG2R61 CG2R61 CG2R61 OG301, PENALTY= 1.5 MOT5
  CG2RC0   CG2R61   CG2R61    OG311     9   180.000000    12.970400     2 ; from CG2R61 CG2R61 CG2R61 OG311, PENALTY= 1.5 HRP TRX
  CG2RC0   CG2R61   CG2R61    CLGR1     9   180.000000    12.552000     2 ; from CG2R61 CG2R61 CG2R61 CLGR1, PENALTY= 1.5 6CW
  CG2RC0   CG2R61   CG2R61    BRGR1     9   180.000000    12.970400     2 ; drug design project, xxwy
  CG2RC0   CG2R61   CG2R61    HGR61     9   180.000000    12.552000     2 ; INDO/TRP
  CG2RC0   CG2R61   CG2R61    HGR62     9   180.000000    10.041600     2 ; drug design project, xxwy
   CG301   CG2R61   CG2R61    HGR61     9   180.000000    10.041600     2 ; from CG311 CG2R61 CG2R61 HGR61, PENALTY= 1.2 TBP4
   CG302   CG2R61   CG2R61    CG321     9   180.000000     8.269258     2 ; from CG302 CG2R61 CG2R61 CG331, TFP2
   CG302   CG2R61   CG2R61    CG331     9   180.000000     8.269258     2 ; TFG2, by ac_aa
   CG302   CG2R61   CG2R61    HGR61     9   180.000000    10.041600     2 ; from CG312 CG2R61 CG2R61 HGR61, PENALTY= 2 TFG2 TFG3 TFG4
   CG311   CG2R61   CG2R61    OG311     9   180.000000    10.041600     2 ; FBIB, Fatty Binding Inhibitior B, cacha Kenno: 4.2 -> 2.4
   CG311   CG2R61   CG2R61   OG3R60     9   180.000000    10.041600     2 ; from CG331 CG2R61 CG2R61 OG301, PENALTY= 8 CYF
   CG311   CG2R61   CG2R61    HGR61     9   180.000000    10.041600     2 ; NAMODEL difluorotoluene Kenno: 4.2 -> 2.4
   CG311   CG2R61   CG2R61    HGR62     9   180.000000    10.041600     2 ; from CG321 CG2R61 CG2R61 HGR62, PENALTY= 0.6 OMY
   CG312   CG2R61   CG2R61    HGR61     9   180.000000    10.041600     2 ; BDFP, BDFD, Difuorobenzylphosphonate Kenno: 4.2 -> 2.4
   CG321   CG2R61   CG2R61    CG331     9   180.000000    10.041600     2 ; from CG331 CG2R61 CG2R61 CG331, PENALTY= 0.9 MPH2
   CG321   CG2R61   CG2R61   NG2R60     9   180.000000     4.184000     2 ; PYRIDINE 3-ethylpyridine, yin
   CG321   CG2R61   CG2R61    OG311     9   180.000000    10.041600     2 ; from CG311 CG2R61 CG2R61 OG311, PENALTY= 0.6 OTYR TYQ
   CG321   CG2R61   CG2R61    CLGR1     9   180.000000    14.920562     2 ; CP24, by ac_aa
   CG321   CG2R61   CG2R61    HGR61     9   180.000000    10.041600     2 ; PROT JES 8/25/89 toluene and ethylbenzene Kenno: 4.2 -> 2.4
   CG321   CG2R61   CG2R61    HGR62     9   180.000000    10.041600     2 ; PROT JES 8/25/89 toluene and ethylbenzene Kenno: 4.2 -> 2.4
   CG324   CG2R61   CG2R61    HGR61     9   180.000000    10.041600     2 ; BPIP, N-Benzyl PIP, cacha Kenno: 4.2 -> 2.4
   CG331   CG2R61   CG2R61    CG331     9   180.000000    10.041600     2 ; OXYL, o-xylene, kevo for gsk/ibm
   CG331   CG2R61   CG2R61    NG2O1     9   180.000000    12.753669     2 ; PRV, by ac_aa
   CG331   CG2R61   CG2R61   NG2R60     9   180.000000     4.184000     2 ; PYRIDINE 3-methylpyridine, yin
   CG331   CG2R61   CG2R61    NG2S1     9   180.000000    10.041600     2 ; 3A2MPD, 3-amino-2-methyl-pyridine CDCA conjugate, corrected by kevo
   CG331   CG2R61   CG2R61    OG301     9   180.000000    10.041600     2 ; FBID, Fatty acid Binding protein Inhibitor D, cacha Kenno: 4.2 -> 2.4
   CG331   CG2R61   CG2R61    OG311     9   180.000000    10.041600     2 ; FBIA, Fatty Binding Inhibitior B, cacha Kenno: 4.2 -> 2.4
   CG331   CG2R61   CG2R61    CLGR1     9   180.000000    14.936880     2 ; CPG2, by ac_aa
   CG331   CG2R61   CG2R61    HGR61     9   180.000000    10.041600     2 ; PROT toluene, adm jr., 3/7/92 Kenno: 4.2 -> 2.4
   CG331   CG2R61   CG2R61    HGR62     9   180.000000    10.041600     2 ; PROT toluene, adm jr., 3/7/92 Kenno: 4.2 -> 2.4
   NG2D1   CG2R61   CG2R61    HGR61     9   180.000000    10.041600     2 ; ABNB, amide base, sr
   NG2O1   CG2R61   CG2R61    OG311     9   180.000000     6.629966     2 ; NIY, by ac_aa
   NG2O1   CG2R61   CG2R61    HGR61     9   180.000000     4.184000     2 ; NITB, nitrobenzene
   NG2P1   CG2R61   CG2R61    HGR61     9   180.000000    14.225600     2 ; K2C, yxu, 16/7,13, RNA
  NG2R51   CG2R61   CG2R61    HGR61     9   180.000000    10.041600     2 ; D3R set1 scaffold 1, xxwy
  NG2R60   CG2R61   CG2R61   NG2R60     9   180.000000     3.765600     2 ; PYZN, pyrazine
  NG2R60   CG2R61   CG2R61   NG2R61     9   180.000000     8.075120     2 ; flavin
  NG2R60   CG2R61   CG2R61   NG2R62     9   180.000000    12.552000     2 ; PTID, pteridine, erh
  NG2R60   CG2R61   CG2R61    NG2S1     9   180.000000    20.920000     2 ; 3AMP, 3-Amino pyridine, cacha
  NG2R60   CG2R61   CG2R61    NG2S3     9   180.000000    20.920000     2 ; PYRIDINE aminopyridine, yin
  NG2R60   CG2R61   CG2R61    OG311     9   180.000000     4.184000     2 ; PYRIDINE 3-hydroxypyridine Kenno: 0.0 (unlikely) -> 1.0 from 3-methylpyridine, yin
  NG2R60   CG2R61   CG2R61    BRGR1     9   180.000000    12.552000     2 ; 3A5BPD, Gamma-3-Amino-5-bromo Pyridine GA CDCA Amide, cacha
  NG2R60   CG2R61   CG2R61    HGR61     9   180.000000    11.715200     2 ; PYRIDINE pyridine, yin
  NG2R60   CG2R61   CG2R61    HGR62     9   180.000000    25.104000     2 ; PYZN, pyrazine
  NG2R61   CG2R61   CG2R61    HGR61     9   180.000000     3.347200     2 ; YTS2, 2,4(1H,3H)-quinazolinedithione, isg (may need to be re-evaluated; ideally re-check INDZ with molvib_energy script and also look at URA2S molvib)
  NG2R61   CG2R61   CG2R61    HGR62     9   180.000000     3.347200     2 ; URA24S, 2,4(1H,3H)-pyrimidinedithione; from NG2RC0 CG2R61 CG2R61 HGR61; isg (may need to be re-evaluated; ideally re-check INDZ with molvib_energy script and also look at URA2S molvib)
  NG2R62   CG2R61   CG2R61   NG2R62     9   180.000000     2.092000     2 ; TRIB, triazine124
  NG2R62   CG2R61   CG2R61    HGR61     9   180.000000    11.715200     2 ; PYRD, pyridazine
  NG2R62   CG2R61   CG2R61    HGR62     9   180.000000    25.104000     2 ; TRIB, triazine124
  NG2RC0   CG2R61   CG2R61    HGR61     9   180.000000     3.347200     2 ; INDZ, indolizine, kevo
   NG2S0   CG2R61   CG2R61    HGR61     9   180.000000    10.041600     2 ; DMPU, from NG2S1 CG2R61 CG2R61 HGR61, yxu, RNA
   NG2S1   CG2R61   CG2R61    OG301     9   180.000000    10.041600     2 ; 2AMFD, Gamma 2-amino phenyl methyl ether, corrected by kevo
   NG2S1   CG2R61   CG2R61    OG311     9   180.000000    10.041600     2 ; 2AMF, 2-acetamide phenol, cacha Kenno: 4.2 -> 2.4
   NG2S1   CG2R61   CG2R61    HGR61     9   180.000000    10.041600     2 ; RETINOL PACP Kenno: 4.2 -> 2.4
   NG2S1   CG2R61   CG2R61    HGR62     9   180.000000    10.041600     2 ; 3AMP, 3-Amino pyridine, cacha Kenno: 4.2 -> 2.4
   NG2S3   CG2R61   CG2R61    NG2S3     9   180.000000    12.970400     2 ; PYRIDINE diaminopyridine. Kenno: Change to 2.4 ???
   NG2S3   CG2R61   CG2R61    OG311     9   180.000000    10.041600     2 ; from NG2S1 CG2R61 CG2R61 OG311, PENALTY= 9 TTQ TY2 TYQ
   NG2S3   CG2R61   CG2R61    HGR61     9   180.000000    10.041600     2 ; PYRIDINE aminopyridine Kenno: 4.2 -> 2.4
   NG2S3   CG2R61   CG2R61    HGR62     9   180.000000    10.041600     2 ; PYRIDINE aminopyridine Kenno: 4.2 -> 2.4
   NG301   CG2R61   CG2R61    NG311     9   180.000000    10.208960     2 ; flavin
   NG301   CG2R61   CG2R61    HGR61     9   180.000000    10.041600     2 ; DMAN, N,N-dimethylaniline; from NG311 CG2R61 CG2R61 HGR61; sc
   NG311   CG2R61   CG2R61   OG3R60     9   180.000000    10.794720     2 ; FEOZ, phenoxazine fit_dihedral, erh
   NG311   CG2R61   CG2R61    SG311     9   180.000000    14.936880     2 ; FETZ, phenothiazine fit_dihedral, erh
   NG311   CG2R61   CG2R61    SG3O2     9   180.000000    10.041600     2 ; OBTZ, sulfonamide heterocycle in drug HCTZ, xxwy
   NG311   CG2R61   CG2R61    HGR61     9   180.000000    10.041600     2 ; FEOZ, phenoxazine, erh
   NG3N1   CG2R61   CG2R61    OG311     9   180.000000    10.794720     2 ; from NG311 CG2R61 CG2R61 OG3R60, PENALTY= 10 TRW
   NG3N1   CG2R61   CG2R61    HGR61     9   180.000000    10.041600     2 ; PHHZ, phenylhydrazine, ed; reset to default param by kevo
   OG301   CG2R61   CG2R61    HGR61     9   180.000000    10.041600     2 ; BIPHENYL ANALOGS, peml. Kenno: 4.2 -> 2.4
   OG303   CG2R61   CG2R61    HGR61     9   180.000000    10.041600     2 ; PROTNA phenol phosphate, 6/94, adm jr. Kenno: 4.2 -> 2.4
   OG311   CG2R61   CG2R61    OG311     9   180.000000    14.145267     2 ; DAH, by ac_aa
   OG311   CG2R61   CG2R61    CLGR1     9   180.000000    14.936043     2 ; OMY, by ac_aa
   OG311   CG2R61   CG2R61    BRGR1     9   180.000000    13.041946     2 ; DBY, by ac_aa
   OG311   CG2R61   CG2R61     IGR1     9   180.000000    11.704740     2 ; Lanl2DZ IYR, by ac_aa
   OG311   CG2R61   CG2R61    HGR61     9   180.000000    10.041600     2 ; PROT JES 8/25/89 phenol Kenno: 4.2 -> 2.4
   OG311   CG2R61   CG2R61    HGR62     9   180.000000    10.041600     2 ; PROT JES 8/25/89 phenol Kenno: 4.2 -> 2.4
   OG312   CG2R61   CG2R61    HGR61     9   180.000000    10.041600     2 ; PROT adm jr. 8/27/91, phenoxide Kenno: 4.2 -> 2.4
  OG3R60   CG2R61   CG2R61    HGR61     9   180.000000    10.041600     2 ; FEOZ, phenoxazine, erh
   SG311   CG2R61   CG2R61    HGR61     9   180.000000    10.041600     2 ; FETZ, phenothiazine, erh based on toluene, adm jr., 3/7/92 Kenno: 4.2 -> 2.4
   SG3O1   CG2R61   CG2R61    HGR61     9   180.000000    10.041600     2 ; based on toluene, adm jr., 3/7/92 Kenno: 4.2 -> 2.4
   SG3O2   CG2R61   CG2R61    HGR61     9   180.000000     8.786400     2 ; BSAM, benzenesulfonamide and other sulfonamides, xxwy
   CLGR1   CG2R61   CG2R61    CLGR1     9   180.000000    10.041600     2 ; 12DCB, 1,2,dichlorobenzene, (CG331 CG2R61 CG2R61 CG311), isg/fylin
   CLGR1   CG2R61   CG2R61    HGR62     9   180.000000    12.552000     2 ; CHLB, chlorobenzene
   BRGR1   CG2R61   CG2R61    BRGR1     9   180.000000    10.041600     2 ; 12DBB, 1,2,dibromobenzene,  (CG331 CG2R61 CG2R61 CG311), isg/fylin
   BRGR1   CG2R61   CG2R61    HGR62     9   180.000000    12.552000     2 ; BROB, bromobenzene
    IGR1   CG2R61   CG2R61     IGR1     9   180.000000    10.041600     2 ; 12DIB, 1,2,diiodobenzene,   (CG331 CG2R61 CG2R61 CG311), isg/fylin
    IGR1   CG2R61   CG2R61    HGR62     9   180.000000    12.552000     2 ; IODB, iodobenzene
   BG201   CG2R61   CG2R61    HGR61     9   180.000000    10.041600     2 ; BORB,BONB,BNNB Boronic acid, sr
   HGR61   CG2R61   CG2R61    HGR61     9   180.000000    10.041600     2 ; PROT JES 8/25/89 benzene
   HGR61   CG2R61   CG2R61    HGR62     9   180.000000    10.041600     2 ; BROB, bromobenzene
   HGR62   CG2R61   CG2R61    HGR62     9   180.000000    10.041600     2 ; TRIB, triazine124
  CG2R61   CG2R61   CG2R62   CG2R62     9   180.000000     2.092000     2 ; RIN, coumarin, isg
  CG2R61   CG2R61   CG2R62   CG2R63     9   180.000000    12.970400     2 ; YTHY, 2,4(1H,3H)-quinazolinedione, isg
  CG2R61   CG2R61   CG2R62   NG2R61     9   180.000000    29.288000     2 ; YTHY, 2,4(1H,3H)-quinazolinedione, isg
  CG2R61   CG2R61   CG2R62   NG2R62     9   180.000000     5.020800     2 ; TC243C, 4(3H)-quinazolinone, isg
  CG2R61   CG2R61   CG2R62   OG3R60     9   180.000000    12.970400     2 ; RIN, coumarin, isg
   HGR61   CG2R61   CG2R62   CG2R62     9   180.000000    12.970400     2 ; RIN, coumarin, isg
   HGR61   CG2R61   CG2R62   CG2R63     9   180.000000     4.184000     2 ; YTHY, 2,4(1H,3H)-quinazolinedione, isg
   HGR61   CG2R61   CG2R62   NG2R61     9   180.000000     1.673600     2 ; YTHY, 2,4(1H,3H)-quinazolinedione, isg
   HGR61   CG2R61   CG2R62   NG2R62     9   180.000000    11.715200     2 ; TC243C, 4(3H)-quinazolinone, isg
   HGR61   CG2R61   CG2R62   OG3R60     9   180.000000    10.041600     2 ; RIN, coumarin, isg
  CG2R61   CG2R61   CG2R63   NG2R61     9   180.000000     2.092000     2 ; YTS2, 2,4(1H,3H)-quinazolinedithione, isg
  CG2R61   CG2R61   CG2R63   NG2R67     9   180.000000     2.092000     2 ; 43PPY, 3-phenyl-4(3H)-pyrimidinone; from CG2R61 CG2R61 CG2R63 NG2R61, YTS2; isg
  CG2R61   CG2R61   CG2R63    SG2D1     9   180.000000    18.828000     2 ; YTS2, 2,4(1H,3H)-quinazolinedithione, isg
   HGR62   CG2R61   CG2R63   NG2R61     9   180.000000     4.184000     2 ; URA24S, 2,4(1H,3H)-pyrimidinedithione; from HGR62 CG2R62 CG2R63 NG2R61; isg
   HGR62   CG2R61   CG2R63   NG2R67     9   180.000000     4.184000     2 ; 3PH24S, 2,3-dihydro-3-phenyl-2-thioxo-4(1H)pyrimidinethione; from HGR62  CG2R62 CG2R63 NG2R61, NA; isg
   HGR62   CG2R61   CG2R63    SG2D1     9   180.000000    10.041600     2 ; URA24S, 2,4(1H,3H)-pyrimidinedithione; from SG311 CG2R61 CG2R61 HGR61; isg
   CG2O1   CG2R61   CG2R64    NG2D1     9   180.000000     4.811600     2 ; flavin
   CG2O1   CG2R61   CG2R64   NG2R61     9   180.000000     0.543920     2 ; flavin
  CG2R61   CG2R61   CG2R64    NG2D1     9   180.000000    12.552000     2 ; K2Cn, from 3MCn, yxu, RNA
  CG2R61   CG2R61   CG2R64    NG2P1     9   180.000000    11.715200     2 ; K2C, yxu, 16/7,13, RNA
  CG2R61   CG2R61   CG2R64   NG2R51     9   180.000000    16.736000     2 ; PIPA model for D3R, xxwy
  CG2R61   CG2R61   CG2R64   NG2R60     9   180.000000     5.020800     2 ; 2AMP, 2-amino pyridine, from PYR1, pyridine, kevo
  CG2R61   CG2R61   CG2R64   NG2R62     9   180.000000     5.020800     2 ; 18NFD, 1,8-naphthyridine, from PYR1, pyridine, erh
  CG2R61   CG2R61   CG2R64    NG2S1     9   180.000000    12.970400     2 ; 2AMP, 2-amino pyridine, from PACP, p-acetamide-phenol, pyridine, kevo
  CG2R61   CG2R61   CG2R64    NG2S3     9   180.000000     8.368000     2 ; yxu KEVO: exocyclic N in 2SC planar, issue with CGenFF atom types?, RNA
  CG2R61   CG2R61   CG2R64    NG311     9   180.000000    12.970400     2 ; bepa, from CG2R61 CG2R61 CG2R61 NG311, not optimized, yxu, RNA
  NG2R60   CG2R61   CG2R64    NG2D1     9     0.000000     0.000000     2 ; flavin
  NG2R60   CG2R61   CG2R64   NG2R61     9     0.000000     1.506240     2 ; flavin
  NG2R60   CG2R61   CG2R64   NG2R62     9     0.000000     6.276000     2 ; PTID, pteridine, erh
   OG311   CG2R61   CG2R64   NG2R60     9   180.000000    12.970400     2 ; 2A3HPD, cacha
   OG311   CG2R61   CG2R64    NG2S1     9   180.000000    10.041600     2 ; 2A3HPD, cacha
   HGR61   CG2R61   CG2R64    NG2D1     9   180.000000     4.184000     2 ; K2Cn, from 3MCn, yxu, RNA
   HGR61   CG2R61   CG2R64    NG2P1     9   180.000000    10.878400     2 ; K2C, yxu, 16/7,13, RNA
   HGR61   CG2R61   CG2R64   NG2R51     9   180.000000     6.276000     2 ; PIPA model for D3R, xxwy
   HGR61   CG2R61   CG2R64   NG2R60     9   180.000000    11.715200     2 ; 2AMP, 2-amino pyridine, from PYR1, pyridine, kevo
   HGR61   CG2R61   CG2R64   NG2R62     9   180.000000    14.225600     2 ; K2Cn, from NA36, yxu, RNA
   HGR61   CG2R61   CG2R64    NG2S1     9   180.000000    10.041600     2 ; 2AMP, 2-amino pyridine, default parameter by analogy to PACP, kevo
   HGR61   CG2R61   CG2R64    NG311     9   180.000000    10.041600     2 ; bepa, from NG311 CG2R61 CG2R61 HGR61, not optimized, yxu, RNA
   HGR62   CG2R61   CG2R64   NG2R62     9   180.000000    14.225600     2 ; 2SC, from NA36, RNA
   HGR62   CG2R61   CG2R64    NG2S3     9   180.000000     8.368000     2 ; 2SC, from NA36, RNA
  CG2R61   CG2R61   CG2R66   CG2R61     9   180.000000    12.970400     2 ; NAMODEL difluorotoluene
  CG2R61   CG2R61   CG2R66   CG2R66     9   180.000000    12.970400     2 ; from CG2R61 CG2R61 CG2R66 CG2R61, PENALTY= 1.5 F2F
  CG2R61   CG2R61   CG2R66   CG2R67     9   180.000000    12.970400     2 ; PYO2F , from CG2R61 CG2R61 CG2R66 CG2R61, penalty= 0.5
  CG2R61   CG2R61   CG2R66   CG2RC0     9   180.000000    12.970400     2 ; from CG2R61 CG2R61 CG2R66 CG2R61, PENALTY= 1.5 4FW
  CG2R61   CG2R61   CG2R66     FGR1     9   180.000000    18.828000     2 ; NAMODEL difluorotoluene
  CG2R66   CG2R61   CG2R66   CG2R61     9   180.000000    12.970400     2 ; NAMODEL difluorotoluene
  CG2R66   CG2R61   CG2R66   CG2R66     9   180.000000    12.970400     2 ; from CG2R66 CG2R61 CG2R66 CG2R61, PENALTY= 1.5 PF5
  CG2R66   CG2R61   CG2R66     FGR1     9   180.000000    18.828000     2 ; NAMODEL difluorotoluene
  CG2RC0   CG2R61   CG2R66   CG2R61     9   180.000000    12.970400     2 ; from CG2R61 CG2R61 CG2R66 CG2R61, PENALTY= 1.5 FT6 FTR
  CG2RC0   CG2R61   CG2R66     FGR1     9   180.000000    18.828000     2 ; from CG2R61 CG2R61 CG2R66 FGR1, PENALTY= 1.5 FT6 FTR
   CG321   CG2R61   CG2R66   CG2R61     9   180.000000    12.970400     2 ; from CG331 CG2R61 CG2R66 CG2R61, PENALTY= 0.9 FPH2
   CG321   CG2R61   CG2R66   CG2R66     9   180.000000    12.970400     2 ; from CG331 CG2R61 CG2R66 CG2R61, PENALTY= 2.4 PF5
   CG321   CG2R61   CG2R66     FGR1     9   180.000000    18.828000     2 ; from CG331 CG2R61 CG2R66 FGR1, PENALTY= 0.9 FPH2 PF5
   CG331   CG2R61   CG2R66   CG2R61     9   180.000000    12.970400     2 ; NAMODEL difluorotoluene
   CG331   CG2R61   CG2R66   CG2R66     9   180.000000    12.970400     2 ; sidechai , from CG331 CG2R61 CG2R66 CG2R61, penalty= 1.5 PF5
   CG331   CG2R61   CG2R66     FGR1     9   180.000000    18.828000     2 ; NAMODEL difluorotoluene
  NG2R60   CG2R61   CG2R66   CG2R61     9   180.000000     5.020800     2 ; 3FLP, 3-fluoropyridine. Kenno: copied from pyridine while retrofitting CG2R66 ==> re-optimize
  NG2R60   CG2R61   CG2R66     FGR1     9   180.000000    12.970400     2 ; PYRIDINE fluoropyridine, yin
   NG2S1   CG2R61   CG2R66   CG2R61     9   180.000000    12.970400     2 ; 2FBD, 2-fluoroanilide patch. Kenno: copied from RETINOL PACP while retrofitting CG2R66 ==> re-optimize
   NG2S1   CG2R61   CG2R66     FGR1     9   180.000000    10.041600     2 ; 2FBD, Gamma 2-Fluoro amino benzene glutamic acid CDCA amide, cacha Kenno: 3.1 -> 2.4
   OG311   CG2R61   CG2R66   CG2R61     9   180.000000    12.970400     2 ; from CG2R61 CG2R61 CG2R61 OG311, PENALTY= 5 YOF
   OG311   CG2R61   CG2R66     FGR1     9   180.000000    17.110886     2 ; YOF, by ac_aa
   HGR62   CG2R61   CG2R66   CG2R61     9   180.000000    17.572800     2 ; NAMODEL difluorotoluene
   HGR62   CG2R61   CG2R66   CG2R66     9   180.000000    17.572800     2 ; from HGR62 CG2R61 CG2R66 CG2R61, PENALTY= 1.5 F2F
   HGR62   CG2R61   CG2R66   CG2R67     9   180.000000    17.572800     2 ; PYO2F , from HGR62 CG2R61 CG2R66 CG2R61, penalty= 0.5
   HGR62   CG2R61   CG2R66   CG2RC0     9   180.000000    17.572800     2 ; from HGR62 CG2R61 CG2R66 CG2R61, PENALTY= 1.5 4FW
   HGR62   CG2R61   CG2R66     FGR1     9   180.000000    10.041600     2 ; NAMODEL difluorotoluene
  CG2R61   CG2R61   CG2R67   CG2R61     9   180.000000    12.970400     2 ; BIPHENYL ANALOGS, peml
  CG2R61   CG2R61   CG2R67   CG2R66     9   180.000000    12.970400     2 ; PYO2F , from CG2R61 CG2R61 CG2R67 CG2R61, penalty= 1.5
  CG2R61   CG2R61   CG2R67   CG2R67     9   180.000000    12.970400     2 ; BIPHENYL ANALOGS, peml
  CG2R61   CG2R61   CG2R67   CG2RC0     9   180.000000     1.046000     2 ; CRBZ, carbazole, erh
  CG2R61   CG2R61   CG2R67   NG2R60     9   180.000000     5.020800     2 ; 22BPY, 2,2'-bipyridine, from CG2R61 CG2R61 CG2R61 NG2R60, kevo
  CG2R61   CG2R61   CG2R67   NG2R67     9   180.000000    12.970400     2 ; 1PH4PO, 1-phenyl-4(1H)-pyridinone; from CG2R61 CG2R61 CG2R61 CG2R61; isg
  NG2R60   CG2R61   CG2R67   CG2R61     9   180.000000     5.020800     2 ; 3PHP, 3-phenyl-pyridine; Kenno: 3.1 -> 1.2 from PYRIDINE pyridine, yin
  NG2R60   CG2R61   CG2R67   CG2R67     9   180.000000     4.184000     2 ; 3PHP, 3-phenyl-pyridine, Kenno: 3.1 -> 1.0 from 3-methylpyridine, yin
   HGR61   CG2R61   CG2R67   CG2R61     9   180.000000    17.572800     2 ; BIPHENYL ANALOGS, peml
   HGR61   CG2R61   CG2R67   CG2R66     9   180.000000    17.572800     2 ; PYO2F , from HGR61 CG2R61 CG2R67 CG2R61, penalty= 1.5
   HGR61   CG2R61   CG2R67   CG2R67     9   180.000000    17.572800     2 ; BIPHENYL ANALOGS, peml
   HGR61   CG2R61   CG2R67   CG2RC0     9   180.000000    12.552000     2 ; CRBZ, carbazole, erh
   HGR61   CG2R61   CG2R67   NG2R60     9   180.000000    11.715200     2 ; 22BPY, 2,2'-bipyridine, from NG2R60 CG2R61 CG2R61 HGR61, kevo
   HGR61   CG2R61   CG2R67   NG2R67     9   180.000000    11.715200     2 ; 1PH4PO, 1-phenyl-4(1H)-pyridinone; from NG2R60 CG2R61 CG2R61 HGR61; isg
   HGR62   CG2R61   CG2R67   CG2R61     9   180.000000    17.572800     2 ; BIPHENYL ANALOGS, peml
   HGR62   CG2R61   CG2R67   CG2R67     9   180.000000    17.572800     2 ; BIPHENYL ANALOGS, peml
   CG2O1   CG2R61   CG2RC0   CG2RC0     9   180.000000    12.970400     2 ; HDZ2, hydrazone model cmpd 2
   CG2O1   CG2R61   CG2RC0   NG2R51     9   180.000000    11.715200     2 ; HDZ2, hydrazone model cmpd 2
  CG2R61   CG2R61   CG2RC0   CG25C1     9   180.000000    12.552000     2 ; MEOI, methyleneoxindole, kevo & xxwy
  CG2R61   CG2R61   CG2RC0   CG25C2     9   180.000000    12.552000     2 ; MEOI, methyleneoxindole, kevo & xxwy
  CG2R61   CG2R61   CG2RC0   CG2R51     9   180.000000    16.736000     2 ; INDO/TRP
  CG2R61   CG2R61   CG2RC0   CG2R52     9   180.000000     6.276000     2 ; INDA, 1H-indazole, kevo
  CG2R61   CG2R61   CG2RC0   CG2R67     9   180.000000     1.046000     2 ; CRBZ, carbazole, erh
  CG2R61   CG2R61   CG2RC0   CG2RC0     9   180.000000    12.552000     2 ; INDO/TRP
  CG2R61   CG2R61   CG2RC0   CG3C50     9   180.000000     0.000000     2 ; MSCH model for D3R, xxwy
  CG2R61   CG2R61   CG2RC0   CG3C52     9   180.000000     0.000000     2 ; 3HIN, 3H-indole, kevo
  CG2R61   CG2R61   CG2RC0   NG2R50     9   180.000000     6.276000     2 ; ZIMI, benzimidazole, kevo
  CG2R61   CG2R61   CG2RC0   NG2R51     9   180.000000    12.552000     2 ; INDO/TRP
  CG2R61   CG2R61   CG2RC0   NG2R53     9   180.000000    12.552000     2 ; MSCH model for D3R, xxwy
  CG2R61   CG2R61   CG2RC0   NG2RC0     9   180.000000    14.644000     2 ; INDZ, indolizine, kevo
  CG2R61   CG2R61   CG2RC0   NG3C51     9   180.000000    25.104000     2 ; INDI, indoline, kevo
  CG2R61   CG2R61   CG2RC0   OG2R50     9   180.000000     0.000000     2 ; ZFUR, benzofuran, kevo
  CG2R61   CG2R61   CG2RC0   OG3C51     9   180.000000     8.368000     2 ; ZDOL, 1,3-benzodioxole, pram & oashi
  CG2R61   CG2R61   CG2RC0   SG2R50     9   180.000000     0.000000     2 ; ZTHP, benzothiophene, kevo
  CG2R61   CG2R61   CG2RC0    BG201     9   180.000000     3.728362     2 ; BICB,BINB Boronic acid, sr
  CG2R66   CG2R61   CG2RC0   CG2R51     9   180.000000    16.736000     2 ; from CG2R61 CG2R61 CG2RC0 CG2R51, PENALTY= 1.5 FTR
  CG2R66   CG2R61   CG2RC0   CG2RC0     9   180.000000    12.552000     2 ; from CG2R61 CG2R61 CG2RC0 CG2RC0, PENALTY= 1.5 FT6 FTR
  CG2R66   CG2R61   CG2RC0   NG2R51     9   180.000000    12.552000     2 ; from CG2R61 CG2R61 CG2RC0 NG2R51, PENALTY= 1.5 FT6
  NG2R62   CG2R61   CG2RC0   CG2R51     9   180.000000     9.204800     2 ; ampu, not optimized, yxu, RNA
  NG2R62   CG2R61   CG2RC0   CG2RC0     9   180.000000     9.204800     2 ; PUR9, purine(N9H), kevo
  NG2R62   CG2R61   CG2RC0   NG2R50     9   180.000000     0.000000     2 ; PUR9, purine(N9H), kevo
  NG2R62   CG2R61   CG2RC0   NG2R51     9   180.000000     0.000000     2 ; PUR7, purine(N7H), kevo
  NG2R62   CG2R61   CG2RC0   NG2R52     9   180.000000     0.000000     2 ; 7MGe, from NG2R62 CG2R61 CG2RC0 NG2R50, not optimized, yxu, RNA
   NG2S3   CG2R61   CG2RC0   CG2R51     9   180.000000     4.846327     2 ; 4IN, by ac_aa
   NG2S3   CG2R61   CG2RC0   CG2RC0     9   180.000000     6.271816     2 ; 4IN, by ac_aa
   OG311   CG2R61   CG2RC0   CG2R51     9   180.000000     6.012826     2 ; 4HT, by ac_aa
   OG311   CG2R61   CG2RC0   CG2RC0     9   180.000000    12.970400     2 ; 7MGe, from CG2R61 CG2R61 CG2R61 OG311, not optimized, yxu, RNA
   OG311   CG2R61   CG2RC0   NG2R50     9   180.000000     4.184000     2 ; GENO, from NG2R60 CG2R61 CG2R61 OG311, not optimized, yxu, RNA
   OG311   CG2R61   CG2RC0   NG2R51     9   180.000000     7.988930     2 ; 0AF, by ac_aa
   OG311   CG2R61   CG2RC0   NG2R52     9   180.000000    10.041600     2 ; 7MGe, from NG2S1 CG2R61 CG2R61 OG311, not optimized, yxu, RNA
   CLGR1   CG2R61   CG2RC0   CG2RC0     9   180.000000    12.767058     2 ; CTE, by ac_aa
   CLGR1   CG2R61   CG2RC0   NG2R51     9   180.000000     7.647097     2 ; CTE, by ac_aa
   HGR61   CG2R61   CG2RC0   CG25C1     9   180.000000    12.552000     2 ; MEOI, methyleneoxindole, kevo & xxwy
   HGR61   CG2R61   CG2RC0   CG25C2     9   180.000000    12.552000     2 ; MEOI, methyleneoxindole, kevo & xxwy
   HGR61   CG2R61   CG2RC0   CG2R51     9   180.000000    16.736000     2 ; INDO/TRP
   HGR61   CG2R61   CG2RC0   CG2R52     9   180.000000     0.000000     2 ; INDA, 1H-indazole, kevo
   HGR61   CG2R61   CG2RC0   CG2R67     9   180.000000    12.552000     2 ; CRBZ, carbazole, erh
   HGR61   CG2R61   CG2RC0   CG2RC0     9   180.000000    12.552000     2 ; INDO/TRP
   HGR61   CG2R61   CG2RC0   CG3C50     9   180.000000     0.000000     2 ; MSCH model for D3R, xxwy
   HGR61   CG2R61   CG2RC0   CG3C52     9   180.000000     0.000000     2 ; 3HIN, 3H-indole, kevo
   HGR61   CG2R61   CG2RC0   NG2R50     9   180.000000     3.347200     2 ; ZIMI, benzimidazole, kevo
   HGR61   CG2R61   CG2RC0   NG2R51     9   180.000000    12.552000     2 ; INDO/TRP
   HGR61   CG2R61   CG2RC0   NG2R53     9   180.000000     0.000000     2 ; MSCH model for D3R, xxwy
   HGR61   CG2R61   CG2RC0   NG2RC0     9   180.000000     0.000000     2 ; INDZ, indolizine, kevo
   HGR61   CG2R61   CG2RC0   NG3C51     9   180.000000     0.000000     2 ; INDI, indoline, kevo
   HGR61   CG2R61   CG2RC0   OG2R50     9   180.000000     0.000000     2 ; ZFUR, benzofuran, kevo
   HGR61   CG2R61   CG2RC0   OG3C51     9   180.000000    10.041600     2 ; ZDOL, 1,3-benzodioxole, pram & oashi
   HGR61   CG2R61   CG2RC0   SG2R50     9   180.000000     0.000000     2 ; ZTHP, benzothiophene, kevo
   HGR61   CG2R61   CG2RC0    BG201     9   180.000000     0.000000     2 ; BICB,BINB Boronic acid, sr
   HGR62   CG2R61   CG2RC0   CG25C1     9   180.000000    10.041600     2 ; drug design project, xxwy
   HGR62   CG2R61   CG2RC0   CG25C2     9   180.000000    10.041600     2 ; drug design project, xxwy
   HGR62   CG2R61   CG2RC0   CG2R51     9   180.000000    16.736000     2 ; ampu, from HGR61 CG2R61 CG2RC0 CG2R51, yxu, RNA
   HGR62   CG2R61   CG2RC0   CG2RC0     9   180.000000    17.572800     2 ; PUR7, purine(N7H); PUR9, purine(N9H), kevo
   HGR62   CG2R61   CG2RC0   NG2R50     9   180.000000     4.184000     2 ; PUR9, purine(N9H), kevo
   HGR62   CG2R61   CG2RC0   NG2R51     9   180.000000     0.000000     2 ; PUR7, purine(N7H), kevo
  CG2R61   CG2R61    CG301    CG331     9   180.000000     0.962320     2 ; from CG2R61 CG2R61 CG311 CG331, PENALTY= 8 TBP4
  CG2R61   CG2R61    CG302     FGA3     9     0.000000     1.255200     2 ; from CG2R61 CG2R61 CG312 FGA2, PENALTY= 6.1 TFG2 TFG3 TFG4
  CG2R61   CG2R61    CG311    CG2O2     9     0.000000     0.836800     2 ; cmbz, yxu,  corrected 1/2015, RNA
  CG2R61   CG2R61    CG311    CG2O3     9   180.000000     0.962320     2 ; FBIF, Fatty acid Binding protein Inhibitor F, cacha
  CG2R61   CG2R61    CG311   CG2R61     9   180.000000     0.962320     2 ; from CG2R61 CG2R61 CG321 CG2R61, PENALTY= 4 2GX CYF DIPH
  CG2R61   CG2R61    CG311    CG321     9   180.000000     0.962320     2 ; Slack parameter from difluorotoluene picked up by FBIC ==> RE-OPTIMIZE !!!
  CG2R61   CG2R61    CG311    CG331     9   180.000000     0.962320     2 ; FBIB, Fatty Binding Inhibitior B, cacha
  CG2R61   CG2R61    CG311    OG311     9   180.000000     2.928800     2 ; bzha & cmbz, yxu,  corrected 1/2015, RNA
  CG2R61   CG2R61    CG311     HGA1     9   180.000000     0.418400     6 ; NAMODEL difluorotoluene
  CG2R61   CG2R61    CG312      PG1     9   180.000000     0.627600     2 ; BDFP, Difuorobenzylphosphonate \ re-optimize?
  CG2R61   CG2R61    CG312      PG2     9   180.000000     0.627600     2 ; BDFD, Difuorobenzylphosphonate / re-optimize?
  CG2R61   CG2R61    CG312     FGA2     9     0.000000     1.255200     2 ; BDFP, BDFD, Difuorobenzylphosphonate
  CG2R61   CG2R61    CG321    CG1N1     9   180.000000     1.631760     2 ; cybz, yxu, RNA
  CG2R61   CG2R61    CG321    CG1N1     9     0.000000     0.167360     4 ; cybz, yxu, RNA
  CG2R61   CG2R61    CG321    CG2O1     9     0.000000     0.418400     2 ; acbz, from mebz, yxu, RNA
  CG2R61   CG2R61    CG321    CG2O2     9     0.000000     0.418400     2 ; mebz, yxu, RNA
  CG2R61   CG2R61    CG321    CG2O3     9     0.000000     0.418400     4 ; bzac, yxu, RNA
  CG2R61   CG2R61    CG321   CG2R51     9   180.000000     0.962320     2 ; from CG2R61 CG2R61 CG321 CG2R61, PENALTY= 8.5 C12
  CG2R61   CG2R61    CG321   CG2R61     9   180.000000     0.962320     2 ; PYRIDINE pyr-CH2C6H5, yin
  CG2R61   CG2R61    CG321    CG311     9   180.000000     0.962320     2 ; PROT ethylbenzene ethyl rotation, adm jr. 3/7/92
  CG2R61   CG2R61    CG321    CG314     9   180.000000     0.962320     2 ; PROT ethylbenzene ethyl rotation, adm jr. 3/7/92
  CG2R61   CG2R61    CG321    CG321     9   180.000000     0.962320     2 ; PROT ethylbenzene ethyl rotation, adm jr. 3/7/92
  CG2R61   CG2R61    CG321    CG324     9   180.000000     2.719600     2 ; fentanyl, Lesnik et al, 2020
  CG2R61   CG2R61    CG321    CG331     9   180.000000     0.962320     2 ; PROT ethylbenzene ethyl rotation, adm jr. 3/7/92
  CG2R61   CG2R61    CG321    NG2S1     9     0.000000     0.497896     2 ; NZAD, N-benzylacetamide, isg
  CG2R61   CG2R61    CG321    NG2S1     9   180.000000     0.552288     4 ; NZAD, N-benzylacetamide, isg
  CG2R61   CG2R61    CG321    NG2S1     9   180.000000     0.054392     6 ; NZAD, N-benzylacetamide, isg
  CG2R61   CG2R61    CG321    NG311     9   180.000000     4.184000     2 ; ambz, yxu, RNA
  CG2R61   CG2R61    CG321    OG302     9     0.000000     0.000000     2 ; ABGA, ALPHA BENZYL GLU ACID CDCA AMIDE, cacha
  CG2R61   CG2R61    CG321    OG303     9     0.000000     0.000000     2 ; from CG2R61 CG2R61 CG321 OG302, PENALTY= 2.5 IT1 LLP LLPP
  CG2R61   CG2R61    CG321    OG311     9     0.000000     0.000000     2 ; 3CAP, carbinol-pyridine (PYRIDINE pyr-CH2OH), yin
  CG2R61   CG2R61    CG321      PG1     9   180.000000     0.836800     2 ; BDFP, Benzylphosphonate \ re-optimize?
  CG2R61   CG2R61    CG321      PG2     9   180.000000     0.836800     2 ; BDFD, Benzylphosphonate / re-optimize?
  CG2R61   CG2R61    CG321    SG311     9   180.000000     0.501243     2 ; BCS, by ac_aa
  CG2R61   CG2R61    CG321    SG3O2     9   180.000000    24.901076     1 ; SEB, by ac_aa
  CG2R61   CG2R61    CG321    SG3O2     9     0.000000     1.433020     2 ; SEB, by ac_aa
  CG2R61   CG2R61    CG321    SG3O2     9   180.000000     8.795186     3 ; SEB, by ac_aa
  CG2R61   CG2R61    CG321     HGA2     9     0.000000     0.008368     6 ; PROT toluene, adm jr., 3/7/92
  CG2R66   CG2R61    CG321    CG331     9   180.000000     0.962320     2 ; from CG2R61 CG2R61 CG321 CG331, penalty= 1.5 FPH2
  CG2R66   CG2R61    CG321     HGA2     9     0.000000     0.008368     6 ; from CG2R61 CG2R61 CG321 HGA2, PENALTY= 1.5 FPH2 PF5
  NG2R60   CG2R61    CG321    CG321     9   180.000000     0.962320     2 ; 2AEPD, 2-ethylamino-pyridine CDCA conjugate, corrected by kevo
  NG2R60   CG2R61    CG321    CG331     9   180.000000     0.962320     2 ; from NG2R60 CG2R61 CG321 CG321, penalty= 0.9 PYR2
  NG2R60   CG2R61    CG321     HGA2     9     0.000000     0.008368     6 ; 2AEPD, 2-ethylamino-pyridine CDCA conjugate, corrected by kevo
  CG2R61   CG2R61    CG324    NG3P1     9   180.000000     0.627600     2 ; BPIP, N-Benzyl PIP, cacha
  CG2R61   CG2R61    CG324    NG3P2     9     0.000000     0.836800     2 ; bzma, yxu 4/16,14, RNA
  CG2R61   CG2R61    CG324    NG3P3     9     0.000000     1.380720     2 ; 4FBA, optimized using CCCN mp2 scan, pram
  CG2R61   CG2R61    CG324     HGA2     9     0.000000     0.000000     2 ; BPIP, N-Benzyl PIP, cacha
  CG2R61   CG2R61    CG331     HGA3     9     0.000000     0.008368     6 ; PYRIDINE toluene Kenno: 180 -> 0
  CG2R66   CG2R61    CG331     HGA3     9     0.000000     0.008368     6 ; PYRIDINE toluene Kenno: 180 -> 0
  NG2R60   CG2R61    CG331     HGA3     9   180.000000     0.012552     6 ; 3A2MPD, 3-amino-2-methyl-pyridine CDCA conjugate, cacha
  CG2R61   CG2R61    NG2D1    CG2O1     9     0.000000    15.896271     1 ; ABNB, amide base, sr
  CG2R61   CG2R61    NG2D1    CG2O1     9   180.000000    13.764105     2 ; ABNB, amide base, sr
  CG2R61   CG2R61    NG2D1    CG2O1     9     0.000000     5.599866     3 ; ABNB, amide base, sr
  CG2R61   CG2R61    NG2D1    CG2O1     9     0.000000     0.920480     4 ; ABNB, amide base, sr
  CG2R61   CG2R61    NG2D1    CG2O1     9   180.000000     2.321702     5 ; ABNB, amide base, sr
  CG2R61   CG2R61    NG2D1    CG2O1     9   180.000000     1.497454     6 ; ABNB, amide base, sr
  CG2R61   CG2R61    NG2D1    NG2D1     9   180.000000    11.296800     2 ; (E)-1,2-di-p-tolyldiazene (fdmab, trans), Klaja et al., 2020
  CG2R61   CG2R61    NG2D1    NG2D1     9     0.000000     1.046000     4 ; (E)-1,2-di-p-tolyldiazene (fdmab, trans), Klaja et al., 2020
  CG2R61   CG2R61    NG2O1    OG2N1     9   180.000000     3.765600     2 ; NITB, nitrobenzene
  CG2R61   CG2R61    NG2P1   CG2R64     9   180.000000     2.510400     2 ; K2C, yxu, 16/7,13, RNA
  CG2R61   CG2R61    NG2P1    CG334     9   180.000000     1.673600     2 ; ncyp, yxu, RNA
  CG2R61   CG2R61    NG2P1     HGP2     9   180.000000     0.000000     2 ; ncyp, yxu, RNA
   HGR62   CG2R61    NG2P1   CG2R64     9   180.000000    16.736000     2 ; K2C, yxu, RNA
   HGR62   CG2R61    NG2P1    CG334     9   180.000000    11.296800     2 ; ncyp, yxu, RNA
   HGR62   CG2R61    NG2P1     HGP2     9   180.000000     0.000000     2 ; ncyp, yxu, RNA
  CG2R61   CG2R61   NG2R51   CG2R51     9     0.000000     0.836800     1 ; D3R set1 scaffold 1, xxwy
  CG2R61   CG2R61   NG2R51   CG2R51     9   180.000000     4.602400     2 ; D3R set1 scaffold 1, xxwy
  CG2R61   CG2R61   NG2R51   CG2R51     9     0.000000     2.510400     3 ; D3R set1 scaffold 1, xxwy
  CG2R61   CG2R61   NG2R51   NG2R50     9   180.000000     4.184000     2 ; D3R set1 scaffold 1, xxwy
   CG2O1   CG2R61   NG2R60   CG2R61     9   180.000000    35.312960     2 ; flavin
   CG2O1   CG2R61   NG2R60     HGP1     9   180.000000     8.660880     2 ; flavin
  CG2R61   CG2R61   NG2R60   CG2R61     9   180.000000     5.020800     2 ; PYRIDINE pyridine, yin
  CG2R61   CG2R61   NG2R60   CG2R64     9   180.000000     5.020800     2 ; 2AMP, 2-amino pyridine, from PYR1, pyridine, kevo
  CG2R61   CG2R61   NG2R60   CG2R67     9   180.000000     5.020800     2 ; 22BPY, 2,2'-bipyridine, from CG2R61 CG2R61 NG2R60 CG2R61, kevo
  CG2R61   CG2R61   NG2R60     HGP1     9   180.000000     3.807440     2 ; flavin
  CG2R64   CG2R61   NG2R60   CG2R61     9   180.000000     9.204800     2 ; PTID, pteridine, erh
  CG2R64   CG2R61   NG2R60     HGP1     9   180.000000     6.401520     2 ; flavin
  CG2R66   CG2R61   NG2R60   CG2R61     9   180.000000     5.020800     2 ; 3FLP, 3-fluoropyridine. Kenno: copied from pyridine while retrofitting CG2R66 ==> re-optimize
  CG2R67   CG2R61   NG2R60   CG2R61     9   180.000000     5.020800     2 ; 3PHP, 3-phenyl-pyridine, yin
   CG321   CG2R61   NG2R60   CG2R61     9   180.000000    12.970400     2 ; 2AEPD, 2-ethylamino-pyridine CDCA conjugate, cacha
   CG331   CG2R61   NG2R60   CG2R61     9   180.000000    12.970400     2 ; 3A2MPD, 3-amino-2-methyl-pyridine CDCA conjugate, cacha
   CG331   CG2R61   NG2R60   CG2R64     9   180.000000    12.970400     2 ; 2A46PD, 2-Amino-4,6-dimethyl-pyridine CDCA conjugate, cacha
   BRGR1   CG2R61   NG2R60   CG2R61     9   180.000000    12.552000     2 ; 3A6BPD, Gamma-3-Amino-6-bromo Pyridine GA CDCA Amide, cacha
   HGR62   CG2R61   NG2R60   CG2R61     9   180.000000    24.267200     2 ; PYR1 pyridine, yin ! got overwritten with "slack parameter" during big renaming operation (par_cgenff_1e_unsorted). Restored to original from toppar_all22_prot_pyridines.
   HGR62   CG2R61   NG2R60   CG2R64     9   180.000000    24.267200     2 ; 2AMP, 2-amino pyridine, from PYR1, pyridine, kevo
   HGR62   CG2R61   NG2R60   CG2R67     9   180.000000    21.966000     2 ; 22BPY, 2,2'-bipyridine, kevo
  CG2R61   CG2R61   NG2R61   CG2R63     9   180.000000     2.092000     2 ; YTS2, 2,4(1H,3H)-quinazolinedithione, isg
  CG2R61   CG2R61   NG2R61   CG2R64     9   180.000000     0.125520     2 ; flavin
  CG2R61   CG2R61   NG2R61    CG321     9   180.000000    13.012240     2 ; flavin
  CG2R61   CG2R61   NG2R61    CG331     9   180.000000     9.330320     2 ; flavin
  CG2R61   CG2R61   NG2R61     HGP1     9   180.000000     4.184000     2 ; YTS2, 2,4(1H,3H)-quinazolinedithione, isg
   HGR62   CG2R61   NG2R61   CG2R63     9   180.000000    19.246400     2 ; URA24S, 2,4(1H,3H)-pyrimidinedithione; from HGR62 CG2R62 NG2R61 CG2R63; isg
   HGR62   CG2R61   NG2R61   CG2R64     9   180.000000    19.246400     2 ; K2Cn, from HGR62 CG2R62 NG2R61 CG2R63, yxu, RNA
   HGR62   CG2R61   NG2R61    CG331     9   180.000000     1.255200     2 ; 34c, yxu, RNA
   HGR62   CG2R61   NG2R61     HGP1     9   180.000000     5.020800     2 ; URA24S, 2,4(1H,3H)-pyrimidinedithione; from HGR62 CG2R62 NG2R61 HGP1; isg
  CG2R61   CG2R61   NG2R62   CG2R64     9   180.000000     8.368000     2 ; PYRM, pyrimidine
  CG2R61   CG2R61   NG2R62   NG2R62     9   180.000000     3.347200     2 ; PYRD, pyridazine
  CG2RC0   CG2R61   NG2R62   CG2R64     9   180.000000     9.204800     2 ; PUR9, purine(N9H), kevo
   OG311   CG2R61   NG2R62   CG2R64     9   180.000000    12.970400     2 ; 7MGe, from CG331 CG2R61 NG2R60 CG2R64, not optimized, yxu, RNA
   HGR62   CG2R61   NG2R62   CG2R64     9   180.000000    30.543200     2 ; PYRM, pyrimidine
   HGR62   CG2R61   NG2R62   NG2R62     9   180.000000    11.715200     2 ; PYRD, pyridazine
  CG2R61   CG2R61   NG2RC0   CG2R51     9   180.000000     0.000000     2 ; INDZ, indolizine, kevo
  CG2R61   CG2R61   NG2RC0   CG2RC0     9   180.000000     2.092000     2 ; INDZ, indolizine, kevo
   HGR62   CG2R61   NG2RC0   CG2R51     9   180.000000     0.000000     2 ; INDZ, indolizine, kevo
   HGR62   CG2R61   NG2RC0   CG2RC0     9   180.000000     7.949600     2 ; INDZ, indolizine, kevo
  CG2R61   CG2R61    NG2S0    CG2O1     9   180.000000     5.020800     2 ; fentanyl, Lesnik et al, 2020
  CG2R61   CG2R61    NG2S0    CG2O6     9   180.000000     9.204800     2 ; dmpu, from m6pa, yxu, RNA
  CG2R61   CG2R61    NG2S0    CG311     9   180.000000     7.987256     1 ; fentanyl, Lesnik et al, 2020
  CG2R61   CG2R61    NG2S0    CG311     9   180.000000     7.221584     2 ; fentanyl, Lesnik et al, 2020
  CG2R61   CG2R61    NG2S0    CG331     9   180.000000     9.204800     2 ; dmpu, from m6pa, yxu, RNA
  CG2R61   CG2R61    NG2S1    CG2O1     9   180.000000     5.020800     2 ; RETINOL PACP
  CG2R61   CG2R61    NG2S1    CG2O6     9   180.000000     5.020800     2 ; mpyu, yxu, 12/2015, RNA
  CG2R61   CG2R61    NG2S1     HGP1     9   180.000000     2.092000     2 ; RETINOL PACP
  CG2R66   CG2R61    NG2S1    CG2O1     9   180.000000     5.020800     2 ; 2FBD, 2-fluoroanilide patch. Kenno: copied from RETINOL PACP while retrofitting CG2R66 ==> re-optimize
  CG2R66   CG2R61    NG2S1    CG2O1     9   180.000000     4.184000     3 ; 2FBD, 2-fluoroanilide patch. Kenno: copied from RETINOL PACP while retrofitting CG2R66 ==> re-optimize
  CG2R66   CG2R61    NG2S1     HGP1     9   180.000000     2.092000     2 ; 2FBD, 2-fluoroanilide patch. Kenno: copied from RETINOL PACP while retrofitting CG2R66 ==> re-optimize
  CG2R61   CG2R61    NG2S3     HGP4     9   180.000000     5.648400     2 ; PYRIDINE aminopyridine. kevo: 1.80 --> 1.35
  CG2RC0   CG2R61    NG2S3     HGP4     9   180.000000     5.648400     2 ; from CG2R61 CG2R61 NG2S3 HGP4, PENALTY= 1.5 4IN
  CG2R61   CG2R61    NG301   CG2R64     9     0.000000     3.096160     2 ; flavin
  CG2R61   CG2R61    NG301    CG321     9   180.000000     6.276000     2 ; flavin
  CG2R61   CG2R61    NG301    CG321     9     0.000000     0.627600     4 ; flavin
  CG2R61   CG2R61    NG301    CG331     9   180.000000     4.016640     2 ; DMAN, N,N-dimethylaniline, kevo
  CG2R61   CG2R61    NG301    CG331     9     0.000000     0.439320     4 ; DMAN, N,N-dimethylaniline, kevo
  CG2R61   CG2R61    NG301    CG331     9   180.000000     0.146440     6 ; DMAN, N,N-dimethylaniline, kevo
  CG2R61   CG2R61    NG311   CG2R61     9     0.000000     1.840960     2 ; FEOZ, phenoxazine fit_dihedral, erh
  CG2R61   CG2R61    NG311   CG2R62     9   180.000000     0.334720     2 ; flavin
  CG2R61   CG2R61    NG311    CG321     9   180.000000     5.020800     2 ; AOBT, acyclic model introduced for OBTZ to optimize related dihedrals, xxwy
  CG2R61   CG2R61    NG311    CG321     9     0.000000     1.255200     4 ; AOBT, acyclic model introduced for OBTZ to optimize related dihedrals, xxwy
  CG2R61   CG2R61    NG311    SG3O2     9   180.000000     0.836800     2 ; PMSM, N-phenylmethanesulfonamide; PBSM, N-phenylbenzenesulfonamide; xxwy
  CG2R61   CG2R61    NG311     HGP1     9   180.000000     2.092000     2 ; PMSM, N-phenylmethanesulfonamide; PBSM, N-phenylbenzenesulfonamide; xxwy
  CG2R61   CG2R61    NG311   HGPAM1     9   180.000000     1.338880     2 ; FEOZ, phenoxazine fit_dihedral, erh
  CG2R61   CG2R61    NG3N1    NG3N1     9   180.000000     9.916080     2 ; PHHZ, phenylhydrazine, ed
  CG2R61   CG2R61    NG3N1     HGP1     9     0.000000     0.000000     2 ; PHHZ, phenylhydrazine, ed
  CG2R61   CG2R61    OG301   CG2R61     9   180.000000     5.020800     2 ; BIPHENYL ANALOGS, peml
  CG2R61   CG2R61    OG301    CG321     9   180.000000     6.778080     2 ; ETOB, Ethoxybenzene, cacha
  CG2R61   CG2R61    OG301    CG321     9   180.000000     0.794960     4 ; ETOB, Ethoxybenzene, cacha
  CG2R61   CG2R61    OG301    CG331     9   180.000000     6.610720     2 ; MEOB, Methoxybenzene update, yxu
  CG2R61   CG2R61    OG301    CG331     9   180.000000     0.836800     4 ; MEOB, Methoxybenzene update, yxu
  CG2R61   CG2R61    OG303      PG1     9   180.000000     5.857600     2 ; PROTNA phenol phosphate, 6/94, adm jr.
  CG2R61   CG2R61    OG303    SG3O1     9   180.000000     2.133840     2 ; from CG2R61 CG2R61 OG303 SG3O2, PENALTY= 5 TYS
  CG2R61   CG2R61    OG303    SG3O1     9     0.000000     0.627600     4 ; from CG2R61 CG2R61 OG303 SG3O2, PENALTY= 5 TYS
  CG2R61   CG2R61    OG303    SG3O2     9   180.000000     2.133840     2 ; PMST, phenyl methanesulfonate, PSMT, phenyl sulfamate, xxwy
  CG2R61   CG2R61    OG303    SG3O2     9     0.000000     0.627600     4 ; PMST, phenyl methanesulfonate, PSMT, phenyl sulfamate, xxwy
  CG2R61   CG2R61    OG311     HGP1     9   180.000000     4.142160     2 ; PROT phenol OH rot bar, 3.37 kcal/mole, adm jr. 3/7/92
  CG2R64   CG2R61    OG311     HGP1     9   180.000000     4.142160     2 ; 2A3HPD, from PROT phenol, cacha
  CG2R66   CG2R61    OG311     HGP1     9   180.000000     4.142160     2 ; from CG2R61 CG2R61 OG311 HGP1, PENALTY= 1.5 YOF
  CG2RC0   CG2R61    OG311     HGP1     9   180.000000     4.142160     2 ; 7MGe, from CG2R61 CG2R61 OG311 HGP1, not optimized, yxu, RNA
  NG2R62   CG2R61    OG311     HGP1     9   180.000000     4.142160     2 ; 7MGe, from CG2R61 CG2R61 OG311 HGP1, not optimized, yxu, RNA
  CG2R61   CG2R61   OG3R60   CG2R61     9     0.000000     3.179840     2 ; FEOZ, phenoxazine fit_dihedral, erh
  CG2R61   CG2R61    SG311   CG2R61     9     0.000000     7.322000     2 ; FETZ, phenothiazine fit_dihedral, erh
  CG2R61   CG2R61    SG3O1    OG2P1     9     0.000000     0.016736     6 ; benzene sulfonic acid anion, og
  CG2R61   CG2R61    SG3O2    NG301     9     0.000000     0.920480     2 ; D3R set1 scaffold 2, xxwy
  CG2R61   CG2R61    SG3O2    NG311     9     0.000000     0.920480     2 ; MBSM, N-methylbenzenesulfonamide; PBSM, N-phenylbenzenesulfonamide; xxwy
  CG2R61   CG2R61    SG3O2    NG321     9     0.000000     1.464400     2 ; BSAM, benzenesulfonamide, xxwy
  CG2R61   CG2R61    SG3O2    OG2P1     9     0.000000     0.000000     6 ; BSAM, benzenesulfonamide and other sulfonamides, xxwy
  CG2R61   CG2R61    BG201    OG2D2     9   180.000000     4.016640     2 ; BONB,BNNB Boronic acid, sr
  CG2R61   CG2R61    BG201    OG2D2     9     0.000000     0.439320     4 ; BONB,BNNB Boronic acid, sr
  CG2R61   CG2R61    BG201    OG2D2     9   180.000000     0.146440     6 ; BONB,BNNB Boronic acid, sr
  CG2R61   CG2R61    BG201    OG311     9   180.000000     4.016640     2 ; BORB,BONB Boronic acid, sr
  CG2R61   CG2R61    BG201    OG311     9     0.000000     0.439320     4 ; BORB,BONB Boronic acid, sr
  CG2R61   CG2R61    BG201    OG311     9   180.000000     0.146440     6 ; BORB,BONB Boronic acid, sr
   CG2O1   CG2R62   CG2R62   CG2R62     9   180.000000    12.552000     2 ; NA nad/ppi, jjp1/adm jr. 7/95
   CG2O1   CG2R62   CG2R62   NG2R61     9   180.000000    10.460000     2 ; NA ppi, jjp1/adm jr. 7/95
   CG2O1   CG2R62   CG2R62    HGR63     9   180.000000     4.184000     2 ; NA nad/ppi, jjp1/adm jr. 7/95
   CG2O4   CG2R62   CG2R62   NG2R61     9   180.000000    10.460000     2 ; 5FC, yxu, RNA
   CG2O4   CG2R62   CG2R62   NG2R62     9   180.000000    10.460000     2 ; 5fop, not optimized, yxu, RNA
   CG2O4   CG2R62   CG2R62    HGR62     9   180.000000    11.715200     2 ; 5FC, yxu, RNA
  CG2R61   CG2R62   CG2R62   CG2R61     9   180.000000    10.460000     2 ; RIN, coumarin, isg
  CG2R61   CG2R62   CG2R62   CG2R62     9   180.000000     8.368000     2 ; RIN, coumarin, isg
  CG2R61   CG2R62   CG2R62   CG2R63     9   180.000000    15.480800     2 ; YTHY, 2,4(1H,3H)-quinazolinedione, isg
  CG2R61   CG2R62   CG2R62   NG2R61     9   180.000000    14.644000     2 ; YTHY, 2,4(1H,3H)-quinazolinedione, isg
  CG2R61   CG2R62   CG2R62   NG2R62     9   180.000000    12.970400     2 ; TC243C, 4(3H)-quinazolinone, isg
  CG2R61   CG2R62   CG2R62   OG3R60     9   180.000000    16.317600     2 ; RIN, coumarin, isg
  CG2R61   CG2R62   CG2R62    HGR62     9   180.000000     4.184000     2 ; RIN, coumarin, isg
  CG2R62   CG2R62   CG2R62   CG2R62     9   180.000000    25.104000     2 ; NA nad/ppi, jjp1/adm jr. 7/95
  CG2R62   CG2R62   CG2R62   CG2R63     9   180.000000    12.552000     2 ; 2PYO, 2-Pyridone, xxwy
  CG2R62   CG2R62   CG2R62   NG2R61     9   180.000000    29.288000     2 ; NA nad/ppi, jjp1/adm jr. 7/95
  CG2R62   CG2R62   CG2R62   NG2R62     9   180.000000     5.020800     2 ; 5FOP, PYRH; from CG2R61 CG2R61 CG2R61 NG2R62, PYRD, PYRM and CG2R61 CG2R61 CG2R61 NG2R60, PYR1; yxu
  CG2R62   CG2R62   CG2R62   NG2R67     9   180.000000    14.644000     2 ; 1PH2PO, 1-phenyl-2(1H)-pyridinone; from CG2R61 CG2R62 CG2R62 NG2R61, YTHY; isg
  CG2R62   CG2R62   CG2R62    OG311     9   180.000000    12.552000     2 ; enoU, from NG2R61 CG2R62 CG2R62 OG311, yxu, RNA
  CG2R62   CG2R62   CG2R62   OG3R60     9   180.000000     1.673600     2 ; RIN, coumarin, isg
  CG2R62   CG2R62   CG2R62    HGR62     9   180.000000     4.184000     2 ; 2PYO, 2-Pyridone, xxwy
  CG2R62   CG2R62   CG2R62    HGR63     9   180.000000     4.184000     2 ; NA bases
  CG2R63   CG2R62   CG2R62   CG2R67     9   180.000000    15.480800     2 ; pyo3b , from CG2R61 CG2R62 CG2R62 CG2R63, penalty= 0.5
  CG2R63   CG2R62   CG2R62   NG2R61     9   180.000000    12.552000     2 ; NA T
  CG2R63   CG2R62   CG2R62   NG2R62     9   180.000000     2.092000     2 ; TC243C, 4(3H)-quinazolinone, isg
  CG2R63   CG2R62   CG2R62   NG2R67     9   180.000000    12.552000     2 ; 1PH4PO, 1-phenyl-4(1H)-pyridinone; from CG2R63 CG2R62 CG2R62 NG2R61; isg
  CG2R63   CG2R62   CG2R62    HGR62     9   180.000000     4.184000     2 ; NA bases
  CG2R64   CG2R62   CG2R62   NG2R61     9   180.000000    25.104000     2 ; NA C
  CG2R64   CG2R62   CG2R62    HGR62     9   180.000000    16.736000     2 ; NA 5mc, adm jr. 9/9/93
  CG2R67   CG2R62   CG2R62   NG2R61     9   180.000000    14.644000     2 ; pyo2b , from CG2R61 CG2R62 CG2R62 NG2R61, penalty= 0.5
  CG2R67   CG2R62   CG2R62    HGR62     9   180.000000     4.184000     2 ; pyo2b , from CG2R61 CG2R62 CG2R62 HGR62, penalty= 0.5
  CG2R67   CG2R62   CG2R62    HGR63     9   180.000000     4.184000     2 ; PIUB , from CG2R61 CG2R62 CG2R62 HGR62, penalty= 1.5
   CG311   CG2R62   CG2R62   NG2R61     9   180.000000    16.736000     2 ; CMU, from CG331 CG2R62 CG2R62 NG2R61, yxu, RNA
   CG311   CG2R62   CG2R62    HGR62     9   180.000000    16.736000     2 ; CMU, from CG331 CG2R62 CG2R62 HGR62, yxu, RNA
   CG321   CG2R62   CG2R62   NG2R61     9   180.000000    16.736000     2 ; 5CU, from CG331 CG2R62 CG2R62 NG2R61, yxu, RNA
   CG321   CG2R62   CG2R62    HGR62     9   180.000000    16.736000     2 ; 5CU, from CG331 CG2R62 CG2R62 HGR62, yxu, RNA
   CG324   CG2R62   CG2R62   NG2R61     9   180.000000    13.388800     2 ; SAU, yxu, 21/2/14, RNA
   CG324   CG2R62   CG2R62    HGR62     9   180.000000    22.593600     2 ; SAU, yxu, 21/2/14, RNA
   CG331   CG2R62   CG2R62   NG2R61     9   180.000000    16.736000     2 ; NA 5mc, adm jr. 9/9/93
   CG331   CG2R62   CG2R62   NG2R62     9   180.000000    37.656000     2 ; 3PC, yxu, RNA
   CG331   CG2R62   CG2R62    HGR62     9   180.000000    16.736000     2 ; NA 5mc, adm jr. 9/9/93
  NG2R61   CG2R62   CG2R62    OG301     9   180.000000     6.694400     2 ; MOU, yxu, 21/2/14, RNA
  NG2R61   CG2R62   CG2R62    OG311     9   180.000000    12.552000     2 ; 5HU, yxu, RNA
  NG2R61   CG2R62   CG2R62    HGR62     9   180.000000    14.225600     2 ; NA C
  NG2R61   CG2R62   CG2R62    HGR63     9   180.000000    29.288000     2 ; NA nad/ppi, jjp1/adm jr. 7/95
  NG2R62   CG2R62   CG2R62    OG301     9   180.000000     6.694400     2 ; enoU, from NG2R61 CG2R62 CG2R62 OG301, yxu, RNA
  NG2R62   CG2R62   CG2R62    HGR62     9   180.000000    25.104000     2 ; 43HPY, 4(3H)-pyrimidinone; from NG2R62 CG2R61 CG2R61 HGR62; isg
  NG2R62   CG2R62   CG2R62    HGR63     9   180.000000     4.602400     2 ; PYRH ,6.00  2   180.00 ! from NG2R62 CG2R62 CG2R62 HGR62, penalty= 1
  NG2R67   CG2R62   CG2R62    HGR62     9   180.000000    14.225600     2 ; 1PH4PO, 1-phenyl-4(1H)-pyridinone; from NG2R61 CG2R62 CG2R62 HGR62; isg
   OG301   CG2R62   CG2R62    OG311     9   180.000000     0.000000     2 ; enoU, from OG2D4  CG2R63 CG2R62 OG301, yxu, RNA
   OG301   CG2R62   CG2R62    HGR62     9   180.000000    15.480800     2 ; MOU, yxu, 21/2/14, RNA
   OG311   CG2R62   CG2R62    HGR62     9   180.000000    11.296800     2 ; 5HU, yxu, RNA
   HGR62   CG2R62   CG2R62    HGR62     9   180.000000    12.552000     2 ; NA U
   HGR63   CG2R62   CG2R62    HGR63     9   180.000000     8.368000     2 ; NA nad/ppi, jjp1/adm jr. 7/95
  CG2R61   CG2R62   CG2R63   NG2R61     9   180.000000     7.531200     2 ; YTHY, 2,4(1H,3H)-quinazolinedione, isg
  CG2R61   CG2R62   CG2R63    OG2D4     9   180.000000     4.184000     2 ; YTHY, 2,4(1H,3H)-quinazolinedione, isg
  CG2R61   CG2R62   CG2R63    SG2D1     9   180.000000    18.828000     2 ; YT2S, 3,4-dihydro-4-thioxo-2(1H)-quinazolinone; from CG2R61 CG2R61 CG2R61 SG311, FETZ; isg
  CG2R62   CG2R62   CG2R63   CG2R62     9   180.000000     6.694400     2 ; 4PYO, 4(1H)-pyridinone, isg
  CG2R62   CG2R62   CG2R63   NG2R61     9   180.000000     7.531200     2 ; NA T
  CG2R62   CG2R62   CG2R63   NG2R62     9   180.000000     3.347200     2 ; 1PC, yxu, RNA
  CG2R62   CG2R62   CG2R63   NG2R67     9   180.000000     7.531200     2 ; 1PH2PO, 1-phenyl-2(1H)-pyridinone; from CG2R61 CG2R62 CG2R63 NG2R61, YTHY; isg
  CG2R62   CG2R62   CG2R63    OG2D4     9   180.000000     4.184000     2 ; NA bases
  CG2R62   CG2R62   CG2R63   OG3R60     9   180.000000     1.673600     2 ; RIN, coumarin, isg
  CG2R62   CG2R62   CG2R63    SG2D1     9   180.000000    18.828000     2 ; YT2S, 3,4-dihydro-4-thioxo-2(1H)-quinazolinone; from CG2R61 CG2R61 CG2R61 SG311, FETZ; isg
  CG2R64   CG2R62   CG2R63   NG2R61     9   180.000000     5.857600     2 ; flavin
  CG2R64   CG2R62   CG2R63    OG2D4     9   180.000000     3.598240     2 ; flavin
  CG2R67   CG2R62   CG2R63   NG2R61     9   180.000000     7.531200     2 ; pyo2b , from CG2R61 CG2R62 CG2R63 NG2R61, penalty= 0.5
  CG2R67   CG2R62   CG2R63    OG2D4     9   180.000000     4.184000     2 ; pyo2b , from CG2R61 CG2R62 CG2R63 OG2D4, penalty= 0.5
   CG311   CG2R62   CG2R63   NG2R61     9   180.000000    23.430400     2 ; CMU, from CG331 CG2R62 CG2R63 NG2R61, yxu, RNA
   CG311   CG2R62   CG2R63    OG2D4     9   180.000000     0.000000     2 ; CMU, yxu, RNA
   CG321   CG2R62   CG2R63   NG2R61     9   180.000000    23.430400     2 ; 5CU, from CG331 CG2R62 CG2R63 NG2R61, yxu, RNA
   CG321   CG2R62   CG2R63   NG2R62     9   180.000000    18.828000     2 ; GAU, from NG2R62 CG2R63 CG2R62 CG324, yxu, RNA
   CG321   CG2R62   CG2R63    OG2D4     9   180.000000     4.184000     2 ; 5CU, from OG2D4 CG2R63 CG2R62 CG331, yxu, RNA
   CG324   CG2R62   CG2R63   NG2R61     9   180.000000    18.828000     2 ; SAU, yxu, 21/2/14, RNA
   CG324   CG2R62   CG2R63   NG2R62     9   180.000000    18.828000     2 ; SAU, yxu, RNA
   CG324   CG2R62   CG2R63    OG2D4     9   180.000000     0.000000     2 ; SAU, yxu, 21/2/14, RNA
   CG331   CG2R62   CG2R63   NG2R61     9   180.000000    23.430400     2 ; NA T
   CG331   CG2R62   CG2R63   NG2R62     9   180.000000    37.656000     2 ; 1PC, yxu, RNA
   CG331   CG2R62   CG2R63    OG2D4     9   180.000000     4.184000     2 ; NA bases
   NG311   CG2R62   CG2R63   NG2R61     9   180.000000    16.736000     2 ; flavin
   NG311   CG2R62   CG2R63    OG2D4     9   180.000000     4.895280     2 ; flavin
   OG301   CG2R62   CG2R63   NG2R61     9   180.000000    10.460000     2 ; MOU, yxu, 21/2/14, RNA
   OG301   CG2R62   CG2R63    OG2D4     9   180.000000     0.000000     2 ; MOU, yxu, 21/2/14, RNA
   OG311   CG2R62   CG2R63   NG2R61     9   180.000000    11.296800     2 ; 5HU, yxu, RNA
   OG311   CG2R62   CG2R63    OG2D4     9   180.000000     0.000000     2 ; 5HU, yxu, RNA
   HGR62   CG2R62   CG2R63   CG2R62     9   180.000000     2.092000     2 ; 4PYO, 4(1H)-pyridinone, isg
   HGR62   CG2R62   CG2R63   NG2R61     9   180.000000     4.184000     2 ; NA bases
   HGR62   CG2R62   CG2R63   NG2R62     9   180.000000     4.184000     2 ; GAU, yxu, RNA
   HGR62   CG2R62   CG2R63   NG2R67     9   180.000000     3.347200     2 ; 1PH2PO, 1-phenyl-2(1H)-pyridinone; from NG2R61 CG2R61 CG2R61 HGR61 , YTS2; isg
   HGR62   CG2R62   CG2R63    OG2D4     9   180.000000    25.104000     2 ; NA U
   HGR62   CG2R62   CG2R63   OG3R60     9   180.000000    10.041600     2 ; RIN, coumarin, isg
   HGR62   CG2R62   CG2R63    SG2D1     9   180.000000    10.041600     2 ; URA4S, 3,4-dihydro-4-thioxo-2(1H)-pyrimidinone; from SG311 CG2R61 CG2R61 HGR61; isg
   CG2O4   CG2R62   CG2R64   NG2R62     9   180.000000    15.062400     2 ; 5FC, yxu, RNA
   CG2O4   CG2R62   CG2R64    NG2S3     9   180.000000     6.276000     2 ; 5FC, yxu, RNA
  CG2R62   CG2R62   CG2R64    NG2D1     9   180.000000    12.552000     2 ; 3MCn, yxu, RNA
  CG2R62   CG2R62   CG2R64    NG2P1     9   180.000000     2.510400     2 ; 3MC, yxu, RNA
  CG2R62   CG2R62   CG2R64   NG2R61     9   180.000000    29.288000     2 ; 3MCn, from CG2R62 CG2R62 CG2R62 NG2R61, yxu, RNA
  CG2R62   CG2R62   CG2R64   NG2R62     9   180.000000     2.510400     2 ; NA C
  CG2R62   CG2R62   CG2R64    NG2S1     9   180.000000    12.970400     2 ; 4AC, from CG2R61 CG2R61 CG2R64 NG2S1, yxu, RNA
  CG2R62   CG2R62   CG2R64    NG2S3     9   180.000000     8.368000     2 ; NA C
  CG2R62   CG2R62   CG2R64    NG301     9   180.000000    12.970400     2 ; TMC, from 4MC, yxu
  CG2R62   CG2R62   CG2R64    NG311     9   180.000000    12.970400     2 ; 4MC, yxu, RNA
  CG2R63   CG2R62   CG2R64   NG2R61     9   180.000000     1.046000     2 ; flavin
  CG2R63   CG2R62   CG2R64   NG2R62     9   180.000000     4.267680     2 ; flavin
  CG2R63   CG2R62   CG2R64    NG301     9   180.000000    22.509920     2 ; flavin
   CG321   CG2R62   CG2R64   NG2R62     9   180.000000     4.184000     2 ; HMC, yxu, RNA
   CG321   CG2R62   CG2R64    NG2S3     9   180.000000    10.041600     2 ; HMC, yxu, RNA
   CG331   CG2R62   CG2R64    NG2P1     9   180.000000     4.184000     2 ; 5MCp, from HMC, yxu, RNA
   CG331   CG2R62   CG2R64   NG2R62     9   180.000000     4.184000     2 ; 5MC, from HMC, yxu, RNA
   CG331   CG2R62   CG2R64    NG2S3     9   180.000000    10.041600     2 ; 5MC, from CG331 CG2R61 CG2R61 NG2S1, yxu, RNA
   NG311   CG2R62   CG2R64   NG2R61     9   180.000000    19.915840     2 ; flavin
   NG311   CG2R62   CG2R64   NG2R62     9   180.000000     5.355520     2 ; flavin
   NG311   CG2R62   CG2R64    NG301     9   180.000000    12.761200     2 ; flavin
   HGR62   CG2R62   CG2R64    NG2D1     9   180.000000     4.184000     2 ; 3MCn, yxu, RNA
   HGR62   CG2R62   CG2R64    NG2P1     9   180.000000     4.184000     2 ; 3MC, yxu, RNA
   HGR62   CG2R62   CG2R64   NG2R61     9   180.000000    14.225600     2 ; 3MCn, from NG2R61 CG2R62 CG2R62 HGR62, yxu, RNA
   HGR62   CG2R62   CG2R64   NG2R62     9   180.000000    14.225600     2 ; NA C
   HGR62   CG2R62   CG2R64    NG2S1     9   180.000000    10.041600     2 ; 4AC, from HGR61 CG2R61 CG2R64 NG2S1, yxu, RNA
   HGR62   CG2R62   CG2R64    NG2S3     9   180.000000     8.368000     2 ; NA C
   HGR62   CG2R62   CG2R64    NG301     9   180.000000     0.000000     2 ; TMC, from 4MC, yxu
   HGR62   CG2R62   CG2R64    NG311     9   180.000000     0.000000     2 ; 4MC, yxu, RNA
  CG2R62   CG2R62   CG2R67   CG2R62     9   180.000000    12.970400     2 ; pyo2b , from CG2R61 CG2R61 CG2R67 CG2R61, penalty= 6
  CG2R62   CG2R62   CG2R67   CG2R67     9   180.000000    12.970400     2 ; pyo2b , from CG2R61 CG2R61 CG2R67 CG2R67, penalty= 5.5
  CG2R63   CG2R62   CG2R67   CG2R62     9   180.000000    12.970400     2 ; pyo2b , from CG2R61 CG2R61 CG2R67 CG2R61, penalty= 8.5
  CG2R63   CG2R62   CG2R67   CG2R67     9   180.000000    12.970400     2 ; pyo2b , from CG2R61 CG2R61 CG2R67 CG2R67, penalty= 8
  NG2R61   CG2R62   CG2R67   CG2R62     9   180.000000     5.020800     2 ; pyo3b , from NG2R60 CG2R61 CG2R67 CG2R61, penalty= 27.5
  NG2R61   CG2R62   CG2R67   CG2R67     9   180.000000     4.184000     2 ; pyo3b , from NG2R60 CG2R61 CG2R67 CG2R67, penalty= 27
  NG2R62   CG2R62   CG2R67   CG2R62     9   180.000000     5.020800     2 ; PYRF , from NG2R60 CG2R61 CG2R67 CG2R61, penalty= 6.5
  NG2R62   CG2R62   CG2R67   CG2R67     9   180.000000     4.184000     2 ; PYRF , from NG2R60 CG2R61 CG2R67 CG2R67, penalty= 6
   HGR62   CG2R62   CG2R67   CG2R62     9   180.000000    17.572800     2 ; pyo2b , from HGR62 CG2R61 CG2R67 CG2R61, penalty= 5.5
   HGR62   CG2R62   CG2R67   CG2R67     9   180.000000    17.572800     2 ; pyo2b , from HGR62 CG2R61 CG2R67 CG2R67, penalty= 5
   HGR63   CG2R62   CG2R67   CG2R62     9   180.000000    17.572800     2 ; PIUB , from HGR62 CG2R61 CG2R67 CG2R61, penalty= 6.5
   HGR63   CG2R62   CG2R67   CG2R67     9   180.000000    17.572800     2 ; PIUB , from HGR62 CG2R61 CG2R67 CG2R67, penalty= 6
  CG2R62   CG2R62    CG311    CG2O2     9     0.000000     0.836800     2 ; CMU, from cmbz, yxu, RNA
  CG2R62   CG2R62    CG311    CG2O3     9   180.000000     0.962320     2 ; HCU, from CG2R61 CG2R61 CG311 CG2O3, yxu, RNA
  CG2R62   CG2R62    CG311    CG331     9     0.000000     1.673600     2 ; qhe, yxu, 7/5,13, RNA
  CG2R62   CG2R62    CG311    OG311     9   180.000000     2.928800     2 ; CMU, from cmbz, yxu, RNA
  CG2R62   CG2R62    CG311     HGA1     9   180.000000     0.418400     6 ; CMU, from CG2R61 CG2R61 CG311 HGA1 yxu, RNA
  CG2R63   CG2R62    CG311    CG2O2     9     0.000000     0.836800     2 ; CMU, from cmbz, yxu, RNA
  CG2R63   CG2R62    CG311    CG2O3     9   180.000000     0.962320     2 ; HCU, from CG2R61 CG2R61 CG311 CG2O3, yxu, RNA
  CG2R63   CG2R62    CG311    OG311     9   180.000000     3.347200     1 ; CMU, (compensation for inner O8..O6 & H7O..O6), yxu, RNA
  CG2R63   CG2R62    CG311     HGA1     9   180.000000     0.418400     6 ; CMU, yxu, RNA
  CG2R62   CG2R62    CG321    CG1N1     9   180.000000     1.631760     2 ; CYU, from cybz, yxu, RNA
  CG2R62   CG2R62    CG321    CG1N1     9     0.000000     0.167360     4 ; CYU, from cybz, yxu, RNA
  CG2R62   CG2R62    CG321    CG2O1     9     0.000000     0.418400     2 ; BCU, from mebz, yxu, RNA
  CG2R62   CG2R62    CG321    CG2O2     9     0.000000     0.418400     2 ; OCU, from mebz, yxu, RNA
  CG2R62   CG2R62    CG321    CG2O3     9     0.000000     0.418400     4 ; 5CU, from bzac, yxu, RNA
  CG2R62   CG2R62    CG321    NG311     9   180.000000     4.184000     2 ; 5UHG, from ambz, yxu, RNA
  CG2R62   CG2R62    CG321    NG321     9   180.000000     4.184000     2 ; 5UNA, from ambz, yxu, RNA
  CG2R62   CG2R62    CG321    OG311     9     0.000000     0.000000     2 ; HMC, yxu, RNA
  CG2R62   CG2R62    CG321     HGA2     9     0.000000     0.251040     4 ; 5CU, yxu, RNA
  CG2R63   CG2R62    CG321    CG1N1     9   180.000000     1.631760     2 ; CYU, from cybz, yxu, RNA
  CG2R63   CG2R62    CG321    CG1N1     9     0.000000     0.167360     4 ; CYU, from cybz, yxu, RNA
  CG2R63   CG2R62    CG321    CG2O1     9     0.000000     0.418400     2 ; BCU, from mebz, yxu, RNA
  CG2R63   CG2R62    CG321    CG2O2     9     0.000000     0.418400     2 ; OCU, from mebz, yxu, RNA
  CG2R63   CG2R62    CG321    CG2O3     9     0.000000     0.627600     3 ; 5CU, (compensation for inner repulsion O8..O6), yxu, RNA
  CG2R63   CG2R62    CG321    CG2O3     9     0.000000     0.418400     4 ; 5CU, yxu, RNA
  CG2R63   CG2R62    CG321    NG311     9   180.000000     4.184000     2 ; 5UHG, from ambz, yxu, RNA
  CG2R63   CG2R62    CG321    NG321     9   180.000000     4.184000     2 ; 5UNA, from ambz, yxu, RNA
  CG2R63   CG2R62    CG321     HGA2     9     0.000000     0.251040     4 ; 5CU, yxu, RNA
  CG2R64   CG2R62    CG321    OG311     9   180.000000     4.184000     1 ; HMC, yxu, RNA
  CG2R64   CG2R62    CG321    OG311     9     0.000000     4.184000     2 ; HMC, yxu, RNA
  CG2R64   CG2R62    CG321     HGA2     9     0.000000     3.389040     3 ; HMC, yxu, RNA
  CG2R62   CG2R62    CG324    NG3P2     9     0.000000     0.836800     2 ; 5AU, from bzma, yxu, RNA
  CG2R62   CG2R62    CG324    NG3P3     9   180.000000     2.092000     2 ; SAU, from bzam, yxu, RNA
  CG2R62   CG2R62    CG324     HGA2     9     0.000000     0.209200     2 ; SAU, yxu, 21/2/14, RNA
  CG2R63   CG2R62    CG324    NG3P2     9   180.000000     7.949600     1 ; 5AU, (compensation for inner H-bond N8-H..O6), yxu, RNA
  CG2R63   CG2R62    CG324    NG3P2     9     0.000000     0.836800     2 ; 5AU, yxu, RNA
  CG2R63   CG2R62    CG324    NG3P3     9     0.000000     3.138000     2 ; SAU, yxu, 21/2/14, RNA
  CG2R63   CG2R62    CG324     HGA2     9     0.000000     2.301200     3 ; SAU, yxu, 21/2/14, RNA
  CG2R62   CG2R62    CG331     HGA3     9     0.000000     1.924640     3 ; NA T
  CG2R63   CG2R62    CG331     HGA3     9     0.000000     1.924640     3 ; NA T
  CG2R64   CG2R62    CG331     HGA3     9     0.000000     1.924640     3 ; 5MC, from CG2R63 CG2R62 CG331 HGA3, yxu, RNA
  CG2R61   CG2R62   NG2R61   CG2R63     9   180.000000     2.510400     2 ; YTHY, 2,4(1H,3H)-quinazolinedione, isg
  CG2R61   CG2R62   NG2R61     HGP1     9   180.000000     4.184000     2 ; YTHY, 2,4(1H,3H)-quinazolinedione, isg
  CG2R62   CG2R62   NG2R61   CG2R62     9   180.000000    16.736000     2 ; NA nad/ppi, jjp1/adm jr. 7/95
  CG2R62   CG2R62   NG2R61   CG2R63     9   180.000000     2.510400     2 ; NA C
  CG2R62   CG2R62   NG2R61   CG2R64     9   180.000000     3.347200     2 ; 1PC, yxu, RNA
  CG2R62   CG2R62   NG2R61    CG331     9   180.000000    46.024000     2 ; 1MTH, 1-Methyl-Thymine, kevo for gsk/ibm
  CG2R62   CG2R62   NG2R61   CG3C51     9   180.000000    46.024000     2 ; NA, glycosyl linkage
  CG2R62   CG2R62   NG2R61   CG3C53     9   180.000000    46.024000     2 ; NA, glycosyl linkage
  CG2R62   CG2R62   NG2R61   CG3RC1     9   180.000000     4.184000     2 ; NA bases
  CG2R62   CG2R62   NG2R61     HGP1     9   180.000000     4.184000     2 ; NA base
  CG2R62   CG2R62   NG2R61     HGP2     9   180.000000     4.184000     2 ; NA base
  CG2R67   CG2R62   NG2R61   CG2R62     9   180.000000    16.736000     2 ; PYRF , from CG2R62 CG2R62 NG2R61 CG2R62, penalty= 1.5
  CG2R67   CG2R62   NG2R61   CG2R63     9   180.000000     2.510400     2 ; pyo3b , from CG2R61 CG2R62 NG2R61 CG2R63, penalty= 0.5
  CG2R67   CG2R62   NG2R61     HGP1     9   180.000000     4.184000     2 ; pyo3b , from CG2R61 CG2R62 NG2R61 HGP1, penalty= 0.5
  CG2R67   CG2R62   NG2R61     HGP2     9   180.000000     4.184000     2 ; PYRF , from CG2R62 CG2R62 NG2R61 HGP2, penalty= 1.5
  NG2R62   CG2R62   NG2R61   CG2R62     9   180.000000     0.627600     2 ; PYRH ,0.2000  2   180.00 ! from NG2R62 CG2R64 NG2R61 CG2R63, penalty= 17
  NG2R62   CG2R62   NG2R61     HGP2     9   180.000000    13.388800     2 ; PYRH ,3.6000  2   180.00 ! from NG2R62 CG2R64 NG2R61 HGP1, penalty= 18
   HGR62   CG2R62   NG2R61   CG2R62     9   180.000000    23.430400     2 ; 4PYO, 4(1H)-pyridinone, isg
   HGR62   CG2R62   NG2R61   CG2R63     9   180.000000    19.246400     2 ; NA C
   HGR62   CG2R62   NG2R61   CG2R64     9   180.000000    20.083200     2 ; 1PC, from HGR62 CG2R62 NG2R61 CG2R63, yxu, RNA
   HGR62   CG2R62   NG2R61    CG331     9   180.000000     1.255200     2 ; 1MTH, 1-Methyl-Thymine, kevo for gsk/ibm
   HGR62   CG2R62   NG2R61   CG3C51     9   180.000000     1.255200     2 ; NA, glycosyl linkage
   HGR62   CG2R62   NG2R61   CG3RC1     9   180.000000     4.184000     2 ; NA bases
   HGR62   CG2R62   NG2R61     HGP1     9   180.000000     5.020800     2 ; adjusted for 2PYO,URAC,4PYO, kevo,isg,xxwy 8/13
   HGR63   CG2R62   NG2R61   CG2R62     9   180.000000    29.288000     2 ; NA nad/ppi, jjp1/adm jr. 7/95
   HGR63   CG2R62   NG2R61   CG3C53     9   180.000000     4.184000     2 ; NA base
   HGR63   CG2R62   NG2R61     HGP2     9   180.000000    12.552000     2 ; NA nad/ppi, jjp1/adm jr. 7/95
  CG2R61   CG2R62   NG2R62   CG2R64     9   180.000000     8.368000     2 ; TC243C, 4(3H)-quinazolinone, isg
  CG2R62   CG2R62   NG2R62   CG2R62     9   180.000000    11.296800     2 ; PYRH ,0.5000  2   180.00 ! from CG2R62 CG2R62 NG2R62 CG2R64, penalty= 2.5
  CG2R62   CG2R62   NG2R62   CG2R63     9   180.000000     8.368000     2 ; 5fop, from CG2R61 CG2R61 NG2R62 CG2R64, not optimized, yxu, RNA
  CG2R62   CG2R62   NG2R62   CG2R64     9   180.000000     2.092000     2 ; TC243C, 4(3H)-quinazolinone, isg
  CG2R67   CG2R62   NG2R62   CG2R62     9   180.000000     8.368000     2 ; PYRF , from CG2R61 CG2R62 NG2R62 CG2R64, penalty= 3
  NG2R61   CG2R62   NG2R62   CG2R62     9   180.000000    12.552000     2 ; PYRH ,4.00  2   180.00 ! from NG2R61 CG2R64 NG2R62 CG2R62, penalty= 15
   OG311   CG2R62   NG2R62   CG2R63     9   180.000000    12.552000     2 ; enoU, from NG2R61 CG2R62 CG2R62 OG311, yxu, RNA
   HGR62   CG2R62   NG2R62   CG2R63     9   180.000000    30.543200     2 ; 5fop, from HGR62 CG2R61 NG2R62 CG2R64, not optimized, yxu, RNA
   HGR62   CG2R62   NG2R62   CG2R64     9   180.000000    30.543200     2 ; 43HPY, 4(3H)-pyrimidinone; from HGR62 CG2R61 NG2R62 CG2R64; isg
   HGR63   CG2R62   NG2R62   CG2R62     9   180.000000    30.961600     2 ; PYRH ,7.3000  2   180.00 ! from HGR62 CG2R62 NG2R62 CG2R64, penalty= 3.5
  CG2R62   CG2R62   NG2R67   CG2R62     9   180.000000    16.736000     2 ; 1PH4PO, 1-phenyl-4(1H)-pyridinone; from CG2R62 CG2R62 NG2R61 CG2R62; isg
  CG2R62   CG2R62   NG2R67   CG2R63     9   180.000000     2.510400     2 ; 1PH2PO, 1-phenyl-2(1H)-pyridinone; from CG2R62 CG2R62 NG2R61 CG2R63, NA; isg
  CG2R62   CG2R62   NG2R67   CG2R67     9   180.000000    16.736000     2 ; 1PH4PO, 1-phenyl-4(1H)-pyridinone; from CG2R62 CG2R62 NG2R61 CG2R62; isg
   HGR62   CG2R62   NG2R67   CG2R62     9   180.000000    11.715200     2 ; 1PH4PO, 1-phenyl-4(1H)-pyridinone; from NG2R60 CG2R61 CG2R61 HGR61; isg
   HGR62   CG2R62   NG2R67   CG2R63     9   180.000000    19.246400     2 ; 1PH2PO, 1-phenyl-2(1H)-pyridinone; from HGR62  CG2R62 NG2R61 CG2R63, NA; isg
   HGR62   CG2R62   NG2R67   CG2R67     9   180.000000     4.184000     2 ; 1PH4PO, 1-phenyl-4(1H)-pyridinone; from CG2R62 CG2R62 CG2R62 HGR62; isg
  CG2R63   CG2R62    NG311   CG2R61     9     0.000000     0.041840     2 ; flavin
  CG2R63   CG2R62    NG311   HGPAM1     9   180.000000     5.397360     2 ; flavin
  CG2R64   CG2R62    NG311   CG2R61     9   180.000000     0.125520     2 ; flavin
  CG2R64   CG2R62    NG311   HGPAM1     9   180.000000     4.184000     2 ; flavin
  CG2R62   CG2R62    OG301    CG321     9   180.000000     6.610720     2 ; OAU, from bzmo, yxu, RNA
  CG2R62   CG2R62    OG301    CG321     9   180.000000     0.836800     4 ; OAU, from bzmo, yxu, RNA
  CG2R62   CG2R62    OG301    CG331     9   180.000000     6.610720     2 ; MOU, from bzmo, yxu, RNA
  CG2R62   CG2R62    OG301    CG331     9   180.000000     0.836800     4 ; MOU, from bzmo, yxu, RNA
  CG2R63   CG2R62    OG301    CG321     9     0.000000     7.531200     1 ; OAU, from MOU, yxu, RNA
  CG2R63   CG2R62    OG301    CG321     9   180.000000    11.715200     2 ; OAU, from MOU, yxu, RNA
  CG2R63   CG2R62    OG301    CG321     9     0.000000     4.184000     3 ; OAU, from MOU, yxu, RNA
  CG2R63   CG2R62    OG301    CG331     9     0.000000     5.857600     1 ; MOU, yxu, RNA
  CG2R63   CG2R62    OG301    CG331     9   180.000000     4.184000     2 ; MOU, yxu, RNA
  CG2R63   CG2R62    OG301    CG331     9     0.000000     5.439200     3 ; MOU, yxu, RNA
  CG2R62   CG2R62    OG311     HGP1     9   180.000000     4.142160     2 ; 5HU, yxu, RNA
  CG2R63   CG2R62    OG311     HGP1     9   180.000000     1.715440     1 ; 5HU, yxu lower if interaction between HO5 and O4 is weakened in solution, RNA
  CG2R63   CG2R62    OG311     HGP1     9   180.000000     4.142160     2 ; 5HU, yxu, RNA
  CG2R63   CG2R62    OG311     HGP1     9     0.000000     0.418400     3 ; 5HU, yxu, RNA
  NG2R62   CG2R62    OG311     HGP1     9     0.000000    10.460000     1 ; enoU, yxu  might be lower in water, RNA
  NG2R62   CG2R62    OG311     HGP1     9   180.000000    11.296800     2 ; enoU, yxu, RNA
  NG2R62   CG2R62    OG311     HGP1     9     0.000000     3.556400     3 ; enoU, yxu, RNA
  CG2R61   CG2R62   OG3R60   CG2R63     9     0.000000     3.179840     2 ; RIN, coumarin, isg
  CG2R62   CG2R62   OG3R60   CG2R63     9     0.000000     3.932960     2 ; RIN, coumarin, isg
  NG2R61   CG2R63   CG2RC0   CG2R51     9   180.000000     0.836800     2 ; prf, ashalini
  NG2R61   CG2R63   CG2RC0   CG2RC0     9   180.000000     0.836800     2 ; NA G
  NG2R61   CG2R63   CG2RC0   NG2R50     9   180.000000     8.368000     2 ; NA G
  NG2R61   CG2R63   CG2RC0   NG2R52     9   180.000000     8.368000     2 ; 7MG, from NG2R61 CG2R63 CG2RC0 NG2R50, yxu, RNA
  NG2RC0   CG2R63   CG2RC0   CG2RC0     9   180.000000     0.836800     2 ; DWG, from NG2R61 CG2R63 CG2RC0 CG2RC0, yxu, RNA
  NG2RC0   CG2R63   CG2RC0   NG2R50     9   180.000000     8.368000     2 ; DWG, from NG2R61 CG2R63 CG2RC0 NG2R50, yxu, RNA
   OG2D4   CG2R63   CG2RC0   CG2R51     9   180.000000    16.736000     2 ; prf, ashalini
   OG2D4   CG2R63   CG2RC0   CG2RC0     9   180.000000    58.576000     2 ; NA G
   OG2D4   CG2R63   CG2RC0   NG2R50     9   180.000000     0.000000     2 ; NA G
   OG2D4   CG2R63   CG2RC0   NG2R52     9   180.000000     0.000000     2 ; 7MG, from OG2D4 CG2R63 CG2RC0 NG2R50, yxu, RNA
  NG2R61   CG2R63    NG2P1   CG2R64     9   180.000000     2.510400     2 ; 3MC, yxu, RNA
  NG2R61   CG2R63    NG2P1    CG334     9   180.000000    15.271600     2 ; 3MC, yxu, RNA
  NG2R61   CG2R63    NG2P1     HGP2     9   180.000000    10.250800     2 ; CYTp, yxu, RNA
   OG2D4   CG2R63    NG2P1   CG2R64     9   180.000000    10.878400     2 ; 3MC, yxu, RNA
   OG2D4   CG2R63    NG2P1    CG334     9   180.000000     7.112800     2 ; 3MC, yxu, RNA
   OG2D4   CG2R63    NG2P1     HGP2     9   180.000000     6.694400     2 ; CYTp, yxu, RNA
  CG2R61   CG2R63   NG2R61   CG2R63     9   180.000000     2.092000     2 ; YTS2, 2,4(1H,3H)-quinazolinedithione, isg
  CG2R61   CG2R63   NG2R61   CG2R64     9   180.000000     6.276000     2 ; 43HSPY, 4(3H)-pyrimidinethione; from CG2R62 CG2R63 NG2R61 CG2R63; isg
  CG2R61   CG2R63   NG2R61     HGP1     9   180.000000    20.083200     2 ; YTS2, 2,4(1H,3H)-quinazolinedithione, isg
  CG2R62   CG2R63   NG2R61   CG2R62     9   180.000000     6.276000     2 ; 2PYO, 2-Pyridone, xxwy
  CG2R62   CG2R63   NG2R61   CG2R63     9   180.000000     6.276000     2 ; NA U
  CG2R62   CG2R63   NG2R61   CG2R64     9   180.000000     2.092000     2 ; TC243C, 4(3H)-quinazolinone, isg
  CG2R62   CG2R63   NG2R61    CG321     9   180.000000    23.012000     2 ; 3AU, from CG2R62 CG2R62 NG2R61 CG331, yxu, RNA
  CG2R62   CG2R63   NG2R61    CG331     9   180.000000    23.012000     2 ; 3MP, yxu, RNA
  CG2R62   CG2R63   NG2R61     HGP1     9   180.000000    20.083200     2 ; NA T
  CG2RC0   CG2R63   NG2R61   CG2R64     9   180.000000     0.836800     2 ; NA G
  CG2RC0   CG2R63   NG2R61    CG331     9   180.000000    23.012000     2 ; 1MI, yxu, RNA
  CG2RC0   CG2R63   NG2R61     HGP1     9   180.000000    15.062400     2 ; NA G
   NG2P1   CG2R63   NG2R61   CG2R62     9   180.000000     2.510400     2 ; 3MC, yxu, RNA
   NG2P1   CG2R63   NG2R61    CG331     9   180.000000    46.024000     2 ; 3MC, not optimized, yxu, RNA
   NG2P1   CG2R63   NG2R61     HGP1     9   180.000000     0.000000     2 ; 3MC, from OG2D4 CG2R63 NG2R61 HGP1, yxu, RNA
  NG2R61   CG2R63   NG2R61   CG2R61     9   180.000000     2.092000     2 ; YTS2, 2,4(1H,3H)-quinazolinedithione, isg
  NG2R61   CG2R63   NG2R61   CG2R62     9   180.000000     6.276000     2 ; NA U
  NG2R61   CG2R63   NG2R61   CG2R63     9   180.000000    12.552000     2 ; NA T
  NG2R61   CG2R63   NG2R61   CG2R64     9   180.000000    12.552000     2 ; 3MCn, from NG2R61 CG2R63 NG2R61 CG2R63, yxu, RNA
  NG2R61   CG2R63   NG2R61    CG321     9   180.000000    23.012000     2 ; 3AU, from NG2R61 CG2R63 NG2R61 CG331, yxu, RNA
  NG2R61   CG2R63   NG2R61    CG331     9   180.000000    46.024000     2 ; 1MTH, 1-Methyl-Thymine, kevo for gsk/ibm
  NG2R61   CG2R63   NG2R61   CG3C51     9   180.000000    46.024000     2 ; NA, glycosyl linkage
  NG2R61   CG2R63   NG2R61   CG3RC1     9   180.000000     4.184000     2 ; NA base
  NG2R61   CG2R63   NG2R61     HGP1     9   180.000000    13.807200     2 ; NAMODEL cytosine tautomer
  NG2R62   CG2R63   NG2R61   CG2R61     9   180.000000     2.510400     2 ; 2SC, from NA36, RNA
  NG2R62   CG2R63   NG2R61   CG2R62     9   180.000000     2.510400     2 ; NA C
  NG2R62   CG2R63   NG2R61   CG2R63     9   180.000000     5.230000     2 ; flavin
  NG2R62   CG2R63   NG2R61    CG331     9   180.000000    46.024000     2 ; CYT, BTMC,...; not optimized; yxu
  NG2R62   CG2R63   NG2R61   CG3C51     9   180.000000    46.024000     2 ; NA, glycosyl linkage
  NG2R62   CG2R63   NG2R61   CG3RC1     9   180.000000     3.765600     2 ; NA bases
  NG2R62   CG2R63   NG2R61     HGP1     9   180.000000    10.962080     2 ; flavin
  NG2R67   CG2R63   NG2R61   CG2R61     9   180.000000     6.276000     2 ; 3PH24S, 2,3-dihydro-3-phenyl-2-thioxo-4(1H)pyrimidinethione; from NG2R61 CG2R63 NG2R61 CG2R62, NA; isg
  NG2R67   CG2R63   NG2R61   CG2R62     9   180.000000     6.276000     2 ; 3PHURA, 3-phenyl-2,4(1H,3H)-pyrimidinedione; from NG2R61 CG2R63 NG2R61 CG2R62, NA; isg
  NG2R67   CG2R63   NG2R61     HGP1     9   180.000000    13.807200     2 ; 3PHURA, 3-phenyl-2,4(1H,3H)-pyrimidinedione; from NG2R61 CG2R63 NG2R61 HGP1, NA; isg
   OG2D4   CG2R63   NG2R61   CG2R62     9   180.000000     6.694400     2 ; NA C
   OG2D4   CG2R63   NG2R61   CG2R63     9   180.000000     3.765600     2 ; NA bases
   OG2D4   CG2R63   NG2R61   CG2R64     9   180.000000    58.576000     2 ; NA G
   OG2D4   CG2R63   NG2R61    CG321     9   180.000000     0.000000     2 ; 3AU, from OG2D4 CG2R63 NG2R61 CG331, yxu, RNA
   OG2D4   CG2R63   NG2R61    CG331     9   180.000000    46.024000     2 ; 1MTH, 1-Methyl-Thymine, kevo for gsk/ibm
   OG2D4   CG2R63   NG2R61   CG3C51     9   180.000000    46.024000     2 ; NA, glycosyl linkage
   OG2D4   CG2R63   NG2R61   CG3RC1     9   180.000000     4.184000     2 ; NA base
   OG2D4   CG2R63   NG2R61     HGP1     9   180.000000     0.000000     2 ; NA G
   SG2D1   CG2R63   NG2R61   CG2R61     9   180.000000     6.694400     2 ; YTS2, 2,4(1H,3H)-quinazolinedithione, isg
   SG2D1   CG2R63   NG2R61   CG2R62     9   180.000000     6.694400     2 ; YT4S, 2,3-dihydro-2-thioxo-4(1H)-quinazolinone; from OG2D4 CG2R63 NG2R61 CG2R62, NA; isg
   SG2D1   CG2R63   NG2R61   CG2R63     9   180.000000     3.765600     2 ; YTS2, 2,4(1H,3H)-quinazolinedithione, isg
   SG2D1   CG2R63   NG2R61   CG2R64     9   180.000000    58.576000     2 ; 43HSPY, 4(3H)-pyrimidinethione; from OG2D4  CG2R63 NG2R61 CG2R64; isg
   SG2D1   CG2R63   NG2R61    CG331     9   180.000000    29.288000     2 ; 2SU, yxu, RNA
   SG2D1   CG2R63   NG2R61     HGP1     9   180.000000     2.092000     2 ; YTS2, 2,4(1H,3H)-quinazolinedithione, isg
   SEGD1   CG2R63   NG2R61   CG2R62     9   180.000000    10.460000     2 ; SEU, yxu, to be reoptimized, RNA
   SEGD1   CG2R63   NG2R61   CG2R63     9   180.000000    10.460000     2 ; SEU, yxu, to be reoptimized, RNA
   SEGD1   CG2R63   NG2R61    CG331     9   180.000000    29.288000     2 ; SEU, yxu, RNA
   SEGD1   CG2R63   NG2R61     HGP1     9   180.000000     1.882800     2 ; SEU, yxu, to be reoptimized, RNA
  CG2R62   CG2R63   NG2R62   CG2R64     9   180.000000     1.673600     2 ; 1PC, yxu, RNA
  NG2R61   CG2R63   NG2R62   CG2R62     9   180.000000     2.510400     2 ; 5fop, from NG2R61 CG2R63 NG2R62 CG2R64, not optimized, yxu, RNA
  NG2R61   CG2R63   NG2R62   CG2R64     9   180.000000     2.510400     2 ; NA C
   OG2D4   CG2R63   NG2R62   CG2R62     9   180.000000     6.694400     2 ; 5fop, from OG2D4 CG2R63 NG2R62 CG2R64, not optimized, yxu, RNA
   OG2D4   CG2R63   NG2R62   CG2R64     9   180.000000     6.694400     2 ; NA C
   SG2D1   CG2R63   NG2R62   CG2R64     9   180.000000     6.694400     2 ; 2SC, from OG2D4 CG2R63 NG2R62 CG2R64, yxu, RNA
  CG2R61   CG2R63   NG2R67   CG2R63     9   180.000000     6.276000     2 ; 3PH24S, 2,3-dihydro-3-phenyl-2-thioxo-4(1H)pyrimidinethione; from CG2R62 CG2R63 NG2R61 CG2R63, NA; isg
  CG2R61   CG2R63   NG2R67   CG2R64     9   180.000000     6.276000     2 ; 43HSPP, 3-phenyl-4(3H)-pyrimidinethione; from 43HSPY; isg
  CG2R61   CG2R63   NG2R67   CG2R67     9   180.000000     6.276000     2 ; 3PH24S, 2,3-dihydro-3-phenyl-2-thioxo-4(1H)pyrimidinethione; from CG2R62 CG2R63 NG2R67 CG2R67; isg
  CG2R62   CG2R63   NG2R67   CG2R62     9   180.000000     6.276000     2 ; 1PH2PO, 1-phenyl-2(1H)-pyridinone; from CG2R62 CG2R63 NG2R61 CG2R62, 2PYO; isg
  CG2R62   CG2R63   NG2R67   CG2R63     9   180.000000     6.276000     2 ; 3PHURA, 3-phenyl-2,4(1H,3H)-pyrimidinedione; from CG2R62 CG2R63 NG2R61 CG2R63, NA; isg
  CG2R62   CG2R63   NG2R67   CG2R64     9   180.000000     2.092000     2 ; 43PPY, 3-phenyl-4(3H)-pyrimidinone; from CG2R62 CG2R63 NG2R61 CG2R64, TC243C; isg
  CG2R62   CG2R63   NG2R67   CG2R67     9   180.000000     6.276000     2 ; 1PH2PO, 1-phenyl-2(1H)-pyridinone; from CG2R62 CG2R63 NG2R61 CG2R62, 2PYO; isg
  NG2R61   CG2R63   NG2R67   CG2R63     9   180.000000    12.552000     2 ; 3PHURA, 3-phenyl-2,4(1H,3H)-pyrimidinedione; from NG2R61 CG2R63 NG2R61 CG2R63, NA; isg
  NG2R61   CG2R63   NG2R67   CG2R67     9   180.000000    46.024000     2 ; 3PHURA, 3-phenyl-2,4(1H,3H)-pyrimidinedione; from NG2R61 CG2R63 NG2R61 CG3C51, NA; isg
   OG2D4   CG2R63   NG2R67   CG2R62     9   180.000000     6.694400     2 ; 1PH2PO, 1-phenyl-2(1H)-pyridinone; from OG2D4  CG2R63 NG2R61 CG2R62, NA; isg
   OG2D4   CG2R63   NG2R67   CG2R63     9   180.000000     3.765600     2 ; 3PHURA, 3-phenyl-2,4(1H,3H)-pyrimidinedione; from OG2D4  CG2R63 NG2R61 CG2R63, NA; isg
   OG2D4   CG2R63   NG2R67   CG2R64     9   180.000000    58.576000     2 ; 43PPY, 3-phenyl-4(3H)-pyrimidinone; from OG2D4  CG2R63 NG2R61 CG2R64, TC243C; isg
   OG2D4   CG2R63   NG2R67   CG2R67     9   180.000000     6.694400     2 ; 1PH2PO, 1-phenyl-2(1H)-pyridinone; from OG2D4  CG2R63 NG2R61 CG2R62, NA; isg
   SG2D1   CG2R63   NG2R67   CG2R63     9   180.000000     3.765600     2 ; 3PH2SR, 2,3-dihydro-3-phenyl-2-thioxo-4(1H)pyrimidinone; from CG2R63 NG2R61 CG2R63 SG2D1, YTS2; isg
   SG2D1   CG2R63   NG2R67   CG2R64     9   180.000000     3.765600     2 ; 43HSPP, 3-phenyl-4(3H)-pyrimidinethione; from SG2D1  CG2R63 NG2R61 CG2R63, YTS2; isg
   SG2D1   CG2R63   NG2R67   CG2R67     9   180.000000     6.694400     2 ; 3PH2SR, 2,3-dihydro-3-phenyl-2-thioxo-4(1H)pyrimidinone; from OG2D4  CG2R63 NG2R61 CG2R62, NA; isg
  CG2RC0   CG2R63   NG2RC0   CG2R51     9   180.000000     0.000000     2 ; DWG, from CG2R61 CG2R61 NG2RC0 CG2R51, yxu, RNA
  CG2RC0   CG2R63   NG2RC0   CG2RC0     9   180.000000     4.184000     2 ; DWG, yxu, RNA
   OG2D4   CG2R63   NG2RC0   CG2R51     9   180.000000     2.092000     2 ; DWG, yxu, RNA
   OG2D4   CG2R63   NG2RC0   CG2RC0     9   180.000000     2.092000     2 ; DWG, yxu, RNA
  CG2R62   CG2R63   OG3R60   CG2R62     9     0.000000     2.510400     2 ; RIN, coumarin, isg
   OG2D4   CG2R63   OG3R60   CG2R62     9     0.000000     3.179840     2 ; RIN, coumarin, isg
   NG2D1   CG2R64   CG2RC0   CG2RC0     9   180.000000    12.552000     2 ; 1MAn, from 3MCn, yxu, RNA
   NG2D1   CG2R64   CG2RC0   NG2R50     9   180.000000     0.000000     2 ; 1MAn, from NG2S3 CG2R64 CG2RC0 NG2R50, yxu, RNA
   NG2P1   CG2R64   CG2RC0   CG2RC0     9   180.000000     7.531200     2 ; 1MA, from 1MAn, yxu, RNA
   NG2P1   CG2R64   CG2RC0   NG2R50     9   180.000000     8.368000     2 ; 1MA, from 1MAn, yxu, RNA
  NG2R61   CG2R64   CG2RC0   CG2RC0     9   180.000000     7.531200     2 ; 1MAn, from NA36, RNA
  NG2R61   CG2R64   CG2RC0   NG2R50     9   180.000000     8.368000     2 ; 1MAn, from NA36, RNA
  NG2R62   CG2R64   CG2RC0   CG2RC0     9   180.000000     7.531200     2 ; NA A
  NG2R62   CG2R64   CG2RC0   NG2R50     9   180.000000     8.368000     2 ; NA A
   NG2S0   CG2R64   CG2RC0   CG2RC0     9   180.000000    16.736000     2 ; 66A, yxu, RNA
   NG2S0   CG2R64   CG2RC0   NG2R50     9   180.000000    19.246400     2 ; 66A, yxu, RNA
   NG2S1   CG2R64   CG2RC0   CG2RC0     9   180.000000    12.970400     2 ; 6AA, from 4AC, yxu, RNA
   NG2S1   CG2R64   CG2RC0   NG2R50     9   180.000000     0.000000     2 ; 6AA, from NG2S3 CG2R64 CG2RC0 NG2R50, yxu, RNA
   NG2S3   CG2R64   CG2RC0   CG2RC0     9   180.000000    16.736000     2 ; NA A
   NG2S3   CG2R64   CG2RC0   NG2R50     9   180.000000     0.000000     2 ; NA A
   NG301   CG2R64   CG2RC0   CG2RC0     9   180.000000    16.736000     2 ; M6A, yxu
   NG301   CG2R64   CG2RC0   NG2R50     9   180.000000    19.664800     2 ; M6A, yxu
   NG311   CG2R64   CG2RC0   CG2RC0     9   180.000000    12.970400     2 ; 6MA, from 4MC, yxu, RNA
   NG311   CG2R64   CG2RC0   NG2R50     9   180.000000     0.000000     2 ; 6MA, from NG2S3 CG2R64 CG2RC0 NG2R50, yxu, RNA
  NG2R62   CG2R64    CG331     HGA3     9   180.000000     0.012552     6 ; 2MA, from NG2R60 CG2R61 CG331 HGA3, yxu, RNA
  CG2R61   CG2R64    NG2D1    CG2O6     9   180.000000    12.008080     2 ; flavin
  CG2R61   CG2R64    NG2D1     HGP1     9   180.000000    28.660400     2 ; K2Cn, from 3MCn, yxu, RNA
  CG2R62   CG2R64    NG2D1     HGP1     9   180.000000    28.660400     2 ; 3MCn, yxu, RNA
  CG2RC0   CG2R64    NG2D1     HGP1     9   180.000000    28.660400     2 ; 1MAn, from 3MCn, yxu, RNA
   NG2P1   CG2R64    NG2D1     HGP1     9     0.000000     6.694400     1 ; K2C, from 3MCn, yxu, RNA
   NG2P1   CG2R64    NG2D1     HGP1     9   180.000000    28.660400     2 ; K2C, from 3MCn, yxu, RNA
  NG2R61   CG2R64    NG2D1    CG2O6     9   180.000000     3.347200     1 ; flavin
  NG2R61   CG2R64    NG2D1    CG2O6     9   180.000000    20.166880     2 ; flavin
  NG2R61   CG2R64    NG2D1    CG2O6     9   180.000000     0.083680     3 ; flavin
  NG2R61   CG2R64    NG2D1     HGP1     9     0.000000     6.694400     1 ; 3MCn, yxu, RNA
  NG2R61   CG2R64    NG2D1     HGP1     9   180.000000    28.660400     2 ; 3MCn, yxu, RNA
  NG2R62   CG2R64    NG2D1     HGP1     9     0.000000     6.694400     1 ; K2Cn, from 3MCn, yxu, RNA
  NG2R62   CG2R64    NG2D1     HGP1     9   180.000000    28.660400     2 ; K2Cn, from 3MCn, yxu, RNA
  CG2R61   CG2R64    NG2P1   CG2R64     9   180.000000     5.439200     2 ; K2C, yxu, 16/7,13, RNA
  CG2R61   CG2R64    NG2P1     HGP2     9   180.000000     0.794960     2 ; K2C, yxu, 16/7,13, RNA
  CG2R62   CG2R64    NG2P1   CG2R63     9   180.000000     2.510400     2 ; 3MC, yxu, RNA
  CG2R62   CG2R64    NG2P1    CG334     9   180.000000    14.016400     2 ; 3MC, yxu, RNA
  CG2R62   CG2R64    NG2P1     HGP2     9   180.000000    10.041600     2 ; 3MC, yxu, RNA
  CG2R62   CG2R64    NG2P1     HGP2     9   180.000000     2.928800     3 ; 3MC, yxu, RNA
  CG2RC0   CG2R64    NG2P1   CG2R64     9   180.000000     7.531200     2 ; 1MA, from NA36, yxu, RNA
  CG2RC0   CG2R64    NG2P1    CG334     9   180.000000    23.012000     2 ; 1MA, from 1MI, yxu, RNA
  CG2RC0   CG2R64    NG2P1     HGP2     9   180.000000    10.041600     2 ; 1MA, from 3MC, yxu, RNA
  CG2RC0   CG2R64    NG2P1     HGP2     9   180.000000     2.928800     3 ; 1MA, from 3MC, yxu, RNA
   NG2D1   CG2R64    NG2P1   CG2R64     9   180.000000     4.184000     2 ; K2C, yxu, 16/7,13, RNA
   NG2D1   CG2R64    NG2P1     HGP2     9   180.000000     2.092000     2 ; K2C, yxu, 16/7,13, RNA
   NG2P1   CG2R64    NG2P1   CG2R61     9   180.000000     1.673600     2 ; K2C, yxu, 16/7,13, RNA
   NG2P1   CG2R64    NG2P1   CG2R63     9   180.000000     9.623200     2 ; 3MC, yxu, RNA
   NG2P1   CG2R64    NG2P1   CG2R64     9   180.000000     6.276000     2 ; K2C, yxu, 16/7,13, RNA
   NG2P1   CG2R64    NG2P1    CG324     9   180.000000     6.108640     2 ; K2C, yxu, RNA
   NG2P1   CG2R64    NG2P1    CG334     9   180.000000     2.510400     2 ; 3MC, yxu, RNA
   NG2P1   CG2R64    NG2P1     HGP2     9   180.000000    10.041600     2 ; 3MC, yxu, RNA
  NG2R62   CG2R64    NG2P1   CG2R64     9   180.000000     7.531200     2 ; 1MA, from NA36, yxu, RNA
  NG2R62   CG2R64    NG2P1    CG334     9   180.000000    23.012000     2 ; 1MA, from 1MI, yxu, RNA
  NG2R62   CG2R64    NG2P1     HGP2     9   180.000000     7.949600     2 ; ADEp, yxu, RNA
   HGR62   CG2R64    NG2P1   CG2R64     9   180.000000    20.501600     2 ; 1MA, from 1MI, yxu, RNA
   HGR62   CG2R64    NG2P1    CG334     9   180.000000     0.000000     2 ; 1MA, from 1MI, yxu, RNA
   HGR62   CG2R64    NG2P1     HGP2     9   180.000000     2.301200     2 ; ADEp, yxu, RNA
  CG2R61   CG2R64   NG2R51   CG2R51     9     0.000000     0.836800     1 ; PIPA model for D3R, xxwy
  CG2R61   CG2R64   NG2R51   CG2R51     9   180.000000     4.602400     2 ; PIPA model for D3R, xxwy
  CG2R61   CG2R64   NG2R51   CG2R51     9     0.000000     2.510400     3 ; PIPA model for D3R, xxwy
  CG2R61   CG2R64   NG2R51   NG2R50     9   180.000000     4.184000     2 ; PIPA model for D3R, xxwy
  NG2R60   CG2R64   NG2R51   CG2R51     9   180.000000     4.184000     2 ; PIPA model for D3R, xxwy
  NG2R60   CG2R64   NG2R51   NG2R50     9     0.000000     0.836800     1 ; PIPA model for D3R, xxwy
  NG2R60   CG2R64   NG2R51   NG2R50     9   180.000000     4.602400     2 ; PIPA model for D3R, xxwy
  NG2R60   CG2R64   NG2R51   NG2R50     9     0.000000     2.510400     3 ; PIPA model for D3R, xxwy
  CG2R61   CG2R64   NG2R60   CG2R61     9   180.000000     5.020800     2 ; 2AMP, 2-amino pyridine, from PYR1, pyridine, kevo
  NG2R51   CG2R64   NG2R60   CG2R61     9   180.000000    16.736000     2 ; PIPA model for D3R, xxwy
   NG2S1   CG2R64   NG2R60   CG2R61     9   180.000000    12.970400     2 ; 2AMP, 2-Amino pyridine, cacha (verified by kevo)
   NG311   CG2R64   NG2R60   CG2R61     9   180.000000    12.970400     2 ; bepa, from CG321 CG2R61 NG2R60 CG2R61, not optimized, yxu, RNA
  CG2R61   CG2R64   NG2R61   CG2R61     9   180.000000     1.087840     2 ; flavin
  CG2R61   CG2R64   NG2R61    CG321     9   180.000000     6.192320     2 ; flavin
  CG2R61   CG2R64   NG2R61    CG331     9   180.000000     7.740400     2 ; flavin
  CG2R62   CG2R64   NG2R61   CG2R63     9   180.000000     2.510400     2 ; 3MCn, from CG2R62 CG2R62 NG2R61 CG2R63, yxu, RNA
  CG2R62   CG2R64   NG2R61    CG331     9   180.000000     0.000000     2 ; 3MCn, yxu, RNA
  CG2R62   CG2R64   NG2R61     HGP1     9   180.000000     0.041840     2 ; flavin
  CG2RC0   CG2R64   NG2R61   CG2R64     9   180.000000     2.510400     2 ; 1MAn, from 3MCn, yxu, RNA
  CG2RC0   CG2R64   NG2R61    CG331     9   180.000000     0.000000     2 ; 1MAn, from 3MCn, yxu, RNA
  CG2RC0   CG2R64   NG2R61     HGP1     9   180.000000     0.000000     2 ; IMIA, RNA
   NG2D1   CG2R64   NG2R61   CG2R61     9   180.000000     7.280160     2 ; flavin
   NG2D1   CG2R64   NG2R61   CG2R63     9   180.000000    12.552000     2 ; 3MCn, yxu, RNA
   NG2D1   CG2R64   NG2R61   CG2R64     9   180.000000    12.552000     2 ; 1MAn, from 3MCn, yxu, RNA
   NG2D1   CG2R64   NG2R61    CG321     9   180.000000    17.907520     2 ; flavin
   NG2D1   CG2R64   NG2R61    CG331     9   180.000000    20.083200     2 ; flavin
   NG2D1   CG2R64   NG2R61     HGP1     9   180.000000     0.000000     2 ; IMIA, RNA
  NG2R62   CG2R64   NG2R61   CG2R61     9   180.000000     0.836800     2 ; K2Cn, from NG2R62 CG2R64 NG2R61 CG2R63, yxu, RNA
  NG2R62   CG2R64   NG2R61   CG2R62     9   180.000000     2.510400     2 ; 1PC, yxu, RNA
  NG2R62   CG2R64   NG2R61   CG2R63     9   180.000000     0.836800     2 ; NA G
  NG2R62   CG2R64   NG2R61   CG2R64     9   180.000000     0.836800     2 ; 1MAn, from NG2R62 CG2R64 NG2R61 CG2R63, yxu, RNA
  NG2R62   CG2R64   NG2R61    CG331     9   180.000000    23.012000     2 ; 1MI, yxu, RNA
  NG2R62   CG2R64   NG2R61     HGP1     9   180.000000    15.062400     2 ; NA G
   NG2S3   CG2R64   NG2R61   CG2R62     9   180.000000    16.736000     2 ; 1PC, from NG2S3 CG2R64 NG2R61 CG2R63, yxu, RNA
   NG2S3   CG2R64   NG2R61   CG2R63     9   180.000000    16.736000     2 ; NA G
   NG2S3   CG2R64   NG2R61    CG331     9   180.000000    10.460000     2 ; 1MG, yxu, RNA
   NG2S3   CG2R64   NG2R61     HGP1     9   180.000000     0.000000     2 ; NA G
   NG301   CG2R64   NG2R61   CG2R63     9   180.000000     0.502080     2 ; flavin
   NG301   CG2R64   NG2R61     HGP1     9   180.000000     2.092000     2 ; M2G, from 2MC, yxu, RNA
   NG311   CG2R64   NG2R61   CG2R61     9   180.000000    16.736000     2 ; K2Cn, from NG2S3 CG2R64 NG2R61 CG2R63, yxu, RNA
   NG311   CG2R64   NG2R61   CG2R63     9   180.000000    12.970400     2 ; 2MG, from 4MC, yxu, RNA
   NG311   CG2R64   NG2R61    CG331     9   180.000000    14.644000     2 ; 34c, yxu, RNA
   NG311   CG2R64   NG2R61     HGP1     9   180.000000     2.092000     2 ; 2MG, yxu, RNA
   SG311   CG2R64   NG2R61   CG2R62     9   180.000000    25.104000     2 ; GAU, from  GAU, yxu, RNA
   SG311   CG2R64   NG2R61   CG2R63     9   180.000000    16.736000     2 ; 4O2SM, 2-(methylthio)-4(3H)-pyrimidinone; from NG2S3 CG2R64 NG2R61 CG2R63; isg
   SG311   CG2R64   NG2R61    CG331     9   180.000000    25.104000     2 ; msu, RNA
   SG311   CG2R64   NG2R61     HGP1     9   180.000000     0.000000     2 ; 4O2SM, 2-(methylthio)-4(3H)-pyrimidinone; from NG2S3 CG2R64 NG2R61 HGP1; isg
   HGR62   CG2R64   NG2R61   CG2R63     9   180.000000    23.012000     2 ; TC243C, 4(3H)-quinazolinone, isg
   HGR62   CG2R64   NG2R61   CG2R64     9   180.000000    19.246400     2 ; 1MAn, from HGR62 CG2R62 NG2R61 CG2R63, yxu, RNA
   HGR62   CG2R64   NG2R61    CG331     9   180.000000     0.000000     2 ; 1MI, yxu, RNA
   HGR62   CG2R64   NG2R61     HGP1     9   180.000000     2.092000     2 ; TC243C, 4(3H)-quinazolinone, isg
  CG2R61   CG2R64   NG2R62   CG2R61     9   180.000000     8.368000     2 ; 18NFD, 1,8-naphthyridine, erh
  CG2R61   CG2R64   NG2R62   CG2R63     9   180.000000    25.104000     2 ; 2SC, from NA36, RNA
  CG2R61   CG2R64   NG2R62   CG2R64     9     0.000000     8.368000     2 ; PTID, pteridine, erh
  CG2R62   CG2R64   NG2R62   CG2R63     9   180.000000    25.104000     2 ; NA C
  CG2RC0   CG2R64   NG2R62   CG2R64     9   180.000000     7.531200     2 ; NA A
   CG331   CG2R64   NG2R62   CG2R64     9   180.000000    23.012000     2 ; 2MA, yxu, RNA
   CG331   CG2R64   NG2R62   CG2RC0     9   180.000000    46.024000     2 ; 2MA, yxu, RNA
   NG2D1   CG2R64   NG2R62   CG2R64     9   180.000000    12.552000     2 ; K2Cn, from 3MCn, yxu, RNA
   NG2P1   CG2R64   NG2R62   CG2R64     9   180.000000    12.552000     2 ; 34c, from K2Cn, RNA
   NG2P1   CG2R64   NG2R62   CG2RC0     9   180.000000     8.368000     2 ; 1MA, from NA36, yxu, RNA
  NG2R61   CG2R64   NG2R62   CG2R61     9   180.000000     8.368000     2 ; 43HSPY, 4(3H)-pyrimidinethione; from NG2R61 CG2R64 NG2R62 CG2RC0; isg
  NG2R61   CG2R64   NG2R62   CG2R62     9   180.000000    16.736000     2 ; TC243C, 4(3H)-quinazolinone, isg
  NG2R61   CG2R64   NG2R62   CG2R63     9   180.000000    13.388800     2 ; 1PC, yxu, RNA
  NG2R61   CG2R64   NG2R62   CG2R64     9   180.000000     8.368000     2 ; K2Cn, from NG2R61 CG2R64 NG2R62 CG2RC0, yxu, RNA
  NG2R61   CG2R64   NG2R62   CG2RC0     9   180.000000     8.368000     2 ; NA G
  NG2R62   CG2R64   NG2R62   CG2R61     9   180.000000     8.368000     2 ; PYRM, pyrimidine
  NG2R62   CG2R64   NG2R62   CG2R64     9   180.000000     7.531200     2 ; NA A
  NG2R62   CG2R64   NG2R62   CG2RC0     9   180.000000     8.368000     2 ; NAMODEL guanine tautomer
  NG2R62   CG2R64   NG2R62   NG2R62     9   180.000000     2.092000     2 ; TRIB, triazine124
  NG2R67   CG2R64   NG2R62   CG2R61     9   180.000000     8.368000     2 ; 43HSPP, 3-phenyl-4(3H)-pyrimidinethione; from NG2R62 CG2R64 NG2R62 CG2R61, PYRM; isg
  NG2R67   CG2R64   NG2R62   CG2R62     9   180.000000    16.736000     2 ; 43PPY, 3-phenyl-4(3H)-pyrimidinone; from NG2R61 CG2R64 NG2R62 CG2R62, TC243C; isg
   NG2S0   CG2R64   NG2R62   CG2R64     9   180.000000    20.083200     2 ; 66A, yxu, RNA
   NG2S1   CG2R64   NG2R62   CG2R63     9   180.000000     8.368000     2 ; 4AC, from NG2S3 CG2R64 NG2R62 CG2R63, yxu, RNA
   NG2S1   CG2R64   NG2R62   CG2R64     9   180.000000     8.368000     2 ; 6AA, from 4AC, yxu, RNA
   NG2S3   CG2R64   NG2R62   CG2R61     9   180.000000     8.368000     2 ; 7MGe, from NG2S3 CG2R64 NG2R62 CG2R63, not optimized, yxu, RNA
   NG2S3   CG2R64   NG2R62   CG2R62     9   180.000000     4.184000     2 ; 3PC, yxu, RNA
   NG2S3   CG2R64   NG2R62   CG2R63     9   180.000000     8.368000     2 ; NA C
   NG2S3   CG2R64   NG2R62   CG2R64     9   180.000000     7.531200     2 ; NA A
   NG2S3   CG2R64   NG2R62   CG2RC0     9   180.000000    16.736000     2 ; NA G
   NG301   CG2R64   NG2R62   CG2R63     9   180.000000    12.970400     2 ; TMC, from 4MC, yxu
   NG301   CG2R64   NG2R62   CG2R64     9   180.000000    15.899200     2 ; M6A, yxu
   NG301   CG2R64   NG2R62   CG2RC0     9   180.000000    15.062400     2 ; M2G, yxu, RNA
   NG311   CG2R64   NG2R62   CG2R63     9   180.000000    12.970400     2 ; 4MC, yxu, RNA
   NG311   CG2R64   NG2R62   CG2R64     9   180.000000    12.970400     2 ; K2Cn, from CG331 CG2R61 NG2R60 CG2R64, yxu, RNA
   NG311   CG2R64   NG2R62   CG2RC0     9   180.000000    12.970400     2 ; 2MG, from 4MC, yxu, RNA
   SG311   CG2R64   NG2R62   CG2R61     9   180.000000    42.676800     2 ; 2SMPYR, 2-(methylthio)-pyrimidine; from NG2S1 CG2R64 NG2R60 CG2R61; isg
   SG311   CG2R64   NG2R62   CG2R62     9   180.000000     8.368000     2 ; 4O2SM, 2-(methylthio)-4(3H)-pyrimidinone; from NG2S3 CG2R64 NG2R62 CG2R63; isg
   SG311   CG2R64   NG2R62   CG2R63     9   180.000000    41.840000     2 ; GAU, from SMA, yxu, RNA
   SG311   CG2R64   NG2R62   CG2R64     9   180.000000    41.840000     2 ; SMA, yxu, RNA
   SG311   CG2R64   NG2R62   CG2RC0     9   180.000000    41.840000     2 ; SMA, yxu, RNA
   HGR62   CG2R64   NG2R62   CG2R61     9   180.000000    30.543200     2 ; PYRM, pyrimidine
   HGR62   CG2R64   NG2R62   CG2R62     9   180.000000    30.543200     2 ; TC243C, 4(3H)-quinazolinone, isg
   HGR62   CG2R64   NG2R62   CG2R64     9   180.000000    35.564000     2 ; NA A
   HGR62   CG2R64   NG2R62   CG2RC0     9   180.000000    35.564000     2 ; NA A
   HGR62   CG2R64   NG2R62   NG2R62     9   180.000000    25.104000     2 ; TRIB, triazine124
  NG2R62   CG2R64   NG2R67   CG2R63     9   180.000000     0.836800     2 ; 43PPY, 3-phenyl-4(3H)-pyrimidinone; from NG2R62 CG2R64 NG2R61 CG2R63, TC243C; isg
  NG2R62   CG2R64   NG2R67   CG2R67     9   180.000000     0.836800     2 ; 43PPY, 3-phenyl-4(3H)-pyrimidinone; from NG2R62 CG2R64 NG2R61 CG2R63, TC243C; isg
   HGR62   CG2R64   NG2R67   CG2R63     9   180.000000    23.012000     2 ; 43PPY, 3-phenyl-4(3H)-pyrimidinone; from HGR62  CG2R64 NG2R61 CG2R63, TC243C; isg
   HGR62   CG2R64   NG2R67   CG2R67     9   180.000000     4.184000     2 ; 43PPY, 3-phenyl-4(3H)-pyrimidinone; from HGR62  CG2R62 NG2R67 CG2R67, TC243C; isg
  CG2RC0   CG2R64    NG2S0    CG2O1     9     0.000000     4.184000     1 ; m6pa, yxu, RNA
  CG2RC0   CG2R64    NG2S0    CG2O1     9   180.000000     9.204800     2 ; m6pa, yxu, RNA
  CG2RC0   CG2R64    NG2S0    CG2O1     9     0.000000     0.836800     3 ; m6pa, yxu, RNA
  CG2RC0   CG2R64    NG2S0    CG2O6     9     0.000000     4.184000     1 ; 66A, from m6pa, yxu, RNA
  CG2RC0   CG2R64    NG2S0    CG2O6     9   180.000000     9.204800     2 ; 66A, from m6pa, yxu, RNA
  CG2RC0   CG2R64    NG2S0    CG2O6     9     0.000000     0.836800     3 ; 66A, from m6pa, yxu, RNA
  CG2RC0   CG2R64    NG2S0    CG331     9   180.000000     9.204800     2 ; 66A, yxu, RNA
  NG2R62   CG2R64    NG2S0    CG2O1     9   180.000000    10.878400     2 ; m6pa, yxu, RNA
  NG2R62   CG2R64    NG2S0    CG2O6     9   180.000000    10.878400     2 ; 66A, from m6pa, yxu, RNA
  NG2R62   CG2R64    NG2S0    CG331     9   180.000000    10.878400     2 ; 66A, yxu, RNA
  CG2R61   CG2R64    NG2S1    CG2O1     9   180.000000     5.020800     2 ; 2AMP, 2-amino pyridine, from PACP, cacha ! not fitted because cacha's original atom typing didn't allow it ==> re-optimize
  CG2R61   CG2R64    NG2S1    CG2O6     9     0.000000     6.276000     1 ; pymu, yxu, RNA
  CG2R61   CG2R64    NG2S1    CG2O6     9   180.000000     7.949600     2 ; pymu, yxu, RNA
  CG2R61   CG2R64    NG2S1    CG2O6     9     0.000000     3.012480     3 ; pymu, yxu, RNA
  CG2R61   CG2R64    NG2S1     HGP1     9   180.000000     2.092000     2 ; 2AMP, 2-amino pyridine, from PACP, cacha ! this one does not require re-optimization
  CG2R62   CG2R64    NG2S1    CG2O1     9     0.000000     3.347200     1 ; 4AC, lower to enhance trans, yxu, RNA
  CG2R62   CG2R64    NG2S1    CG2O1     9   180.000000     9.204800     2 ; 4AC, yxu, RNA
  CG2R62   CG2R64    NG2S1    CG2O1     9     0.000000     1.673600     3 ; 4AC, yxu, RNA
  CG2R62   CG2R64    NG2S1     HGP1     9   180.000000     2.092000     2 ; 4AC, yxu, RNA
  CG2RC0   CG2R64    NG2S1    CG2O1     9     0.000000     7.531200     1 ; 6AA, from CG2R62 CG2R64 NG2S1  CG2O1, without the scale of elec, yxu, RNA
  CG2RC0   CG2R64    NG2S1    CG2O1     9   180.000000     6.276000     2 ; 6AA, yxu, RNA
  CG2RC0   CG2R64    NG2S1    CG2O6     9     0.000000     6.276000     1 ; HNA, from pymu, yxu, RNA
  CG2RC0   CG2R64    NG2S1    CG2O6     9   180.000000     7.949600     2 ; HNA, from pymu, yxu, RNA
  CG2RC0   CG2R64    NG2S1    CG2O6     9     0.000000     3.012480     3 ; HNA, from pymu, yxu, RNA
  CG2RC0   CG2R64    NG2S1     HGP1     9   180.000000     2.092000     2 ; 6AA, yxu, RNA
  NG2R60   CG2R64    NG2S1    CG2O1     9   180.000000     6.276000     1 ; 2AMP, 2-Amino pyridine, dihedral fit by cacha
  NG2R60   CG2R64    NG2S1    CG2O1     9   180.000000    10.878400     2 ; 2AMP, 2-Amino pyridine, dihedral fit by cacha
  NG2R60   CG2R64    NG2S1    CG2O1     9   180.000000     0.753120     3 ; 2AMP, 2-Amino pyridine, dihedral fit by cacha
  NG2R60   CG2R64    NG2S1     HGP1     9   180.000000     2.092000     2 ; 2AMP, 2-Amino pyridine, dihedral fit by cacha
  NG2R62   CG2R64    NG2S1    CG2O1     9   180.000000     2.092000     1 ; 4AC, lower to enhance trans, yxu, RNA
  NG2R62   CG2R64    NG2S1    CG2O1     9   180.000000     7.531200     2 ; 4AC, yxu, RNA
  NG2R62   CG2R64    NG2S1    CG2O1     9   180.000000     1.673600     3 ; 4AC, yxu, RNA
  NG2R62   CG2R64    NG2S1    CG2O6     9   180.000000    10.878400     2 ; HNA, from pymu, yxu, RNA
  NG2R62   CG2R64    NG2S1     HGP1     9   180.000000     2.092000     2 ; 4AC, yxu, RNA
  CG2R61   CG2R64    NG2S3     HGP4     9   180.000000     8.368000     2 ; yxu KEVO: exocyclic N in 2SC planar, issue with CGenFF atom types?, RNA
  CG2R62   CG2R64    NG2S3     HGP4     9   180.000000     8.368000     2 ; NA 5mc, adm jr. 9/9/93
  CG2RC0   CG2R64    NG2S3     HGP4     9   180.000000     2.092000     2 ; NA A
  NG2R61   CG2R64    NG2S3     HGP4     9   180.000000     5.020800     2 ; NA G
  NG2R62   CG2R64    NG2S3    CG331     9   180.000000     5.857600     1 ; NG2R62 CG2R64 NG311  CG331  ! 4MC, yxu
  NG2R62   CG2R64    NG2S3    CG331     9   180.000000     5.439200     2 ; NG2R62 CG2R64 NG311  CG331  ! 4MC, yxu
  NG2R62   CG2R64    NG2S3     HGP1     9   180.000000    10.041600     2 ; NG2R62 CG2R65 NG311  HGPAM1 ! 4MC, yxu
  NG2R62   CG2R64    NG2S3     HGP4     9   180.000000     4.184000     2 ; NA C
  CG2R62   CG2R64    NG301   CG2R61     9   180.000000     0.292880     2 ; flavin
  CG2R62   CG2R64    NG301    CG321     9   180.000000     1.506240     2 ; flavin
  CG2R62   CG2R64    NG301    CG331     9   180.000000     8.284320     2 ; TMC, yxu, pyramid can be increased by adding term of 4-fold & 0.0-phase
  CG2RC0   CG2R64    NG301    CG331     9   180.000000    11.924400     2 ; M6A, yxu
  CG2RC0   CG2R64    NG301    CG331     9     0.000000     3.765600     4 ; M6A, yxu, pyramid can be increased by increasing this term
  NG2R61   CG2R64    NG301   CG2R61     9   180.000000     0.376560     2 ; flavin
  NG2R61   CG2R64    NG301    CG321     9     0.000000     1.757280     2 ; flavin
  NG2R61   CG2R64    NG301    CG331     9     0.000000    11.715200     1 ; M2G, yxu., RNA
  NG2R61   CG2R64    NG301    CG331     9     0.000000     2.175680     2 ; flavin
  NG2R61   CG2R64    NG301    CG331     9     0.000000     0.041840     4 ; flavin
  NG2R62   CG2R64    NG301   CG2R61     9   180.000000    14.392960     2 ; flavin
  NG2R62   CG2R64    NG301    CG321     9     0.000000     1.757280     2 ; flavin
  NG2R62   CG2R64    NG301    CG331     9   180.000000     8.284320     2 ; TMC, yxu
  CG2R61   CG2R64    NG311    CG321     9     0.000000     4.602400     1 ; bepa, yxu, RNA
  CG2R61   CG2R64    NG311    CG321     9   180.000000     8.368000     2 ; bepa, yxu, RNA
  CG2R61   CG2R64    NG311   HGPAM1     9   180.000000     6.694400     2 ; bepa, yxu, RNA
  CG2R62   CG2R64    NG311    CG331     9     0.000000     5.857600     1 ; 4MC, yxu, RNA
  CG2R62   CG2R64    NG311    CG331     9   180.000000    11.296800     2 ; 4MC, yxu, 1/2015, RNA
  CG2R62   CG2R64    NG311   HGPAM1     9   180.000000    12.552000     2 ; 4MC, yxu, RNA
  CG2RC0   CG2R64    NG311    CG321     9   180.000000     8.368000     2 ; 6IA, from bepa, yxu, RNA
  CG2RC0   CG2R64    NG311    CG331     9     0.000000     0.836800     1 ; 6MA , yxu, RNA
  CG2RC0   CG2R64    NG311    CG331     9   180.000000     5.857600     2 ; 6MA , yxu, 1/2015, RNA
  CG2RC0   CG2R64    NG311   HGPAM1     9   180.000000    11.715200     2 ; 6MA , yxu, RNA
  NG2R60   CG2R64    NG311    CG321     9   180.000000     4.602400     1 ; bepa, yxu, RNA
  NG2R60   CG2R64    NG311    CG321     9   180.000000     8.368000     2 ; bepa, yxu, RNA
  NG2R60   CG2R64    NG311   HGPAM1     9   180.000000     6.694400     2 ; bepa, yxu, RNA
  NG2R61   CG2R64    NG311    CG321     9   180.000000    11.715200     2 ; K2Cn, yxu, RNA
  NG2R61   CG2R64    NG311    CG331     9     0.000000     5.020800     1 ; 2MG, yxu, RNA
  NG2R61   CG2R64    NG311    CG331     9   180.000000     5.439200     2 ; 2MG, yxu, 1/2015, RNA
  NG2R61   CG2R64    NG311   HGPAM1     9   180.000000     8.368000     2 ; 2MG, from K2Cn, yxu, RNA
  NG2R62   CG2R64    NG311    CG321     9   180.000000    10.041600     1 ; K2Cn, yxu, RNA
  NG2R62   CG2R64    NG311    CG321     9   180.000000    12.552000     2 ; K2Cn, yxu, RNA
  NG2R62   CG2R64    NG311    CG331     9   180.000000     5.857600     1 ; 4MC, yxu, RNA
  NG2R62   CG2R64    NG311    CG331     9   180.000000     5.439200     2 ; 4MC, yxu, 1/2015, RNA
  NG2R62   CG2R64    NG311   HGPAM1     9   180.000000    10.041600     2 ; 4MC, yxu, RNA
  NG2R61   CG2R64    SG311    CG321     9     0.000000     6.066800     1 ; BGAU BGCU GAU GCU; from NG2R61 CG2R64 SG311 CG331, 4O2SM; yxu & kevo, RNA
  NG2R61   CG2R64    SG311    CG331     9     0.000000     6.066800     1 ; 4O2SM, 2-(methylthio)-4(3H)-pyrimidinone, isg
  NG2R62   CG2R64    SG311    CG321     9   180.000000     8.870080     2 ; BGAU BGCU GAU GCU; from NG2R62 CG2R64 SG311 CG331, 2SMPYR; yxu & kevo, RNA
  NG2R62   CG2R64    SG311    CG321     9   180.000000     0.794960     4 ; BGAU BGCU GAU GCU; from NG2R62 CG2R64 SG311 CG331, 2SMPYR; yxu & kevo, RNA
  NG2R62   CG2R64    SG311    CG331     9   180.000000     8.870080     2 ; 2SMPYR, 2-(methylthio)-pyrimidine, isg
  NG2R62   CG2R64    SG311    CG331     9   180.000000     0.794960     4 ; 2SMPYR, 2-(methylthio)-pyrimidine, isg
  CG2R61   CG2R66   CG2R66   CG2R61     9   180.000000    12.970400     2 ; from CG2R61 CG2R61 CG2R66 CG2R61, PENALTY= 5 F2F
  CG2R61   CG2R66   CG2R66   CG2R66     9   180.000000    12.970400     2 ; from CG2R66 CG2R61 CG2R66 CG2R61, PENALTY= 5 PF5
  CG2R61   CG2R66   CG2R66     FGR1     9   180.000000    18.828000     2 ; from CG2R61 CG2R61 CG2R66 FGR1, PENALTY= 5 F2F PF5
  CG2R66   CG2R66   CG2R66   CG2R66     9   180.000000    12.970400     2 ; from CG2R66 CG2R61 CG2R66 CG2R61, PENALTY= 6.5 PF5
  CG2R66   CG2R66   CG2R66     FGR1     9   180.000000    18.828000     2 ; from CG2R66 CG2R61 CG2R66 FGR1, PENALTY= 5 PF5
    FGR1   CG2R66   CG2R66     FGR1     9   180.000000    17.506693     2 ; F2F, by ac_aa
  CG2R61   CG2R66   CG2R67   CG2R61     9   180.000000    12.970400     2 ; PYO2F , from CG2R61 CG2R61 CG2R67 CG2R61, penalty= 5
  CG2R61   CG2R66   CG2R67   CG2R67     9   180.000000    12.970400     2 ; PYO2F , from CG2R61 CG2R61 CG2R67 CG2R67, penalty= 5
    FGR1   CG2R66   CG2R67   CG2R61     9   180.000000    18.828000     2 ; PYO2F , from CG2R61 CG2R61 CG2R66 FGR1, penalty= 30
    FGR1   CG2R66   CG2R67   CG2R67     9   180.000000     4.184000     2 ; PYO2F , from NG2R60 CG2R61 CG2R67 CG2R67, penalty= 89
  CG2R61   CG2R66   CG2RC0   CG2R51     9   180.000000    16.736000     2 ; from CG2R61 CG2R61 CG2RC0 CG2R51, PENALTY= 5 4FW
  CG2R61   CG2R66   CG2RC0   CG2RC0     9   180.000000    12.552000     2 ; from CG2R61 CG2R61 CG2RC0 CG2RC0, PENALTY= 5 4FW
    FGR1   CG2R66   CG2RC0   CG2R51     9   180.000000     4.479390     2 ; 4FW, by ac_aa
    FGR1   CG2R66   CG2RC0   CG2RC0     9   180.000000    19.085734     2 ; 4FW, by ac_aa
  CG2R61   CG2R67   CG2R67   CG2R61     9   180.000000     3.723760     2 ; BIPHENYL ANALOGS, peml
  CG2R61   CG2R67   CG2R67   CG2R62     9   180.000000     1.924640     2 ; pyo2b ,tune the middle 180 from CG2R61 CG2R67 CG2R67 CG2R61, penalty= 0.5
  CG2R61   CG2R67   CG2R67   CG2R62     9     0.000000     0.962320     4 ; low will down the two peaks;phs 4, 0 pyo2b , from CG2R61 CG2R67 CG2R67 CG2R61, penalty= 0.5
  CG2R61   CG2R67   CG2R67   CG2RC0     9   180.000000     8.368000     2 ; CRBZ, carbazole, erh
  CG2R61   CG2R67   CG2R67   NG2R60     9     0.000000     1.569000     1 ; 22BPY, 2,2'-bipyridine, kevo
  CG2R61   CG2R67   CG2R67   NG2R60     9   180.000000     3.932960     2 ; 22BPY, 2,2'-bipyridine, kevo
  CG2R61   CG2R67   CG2R67   NG2R60     9   180.000000     0.794960     3 ; 22BPY, 2,2'-bipyridine, kevo
  CG2R61   CG2R67   CG2R67   NG2R60     9     0.000000     0.669440     4 ; 22BPY, 2,2'-bipyridine, kevo
  CG2R62   CG2R67   CG2R67   CG2R66     9   180.000000     1.799120     2 ; compromise between pyo2f, pyo3f, piuf using weight on maxmin
  CG2R62   CG2R67   CG2R67   CG2R66     9     0.000000     0.502080     4 ; compromise between pyo2f, pyo3f, piuf using weight on maxmin
  CG2R62   CG2R67   CG2R67   CG2R66     9   180.000000     0.083680     6 ; compromise between pyo2f, pyo3f, piuf using weight on maxmin
  CG2RC0   CG2R67   CG2R67   CG2RC0     9   180.000000     6.276000     2 ; CRBZ, carbazole, erh
  NG2R60   CG2R67   CG2R67   NG2R60     9   180.000000     1.569000     1 ; 22BPY, 2,2'-bipyridine, kevo
  NG2R60   CG2R67   CG2R67   NG2R60     9   180.000000     3.932960     2 ; 22BPY, 2,2'-bipyridine, kevo
  NG2R60   CG2R67   CG2R67   NG2R60     9     0.000000     0.794960     3 ; 22BPY, 2,2'-bipyridine, kevo
  NG2R60   CG2R67   CG2R67   NG2R60     9     0.000000     0.669440     4 ; 22BPY, 2,2'-bipyridine, kevo
  CG2R61   CG2R67   CG2RC0   CG2R61     9   180.000000     0.209200     2 ; CRBZ, carbazole, erh
  CG2R61   CG2R67   CG2RC0   CG3C52     9   180.000000    28.242000     2 ; FLRN, Fluorene, erh
  CG2R61   CG2R67   CG2RC0   NG2R51     9   180.000000    12.552000     2 ; CRBZ, carbazole, erh
  CG2R67   CG2R67   CG2RC0   CG2R61     9   180.000000    14.644000     2 ; CRBZ, carbazole, erh
  CG2R67   CG2R67   CG2RC0   CG3C52     9   180.000000    20.920000     3 ; FLRN, Fluorene, erh
  CG2R67   CG2R67   CG2RC0   NG2R51     9   180.000000     1.046000     2 ; CRBZ, carbazole, erh
  CG2R61   CG2R67   NG2R60   CG2R61     9   180.000000     5.020800     2 ; 22BPY, 2,2'-bipyridine, from CG2R61 CG2R61 NG2R60 CG2R61, kevo
  CG2R67   CG2R67   NG2R60   CG2R61     9   180.000000    12.970400     2 ; 22BPY, 2,2'-bipyridine, kevo
  CG2R61   CG2R67   NG2R67   CG2R62     9   180.000000     1.548080     2 ; 1PH4PO, 1-phenyl-4(1H)-pyridinone, isg
  CG2R61   CG2R67   NG2R67   CG2R62     9     0.000000     1.129680     4 ; 1PH4PO, 1-phenyl-4(1H)-pyridinone, isg
  CG2R61   CG2R67   NG2R67   CG2R62     9     0.000000     0.083680     6 ; 1PH4PO, 1-phenyl-4(1H)-pyridinone, isg
  CG2R61   CG2R67   NG2R67   CG2R63     9   180.000000     6.066800     2 ; 1PH2PO, 1-phenyl-2(1H)-pyridinone; from 1PH4PO; isg
  CG2R61   CG2R67   NG2R67   CG2R63     9   180.000000     0.585760     4 ; 1PH2PO, 1-phenyl-2(1H)-pyridinone; from 1PH4PO; isg
  CG2R61   CG2R67   NG2R67   CG2R64     9   180.000000     1.548080     2 ; 43PPY, 3-phenyl-4(3H)-pyrimidinone, isg
  CG2R61   CG2R67   NG2R67   CG2R64     9     0.000000     1.087840     4 ; 43PPY, 3-phenyl-4(3H)-pyrimidinone, isg
  CG2R71   CG2R71   CG2R71   CG2R71     9   180.000000     6.694400     2 ; AZUL, Azulene, kevo
  CG2R71   CG2R71   CG2R71   CG2RC7     9   180.000000     6.694400     2 ; AZUL, Azulene, kevo
  CG2R71   CG2R71   CG2R71    HGR71     9   180.000000    13.388800     2 ; AZUL, Azulene, kevo
  CG2RC7   CG2R71   CG2R71    HGR71     9   180.000000    17.572800     2 ; AZUL, Azulene, kevo
   HGR71   CG2R71   CG2R71    HGR71     9   180.000000    10.041600     2 ; AZUL, Azulene, kevo
  CG2R71   CG2R71   CG2RC7   CG2R51     9   180.000000    12.552000     2 ; AZUL, Azulene, kevo
  CG2R71   CG2R71   CG2RC7   CG2RC7     9   180.000000    12.552000     2 ; AZUL, Azulene, kevo
   HGR71   CG2R71   CG2RC7   CG2R51     9   180.000000    12.970400     2 ; AZUL, Azulene, kevo
   HGR71   CG2R71   CG2RC7   CG2RC7     9   180.000000    12.970400     2 ; AZUL, Azulene, kevo
  CG25C1   CG2RC0   CG2RC0   CG2R61     9   180.000000     6.276000     2 ; MEOI, methyleneoxindole, kevo & xxwy
  CG25C1   CG2RC0   CG2RC0   NG2R51     9   180.000000     4.184000     2 ; MEOI, methyleneoxindole, kevo & xxwy
  CG25C2   CG2RC0   CG2RC0   CG2R61     9   180.000000     6.276000     2 ; MEOI, methyleneoxindole, kevo & xxwy
  CG25C2   CG2RC0   CG2RC0   NG2R51     9   180.000000     4.184000     2 ; MEOI, methyleneoxindole, kevo & xxwy
  CG2R51   CG2RC0   CG2RC0   CG2R51     9   180.000000     0.000000     2 ; ISOI, isoindole, kevo
  CG2R51   CG2RC0   CG2RC0   CG2R61     9   180.000000     6.276000     2 ; INDO/TRP (Kenno: 4.0 --> 1.5)
  CG2R51   CG2RC0   CG2RC0   CG3C52     9   180.000000    20.920000     2 ; INDE, indene, kevo
  CG2R51   CG2RC0   CG2RC0   NG2R51     9   180.000000    27.196000     2 ; INDO/TRP
  CG2R51   CG2RC0   CG2RC0   NG2R62     9   180.000000    14.644000     2 ; prf, ashalini
  CG2R51   CG2RC0   CG2RC0   OG2R50     9   180.000000    35.564000     2 ; ZFUR, benzofuran, kevo
  CG2R51   CG2RC0   CG2RC0   SG2R50     9   180.000000    35.564000     2 ; ZTHP, benzothiophene, kevo
  CG2R52   CG2RC0   CG2RC0   CG2R61     9   180.000000     6.276000     2 ; INDA, 1H-indazole, kevo
  CG2R52   CG2RC0   CG2RC0   NG2R51     9   180.000000    50.208000     2 ; INDA, 1H-indazole, kevo
  CG2R61   CG2RC0   CG2RC0   CG2R61     9   180.000000    12.552000     2 ; INDO/TRP
  CG2R61   CG2RC0   CG2RC0   CG2R66     9   180.000000    12.552000     2 ; from CG2R61 CG2RC0 CG2RC0 CG2R61, PENALTY= 1.5 4FW
  CG2R61   CG2RC0   CG2RC0   CG3C50     9   180.000000    12.552000     2 ; MSCH model for D3R, xxwy
  CG2R61   CG2RC0   CG2RC0   CG3C52     9   180.000000    27.196000     2 ; 3HIN, 3H-indole, kevo
  CG2R61   CG2RC0   CG2RC0   NG2R50     9   180.000000     6.276000     2 ; ZIMI, benzimidazole, kevo
  CG2R61   CG2RC0   CG2RC0   NG2R51     9   180.000000     6.276000     2 ; INDO/TRP (Kenno: 4.0 --> 1.5)
  CG2R61   CG2RC0   CG2RC0   NG2R52     9   180.000000     6.276000     2 ; 7MGe, from CG2R61 CG2RC0 CG2RC0 NG2R50, not optimized, yxu, RNA
  CG2R61   CG2RC0   CG2RC0   NG2R53     9   180.000000    62.760000     2 ; MSCH model for D3R, xxwy
  CG2R61   CG2RC0   CG2RC0   NG2R62     9   180.000000     0.000000     2 ; PUR9, purine(N9H), kevo
  CG2R61   CG2RC0   CG2RC0   NG3C51     9   180.000000    25.104000     2 ; INDI, indoline, kevo
  CG2R61   CG2RC0   CG2RC0   OG2R50     9   180.000000     0.000000     2 ; ZFUR, benzofuran, kevo
  CG2R61   CG2RC0   CG2RC0   OG3C51     9   180.000000    16.736000     2 ; ZDOL, 1,3-benzodioxole, pram & oashi
  CG2R61   CG2RC0   CG2RC0   SG2R50     9   180.000000     0.000000     2 ; ZTHP, benzothiophene, kevo
  CG2R61   CG2RC0   CG2RC0    BG201     9   180.000000     5.464722     2 ; BICB,BINB Boronic acid, sr
  CG2R63   CG2RC0   CG2RC0   NG2R51     9   180.000000    41.840000     2 ; NA G
  CG2R63   CG2RC0   CG2RC0   NG2R52     9   180.000000    20.920000     2 ; 7MG, yxu, RNA
  CG2R63   CG2RC0   CG2RC0   NG2R61     9   180.000000     8.368000     2 ; DWG, from CG2R63 CG2RC0 CG2RC0 NG2R62, yxu, RNA
  CG2R63   CG2RC0   CG2RC0   NG2R62     9   180.000000     8.368000     2 ; NA G
  CG2R64   CG2RC0   CG2RC0   NG2R51     9   180.000000    29.288000     2 ; NA A
  CG2R64   CG2RC0   CG2RC0   NG2R62     9   180.000000     8.368000     2 ; NA A
  CG2R66   CG2RC0   CG2RC0   NG2R51     9   180.000000     6.276000     2 ; from CG2R61 CG2RC0 CG2RC0 NG2R51, PENALTY= 1.5 4FW
  CG3C50   CG2RC0   CG2RC0   NG2R53     9   180.000000    12.552000     2 ; MSCH model for D3R, xxwy
  CG3C52   CG2RC0   CG2RC0   CG3C52     9   180.000000    25.104418     2 ; IGL, by ac_aa
  CG3C52   CG2RC0   CG2RC0   NG2R50     9   180.000000    27.196000     2 ; 3HIN, 3H-indole, kevo
  CG3C52   CG2RC0   CG2RC0   NG3C51     9   180.000000    25.104000     2 ; INDI, indoline, kevo
  CG3C52   CG2RC0   CG2RC0    BG201     9   180.000000     9.550817     2 ; BICB,BINB Boronic acid, sr
  NG2R50   CG2RC0   CG2RC0   NG2R51     9   180.000000    41.840000     2 ; NA G
  NG2R50   CG2RC0   CG2RC0   NG2R61     9   180.000000    22.175200     2 ; DWG, yxu, RNA
  NG2R50   CG2RC0   CG2RC0   NG2R62     9   180.000000    29.288000     2 ; NA A
  NG2R50   CG2RC0   CG2RC0   SG2R50     9   180.000000    16.736000     2 ; ZTHZ, benzothiazole, kevo
  NG2R51   CG2RC0   CG2RC0   NG2R62     9   180.000000    35.564000     2 ; PUR7, purine(N7H), kevo
  NG2R52   CG2RC0   CG2RC0   NG2R52     9   180.000000    20.920000     2 ; 7MG, yxu, RNA
  NG2R52   CG2RC0   CG2RC0   NG2R62     9   180.000000    23.012000     2 ; 7MG, yxu, RNA
  OG3C51   CG2RC0   CG2RC0   OG3C51     9   180.000000    32.216800     2 ; ZDOL, 1,3-benzodioxole, pram & oashi
  CG2R61   CG2RC0   CG3C50   CG2R53     9   180.000000     8.368000     3 ; MSCH model for D3R, xxwy
  CG2R61   CG2RC0   CG3C50    CG321     9   180.000000     8.368000     3 ; MSCH model for D3R, xxwy
  CG2RC0   CG2RC0   CG3C50   CG2R53     9   180.000000     8.368000     3 ; MSCH model for D3R, xxwy
  CG2RC0   CG2RC0   CG3C50    CG321     9   180.000000     8.368000     3 ; MSCH model for D3R, xxwy
  CG2R61   CG2RC0   CG3C52   CG2R51     9     0.000000     3.765600     3 ; INDE, indene, kevo
  CG2R61   CG2RC0   CG3C52   CG2R52     9     0.000000    14.644000     3 ; 3HIN, 3H-indole, kevo
  CG2R61   CG2RC0   CG3C52   CG2RC0     9     0.000000     3.765600     3 ; FLRN, Fluorene, erh
  CG2R61   CG2RC0   CG3C52   CG3C51     9   180.000000    12.552000     2 ; from CG2R61 CG2RC0 CG3C52 CG3C52, PENALTY= 0.4 IGL
  CG2R61   CG2RC0   CG3C52   CG3C52     9   180.000000    12.552000     2 ; INDI, indoline, kevo
  CG2R61   CG2RC0   CG3C52   OG3C51     9   180.000000    19.618776     2 ; BICB,BINB Boronic acid, sr
  CG2R61   CG2RC0   CG3C52     HGA2     9   180.000000     2.092000     3 ; 3HIN, 3H-indole, kevo
  CG2R67   CG2RC0   CG3C52   CG2RC0     9   180.000000     3.138000     3 ; FLRN, Fluorene, erh
  CG2R67   CG2RC0   CG3C52     HGA2     9     0.000000     2.092000     3 ; FLRN, Fluorene, erh
  CG2RC0   CG2RC0   CG3C52   CG2R51     9   180.000000     4.184000     3 ; INDE, indene, kevo
  CG2RC0   CG2RC0   CG3C52   CG2R52     9   180.000000     8.368000     3 ; 3HIN, 3H-indole, kevo
  CG2RC0   CG2RC0   CG3C52   CG3C51     9   180.000000     4.309520     3 ; from CG2RC0 CG2RC0 CG3C52 CG3C52, PENALTY= 0.4 IGL
  CG2RC0   CG2RC0   CG3C52   CG3C52     9   180.000000     4.309520     3 ; INDI, indoline, kevo
  CG2RC0   CG2RC0   CG3C52   OG3C51     9   180.000000     4.309520     3 ; BICB,BINB Boronic acid, sr
  CG2RC0   CG2RC0   CG3C52     HGA2     9     0.000000     2.092000     3 ; 3HIN, 3H-indole, kevo
  CG2R61   CG2RC0   NG2R50   CG2R52     9   180.000000    16.736000     2 ; 3HIN, 3H-indole, kevo
  CG2R61   CG2RC0   NG2R50   CG2R53     9   180.000000    62.760000     2 ; ZIMI, benzimidazole, kevo
  CG2R63   CG2RC0   NG2R50   CG2R53     9   180.000000     8.368000     2 ; NA G
  CG2R64   CG2RC0   NG2R50   CG2R53     9   180.000000     8.368000     2 ; NA A
  CG2RC0   CG2RC0   NG2R50   CG2R52     9   180.000000    16.736000     2 ; 3HIN, 3H-indole, kevo
  CG2RC0   CG2RC0   NG2R50   CG2R53     9   180.000000    25.104000     2 ; NA G
  NG2R61   CG2RC0   NG2R50   CG2R51     9   180.000000     8.368000     2 ; DWG, yxu, RNA
  NG2R62   CG2RC0   NG2R50   CG2R53     9   180.000000     8.368000     2 ; PUR7, purine(N7H), kevo
  NG2RC0   CG2RC0   NG2R50   CG2R51     9   180.000000    20.920000     2 ; DWG, yxu, RNA
  CG2R61   CG2RC0   NG2R51   CG2R51     9   180.000000     6.276000     2 ; NA bases
  CG2R61   CG2RC0   NG2R51   CG2R53     9   180.000000    79.496000     2 ; ZIMI, benzimidazole, kevo
  CG2R61   CG2RC0   NG2R51   CG2RC0     9   180.000000     2.092000     2 ; CRBZ, carbazole, erh
  CG2R61   CG2RC0   NG2R51   NG2R50     9   180.000000    12.552000     2 ; INDA, 1H-indazole, kevo
  CG2R61   CG2RC0   NG2R51    OG301     9   180.000000     0.047698     2 ; TOX, by ac_aa
  CG2R61   CG2RC0   NG2R51     HGP1     9   180.000000     0.836800     2 ; INDO/TRP
  CG2R67   CG2RC0   NG2R51   CG2RC0     9   180.000000     2.092000     2 ; CRBZ, carbazole, erh
  CG2R67   CG2RC0   NG2R51     HGP1     9   180.000000     1.046000     2 ; CRBZ, carbazole, erh
  CG2RC0   CG2RC0   NG2R51   CG2R51     9   180.000000     6.276000     2 ; NA bases
  CG2RC0   CG2RC0   NG2R51   CG2R53     9   180.000000    25.104000     2 ; NA G
  CG2RC0   CG2RC0   NG2R51    CG331     9   180.000000    46.024000     2 ; 9MAD, 9-Methyl-Adenine, kevo for gsk/ibm
  CG2RC0   CG2RC0   NG2R51   CG3C51     9   180.000000    46.024000     2 ; NA, glycosyl linkage
  CG2RC0   CG2RC0   NG2R51   CG3RC1     9   180.000000     5.020800     2 ; PYRIDINE pyridine, yin
  CG2RC0   CG2RC0   NG2R51   NG2R50     9   180.000000    27.196000     2 ; INDA, 1H-indazole, kevo
  CG2RC0   CG2RC0   NG2R51    OG301     9   180.000000     1.619626     2 ; TOX, by ac_aa
  CG2RC0   CG2RC0   NG2R51     HGP1     9   180.000000     3.556400     2 ; INDO/TRP
  NG2R61   CG2RC0   NG2R51   CG2R53     9   180.000000     8.368000     2 ; DWG, from NG2R62 CG2RC0 NG2R51 CG2R53, yxu, RNA
  NG2R61   CG2RC0   NG2R51    CG331     9   180.000000    46.024000     2 ; DWG, not optimized, yxu, RNA
  NG2R61   CG2RC0   NG2R51     HGP1     9   180.000000     2.928800     2 ; DWG, yxu, RNA
  NG2R62   CG2RC0   NG2R51   CG2R51     9   180.000000     8.368000     2 ; prf, ashalini
  NG2R62   CG2RC0   NG2R51   CG2R53     9   180.000000     8.368000     2 ; NA G
  NG2R62   CG2RC0   NG2R51    CG331     9   180.000000    46.024000     2 ; 9MAD, 9-Methyl-Adenine, kevo for gsk/ibm
  NG2R62   CG2RC0   NG2R51   CG3C51     9   180.000000    46.024000     2 ; NA, glycosyl linkage
  NG2R62   CG2RC0   NG2R51   CG3RC1     9   180.000000     5.020800     2 ; PYRIDINE pyridine, yin
  NG2R62   CG2RC0   NG2R51     HGP1     9   180.000000     5.020800     2 ; NA G
  CG2R61   CG2RC0   NG2R52   CG2R53     9   180.000000    50.208000     2 ; 7MGe, from CG2R51 CG2R51 NG2R52 CG2R53, not optimized, yxu, RNA
  CG2R61   CG2RC0   NG2R52    CG334     9   180.000000    25.104000     2 ; 7MGe, from CG2R51 CG2R52 NG2R52 CG3C54, not optimized, yxu, RNA
  CG2R63   CG2RC0   NG2R52   CG2R53     9   180.000000     8.368000     2 ; 7MG, from CG2R63 CG2RC0 NG2R50 CG2R53, yxu, RNA
  CG2R63   CG2RC0   NG2R52    CG334     9   180.000000    12.552000     2 ; 7MG, yxu, RNA
  CG2RC0   CG2RC0   NG2R52   CG2R53     9   180.000000    12.552000     2 ; 7MG, yxu, RNA
  CG2RC0   CG2RC0   NG2R52    CG334     9   180.000000    23.012000     2 ; 7MG, yxu, RNA
  CG2RC0   CG2RC0   NG2R52     HGP2     9   180.000000     6.694400     2 ; 7MG, yxu, RNA
  NG2R62   CG2RC0   NG2R52   CG2R53     9   180.000000     8.368000     2 ; 7MG, from NG2R62 CG2RC0 NG2R50 CG2R53, yxu, RNA
  NG2R62   CG2RC0   NG2R52    CG334     9   180.000000    12.552000     2 ; 7MG, yxu, RNA
  NG2R62   CG2RC0   NG2R52     HGP2     9   180.000000     6.694400     2 ; 7MG, yxu, RNA
  CG2R61   CG2RC0   NG2R53   CG2R53     9   180.000000    12.552000     2 ; MSCH model for D3R, xxwy
  CG2R61   CG2RC0   NG2R53    CG331     9   180.000000     4.184000     2 ; MSCH model for D3R, xxwy
  CG2RC0   CG2RC0   NG2R53   CG2R53     9   180.000000    25.104000     2 ; MSCH model for D3R, xxwy
  CG2RC0   CG2RC0   NG2R53    CG331     9   180.000000     4.184000     2 ; MSCH model for D3R, xxwy
  CG2RC0   CG2RC0   NG2R61   CG2RC0     9   180.000000     0.000000     2 ; DWG, yxu, RNA
  CG2RC0   CG2RC0   NG2R61    CG331     9   180.000000     1.338880     2 ; MWG, yxu, RNA
  CG2RC0   CG2RC0   NG2R61     HGP1     9   180.000000     1.882800     2 ; DWG, yxu, RNA
  NG2R50   CG2RC0   NG2R61   CG2RC0     9   180.000000     0.000000     2 ; DWG, yxu, RNA
  NG2R50   CG2RC0   NG2R61    CG331     9   180.000000     0.836800     2 ; MWG, yxu, RNA
  NG2R50   CG2RC0   NG2R61     HGP1     9   180.000000     3.347200     2 ; DWG, yxu, RNA
  NG2R51   CG2RC0   NG2R61   CG2RC0     9   180.000000     0.000000     2 ; DWG, yxu, RNA
  NG2R51   CG2RC0   NG2R61    CG331     9   180.000000     0.836800     2 ; MWG, yxu, RNA
  NG2R51   CG2RC0   NG2R61     HGP1     9   180.000000     1.882800     2 ; DWG, yxu, RNA
  NG2RC0   CG2RC0   NG2R61   CG2RC0     9   180.000000     0.000000     2 ; DWG, yxu, RNA
  NG2RC0   CG2RC0   NG2R61    CG331     9   180.000000     0.836800     2 ; MWG, yxu, RNA
  NG2RC0   CG2RC0   NG2R61     HGP1     9   180.000000     2.510400     2 ; DWG, yxu, RNA
  CG2RC0   CG2RC0   NG2R62   CG2R64     9   180.000000     0.836800     2 ; NA G
  NG2R50   CG2RC0   NG2R62   CG2R64     9   180.000000     8.368000     2 ; PUR7, purine(N7H), kevo
  NG2R51   CG2RC0   NG2R62   CG2R64     9   180.000000     8.368000     2 ; NA G
  NG2R52   CG2RC0   NG2R62   CG2R64     9   180.000000     8.368000     2 ; 7MG, from NG2R51 CG2RC0 NG2R62 CG2R64, yxu, RNA
  CG2R51   CG2RC0   NG2RC0   CG2R51     9   180.000000    33.472000     2 ; INDZ, indolizine, kevo
  CG2R51   CG2RC0   NG2RC0   CG2R61     9   180.000000     4.184000     2 ; INDZ, indolizine, kevo
  CG2R61   CG2RC0   NG2RC0   CG2R51     9   180.000000     4.184000     2 ; INDZ, indolizine, kevo
  CG2R61   CG2RC0   NG2RC0   CG2R61     9   180.000000     3.347200     2 ; INDZ, indolizine, kevo
  NG2R50   CG2RC0   NG2RC0   CG2R51     9   180.000000    29.288000     2 ; DWG, yxu, RNA
  NG2R50   CG2RC0   NG2RC0   CG2R63     9   180.000000    12.552000     2 ; DWG, yxu, RNA
  NG2R61   CG2RC0   NG2RC0   CG2R51     9   180.000000    30.543200     2 ; DWG, yxu, RNA
  NG2R61   CG2RC0   NG2RC0   CG2R63     9   180.000000     2.510400     2 ; DWG, yxu, RNA
  CG2R61   CG2RC0   NG3C51   CG3C52     9   180.000000    16.736000     2 ; INDI, indoline, kevo
  CG2R61   CG2RC0   NG3C51     HGP1     9     0.000000     0.000000     3 ; INDI, indoline, kevo
  CG2RC0   CG2RC0   NG3C51   CG3C52     9     0.000000     8.200640     3 ; INDI, indoline, kevo
  CG2RC0   CG2RC0   NG3C51     HGP1     9     0.000000     0.000000     3 ; INDI, indoline, kevo
  CG2R61   CG2RC0   OG2R50   CG2R51     9   180.000000    35.564000     2 ; ZFUR, benzofuran, kevo
  CG2RC0   CG2RC0   OG2R50   CG2R51     9   180.000000    35.564000     2 ; ZFUR, benzofuran, kevo
  CG2R61   CG2RC0   OG3C51   CG3C52     9   180.000000     1.255200     2 ; ZDOL, 1,3-benzodioxole, pram & oashi
  CG2RC0   CG2RC0   OG3C51   CG3C52     9   180.000000     1.255200     2 ; ZDOL, 1,3-benzodioxole, pram & oashi & kevo
  CG2R61   CG2RC0   SG2R50   CG2R51     9   180.000000    35.564000     2 ; ZTHP, benzothiophene, kevo
  CG2R61   CG2RC0   SG2R50   CG2R53     9   180.000000    12.552000     2 ; ZTHZ, benzothiazole, kevo
  CG2RC0   CG2RC0   SG2R50   CG2R51     9   180.000000    35.564000     2 ; ZTHP, benzothiophene, kevo
  CG2RC0   CG2RC0   SG2R50   CG2R53     9   180.000000    12.552000     2 ; ZTHZ, benzothiazole, kevo
  CG2R61   CG2RC0    BG201    OG2D2     9   180.000000     9.460442     2 ; BINB, Boronic acid, sr
  CG2R61   CG2RC0    BG201    OG311     9   180.000000    10.684262     2 ; BICB, Boronic acid, sr
  CG2R61   CG2RC0    BG201   OG3C51     9     0.000000     6.279766     2 ; BICB,BINB Boronic acid, sr
  CG2RC0   CG2RC0    BG201    OG2D2     9     0.000000    16.648136     3 ; BINB, Boronic acid, sr
  CG2RC0   CG2RC0    BG201    OG311     9     0.000000    19.333009     3 ; BICB, Boronic acid, sr
  CG2RC0   CG2RC0    BG201   OG3C51     9   180.000000     5.619112     3 ; BICB,BINB Boronic acid, sr
  CG2R51   CG2RC7   CG2RC7   CG2R51     9   180.000000    12.552000     2 ; AZUL, Azulene, kevo
  CG2R51   CG2RC7   CG2RC7   CG2R71     9   180.000000     0.000000     2 ; AZUL, Azulene, kevo
  CG2R71   CG2RC7   CG2RC7   CG2R71     9   180.000000     0.000000     2 ; AZUL, Azulene, kevo
   CG2D1    CG301    CG311    CG311     9     0.000000     0.836800     3 ; CHL1, Cholesterol from X CTL1 CTL1 X; also consistent with RETINOL TMCH
   CG2D1    CG301    CG311    CG321     9     0.000000     0.836800     3 ; PROT alkane update, adm jr., 3/2/92
   CG2D1    CG301    CG311     HGA1     9     0.000000     0.815880     3 ; NA, sugar
   CG311    CG301    CG311    CG311     9     0.000000     0.836800     3 ; CA, Cholic Acid, cacha, 03/06 reset to default by kevo
   CG311    CG301    CG311    CG321     9     0.000000     0.836800     3 ; CA, Cholic Acid, cacha, 03/06 reset to default by kevo
   CG311    CG301    CG311     HGA1     9     0.000000     0.815880     3 ; CA, Cholic Acid, cacha, 03/06 reset to default by kevo
   CG321    CG301    CG311    CG2O1     9     0.000000     0.836800     3 ; from CG2O1 CG311 CG311 CG321, PENALTY= 8 4HH LYX
   CG321    CG301    CG311    CG311     9     0.000000     0.836800     3 ; CA, Cholic Acid, cacha, 03/06 reset to default by kevo
   CG321    CG301    CG311    CG321     9     0.000000     0.836800     3 ; CA, Cholic Acid, cacha, 03/06 reset to default by kevo
   CG321    CG301    CG311    OG311     9     0.000000     0.585760     3 ; from CG311 CG311 CG311 OG311, PENALTY= 8.6 4HH LYX
   CG321    CG301    CG311     HGA1     9     0.000000     0.815880     3 ; CA, Cholic Acid, cacha, 03/06 reset to default by kevo
   CG331    CG301    CG311    CG2O1     9     0.000000     0.836800     3 ; from CG2O1 CG311 CG311 CG331, PENALTY= 8 4HH LYX
   CG331    CG301    CG311    CG311     9     0.000000     0.836800     3 ; CA, Cholic Acid, cacha, 03/06 reset to default by kevo
   CG331    CG301    CG311    CG321     9     0.000000     0.836800     3 ; CA, Cholic Acid, cacha, 03/06 reset to default by kevo
   CG331    CG301    CG311    CG331     9     0.000000     0.836800     3 ; from CG331 CG301 CG311 CG321, PENALTY= 0.9 TS9
   CG331    CG301    CG311    OG311     9     0.000000     0.585760     3 ; from CG311 CG311 CG311 OG311, PENALTY= 9.5 4HH LYX TS9
   CG331    CG301    CG311     HGA1     9     0.000000     0.815880     3 ; CA, Cholic Acid, cacha, 03/06 reset to default by kevo
   OG311    CG301    CG311    CG331     9     0.000000     3.347200     3 ; from OG301 CG301 CG321 CG331, PENALTY= 9 TS9
   OG311    CG301    CG311    OG311     9   180.000000     3.379417     1 ; TS9, by ac_aa
   OG311    CG301    CG311    OG311     9     0.000000     1.993676     3 ; TS9, by ac_aa
   OG311    CG301    CG311     HGA1     9     0.000000     0.815880     3 ; from OG311 CG311 CG311 HGA1, PENALTY= 8 TS9
   CG2D1    CG301    CG321    CG321     9     0.000000     0.836800     3 ; CHL1, Cholesterol from X CTL1 CTL2 X; also consistent with RETINOL TMCH
   CG2D1    CG301    CG321     HGA2     9     0.000000     0.815880     3 ; NA, sugar
  CG2DC1    CG301    CG321    CG321     9     0.000000     0.836800     3 ; RETINOL TMCH
  CG2DC1    CG301    CG321     HGA2     9     0.000000     0.794960     3 ; RETINOL TMCH
  CG2DC2    CG301    CG321    CG321     9     0.000000     0.836800     3 ; RETINOL TMCH
  CG2DC2    CG301    CG321     HGA2     9     0.000000     0.794960     3 ; RETINOL TMCH
   CG311    CG301    CG321    CG321     9     0.000000     0.836800     3 ; CA, Cholic Acid, cacha, 03/06
   CG311    CG301    CG321    OG303     9   180.000000     0.836800     3 ; from CG321 CG311 CG321 OG303, PENALTY= 8.6 4HH LYX
   CG311    CG301    CG321     HGA2     9     0.000000     0.815880     3 ; CA, Cholic Acid, cacha, 03/06 reset to default by kevo
   CG321    CG301    CG321    CG311     9     0.000000     0.836800     3 ; from CG321 CG301 CG321 CG321, PENALTY= 0.6 ADAM
   CG321    CG301    CG321    CG321     9     0.000000     0.836800     3 ; PROT alkane update, adm jr., 3/2/92
   CG321    CG301    CG321     HGA2     9     0.000000     0.815880     3 ; CHOLEST cholesterol reset to default by kevo
   CG331    CG301    CG321    CG321     9     0.000000     0.836800     3 ; RETINOL TMCH
   CG331    CG301    CG321    CG331     9     0.000000     1.840960     1 ; DMBU, dimethoxybutane, sna
   CG331    CG301    CG321    CG331     9   180.000000     0.083680     2 ; DMBU, dimethoxybutane, sna
   CG331    CG301    CG321    CG331     9   180.000000     3.054320     3 ; DMBU, dimethoxybutane, sna
   CG331    CG301    CG321    OG303     9   180.000000     0.836800     3 ; from CG321 CG311 CG321 OG303, PENALTY= 8.9 4HH LYX
   CG331    CG301    CG321    SG3O3     9   180.000000     3.924592     1 ; M2S, by ac_aa
   CG331    CG301    CG321    SG3O3     9     0.000000     1.606238     2 ; M2S, by ac_aa
   CG331    CG301    CG321    SG3O3     9     0.000000     0.749354     3 ; M2S, by ac_aa
   CG331    CG301    CG321     HGA2     9     0.000000     0.815880     3 ; RETINOL TMCH kevo: reset to default
   OG301    CG301    CG321    CG331     9     0.000000     3.347200     3 ; DMBU, dimethoxybutane, sna
   OG301    CG301    CG321     HGA2     9     0.000000     0.669440     3 ; DMBU, dimethoxybutane, sna
   CG2D1    CG301    CG331     HGA3     9     0.000000     0.669440     3 ; CHL1, Cholesterol from RETINOL TMCH (X CTL1 CTL3 X seems woefully inaccurate)
  CG2DC1    CG301    CG331     HGA3     9     0.000000     0.669440     3 ; RETINOL TMCH
  CG2DC2    CG301    CG331     HGA3     9     0.000000     0.669440     3 ; RETINOL TMCH
   CG2O3    CG301    CG331     HGA3     9     0.000000     0.836800     3 ; AMOL, alpha-methoxy-lactic acid, og
  CG2R61    CG301    CG331     HGA3     9     0.000000     0.167360     3 ; from CG2R61 CG311 CG331 HGA3, PENALTY= 8 TBP4
   CG311    CG301    CG331     HGA3     9     0.000000     0.669440     3 ; CA, Cholic Acid, cacha, 03/06 reset to default by kevo
   CG321    CG301    CG331     HGA3     9     0.000000     0.669440     3 ; RETINOL TMCH
   CG331    CG301    CG331     HGA3     9     0.000000     0.669440     3 ; RETINOL TMCH
   OG301    CG301    CG331     HGA3     9     0.000000     0.669440     3 ; AMOL, alpha-methoxy-lactic acid, og
   OG302    CG301    CG331     HGA3     9     0.000000     0.669440     3 ; AMGT, Alpha Methyl Gamma Tert Butyl Glu Acid CDCA Amide, cacha reset to default by kevo
   OG303    CG301    CG331     HGA3     9     0.000000     0.669440     3 ; from OG302 CG301 CG331 HGA3, PENALTY= 2.5 QPA
   OG311    CG301    CG331     HGA3     9     0.000000     0.585760     3 ; AMOL, alpha-methoxy-lactic acid, og
   SG311    CG301    CG331     HGA3     9     0.000000     0.793286     3 ; LE1, by ac_aa
   CLGA3    CG301    CG331     HGA3     9     0.000000     1.129680     3 ; TCLE
   BRGA3    CG301    CG331     HGA3     9     0.000000     1.087840     3 ; TBRE
   CG2O3    CG301    OG301    CG331     9     0.000000     0.836800     3 ; AMOL, alpha-methoxy-lactic acid, og
   CG321    CG301    OG301    CG331     9     0.000000     4.811600     1 ; DMBU, dimethoxybutane, sna
   CG321    CG301    OG301    CG331     9   180.000000     0.962320     2 ; DMBU, dimethoxybutane, sna
   CG321    CG301    OG301    CG331     9     0.000000     2.050160     3 ; DMBU, dimethoxybutane, sna
   CG331    CG301    OG301    CG331     9     0.000000     1.673600     1 ; AMOL, alpha-methoxy-lactic acid, og
   CG331    CG301    OG301    CG331     9     0.000000     2.050160     3 ; AMOL, alpha-methoxy-lactic acid, og
   OG301    CG301    OG301    CG331     9     0.000000     2.133840     1 ; DMOP, dimethoxypropane, sna
   OG301    CG301    OG301    CG331     9     0.000000     2.803280     2 ; DMOP, dimethoxypropane, sna
   OG301    CG301    OG301    CG331     9     0.000000     1.087840     3 ; DMOP, dimethoxypropane, sna
   OG311    CG301    OG301    CG331     9   180.000000     1.715440     1 ; AMOL, alpha-methoxy-lactic acid, og
   OG311    CG301    OG301    CG331     9     0.000000     3.723760     2 ; AMOL, alpha-methoxy-lactic acid, og
   OG311    CG301    OG301    CG331     9     0.000000     0.209200     3 ; AMOL, alpha-methoxy-lactic acid, og
   CG331    CG301    OG302    CG2O2     9     0.000000     0.000000     3 ; AMGT, Alpha Methyl Gamma Tert Butyl Glu Acid CDCA Amide, cacha
   CG2O3    CG301    OG303      PG1     9   180.000000     1.694938     1 ; QPA, by ac_aa
   CG2O3    CG301    OG303      PG1     9     0.000000     9.482618     2 ; QPA, by ac_aa
   CG2O3    CG301    OG303      PG1     9   180.000000     1.165244     3 ; QPA, by ac_aa
   CG331    CG301    OG303      PG1     9   180.000000     1.673600     1 ; from CG331 CG311 OG303 PG2, PENALTY= 9 QPA
   CG331    CG301    OG303      PG1     9     0.000000     1.255200     2 ; from CG331 CG311 OG303 PG2, PENALTY= 9 QPA
   CG331    CG301    OG303      PG1     9     0.000000     0.418400     3 ; from CG331 CG311 OG303 PG2, PENALTY= 9 QPA
   SG311    CG301    OG303      PG1     9   180.000000     4.263078     1 ; QPA, by ac_aa
   SG311    CG301    OG303      PG1     9     0.000000     1.404987     2 ; QPA, by ac_aa
   SG311    CG301    OG303      PG1     9     0.000000     1.292438     3 ; QPA, by ac_aa
   CG2O3    CG301    OG311     HGP1     9   180.000000     3.430880     3 ; AMOL, alpha-methoxy-lactic acid, og
   CG311    CG301    OG311     HGP1     9     0.000000     4.727920     1 ; from CG331 CG301 OG311 HGP1, PENALTY= 1.5 TS9
   CG311    CG301    OG311     HGP1     9     0.000000     0.585760     2 ; from CG331 CG301 OG311 HGP1, PENALTY= 1.5 TS9
   CG311    CG301    OG311     HGP1     9     0.000000     1.004160     3 ; from CG331 CG301 OG311 HGP1, PENALTY= 1.5 TS9
   CG331    CG301    OG311     HGP1     9     0.000000     4.727920     1 ; AMOL, alpha-methoxy-lactic acid, og
   CG331    CG301    OG311     HGP1     9     0.000000     0.585760     2 ; AMOL, alpha-methoxy-lactic acid, og
   CG331    CG301    OG311     HGP1     9     0.000000     1.004160     3 ; AMOL, alpha-methoxy-lactic acid, og
   OG301    CG301    OG311     HGP1     9     0.000000     6.485200     1 ; AMOL, alpha-methoxy-lactic acid, og
   OG301    CG301    OG311     HGP1     9     0.000000     4.895280     2 ; AMOL, alpha-methoxy-lactic acid, og
   OG301    CG301    OG311     HGP1     9     0.000000     4.476880     3 ; AMOL, alpha-methoxy-lactic acid, og
   CG2O3    CG301    SG311    CG321     9   180.000000     3.544266     1 ; QPA, by ac_aa
   CG2O3    CG301    SG311    CG321     9   180.000000     4.647169     2 ; QPA, by ac_aa
   CG2O3    CG301    SG311    CG321     9     0.000000     4.813692     3 ; QPA, by ac_aa
   CG331    CG301    SG311    CG321     9     0.000000     5.596937     1 ; QPA, by ac_aa
   CG331    CG301    SG311    CG321     9     0.000000     1.071522     3 ; QPA, by ac_aa
   CG331    CG301    SG311     HGP3     9     0.000000    50.454438     1 ; LE1, by ac_aa
   CG331    CG301    SG311     HGP3     9     0.000000     8.644562     2 ; LE1, by ac_aa
   CG331    CG301    SG311     HGP3     9     0.000000     0.946421     3 ; LE1, by ac_aa
   OG303    CG301    SG311    CG321     9     0.000000     1.663977     1 ; QPA, by ac_aa
   OG303    CG301    SG311    CG321     9   180.000000     3.489456     2 ; QPA, by ac_aa
   OG303    CG301    SG311    CG321     9     0.000000     0.629274     3 ; QPA, by ac_aa
    FGA3    CG302    CG311    CG321     9     0.000000     1.066083     3 ; from FGA3 CG302 CG311 CG331, TFLE
    FGA3    CG302    CG311    CG331     9     0.000000     1.066083     3 ; TFLE, by ac_aa
    FGA3    CG302    CG311     HGA1     9     0.000000     0.661072     3 ; from FGA3 CG302 CG321 HGA2, PENALTY= 4 TFLE
    FGA3    CG302    CG314    CG2O3     9     0.000000     4.904903     3 ; FLA, by ac_aa
    FGA3    CG302    CG314    NG3P3     9   180.000000     3.619160     3 ; FLA, by ac_aa
    FGA3    CG302    CG314     HGA1     9     0.000000     0.661072     3 ; from FGA3 CG302 CG321 HGA2, PENALTY= 5 FLA
    FGA3    CG302    CG321    OG311     9     0.000000     1.046000     3 ; TFE, Trifluoroethanol
    FGA3    CG302    CG321     HGA2     9     0.000000     0.661072     3 ; TFE, Trifluoroethanol
    FGA3    CG302    CG331     HGA3     9     0.000000     0.661072     3 ; FLUROALK fluoro_alkanes
   CG2O1    CG311    CG311    CG321     9     0.000000     0.836800     3 ; PROT alkane update, adm jr., 3/2/92
   CG2O1    CG311    CG311    CG331     9     0.000000     0.836800     3 ; PROT alkane update, adm jr., 3/2/92
   CG2O1    CG311    CG311    OG311     9     0.000000     0.836800     3 ; PROT alkane update, adm jr., 3/2/92
   CG2O1    CG311    CG311     HGA1     9     0.000000     0.836800     3 ; PROT alkane update, adm jr., 3/2/92
   CG2O2    CG311    CG311    CG321     9     0.000000     0.836800     3 ; HWG, from CG2O1 CG311 CG311 CG321, yxu, RNA
   CG2O2    CG311    CG311    CG331     9     0.000000     0.836800     3 ; 6AH, from CG2O1  CG311  CG311  CG331, yxu, RNA
   CG2O2    CG311    CG311    OG301     9   180.000000     8.368000     1 ; PBG, from amba, yxu, RNA
   CG2O2    CG311    CG311    OG301     9     0.000000     3.347200     2 ; PBG, from amba, yxu, RNA
   CG2O2    CG311    CG311    OG311     9     0.000000     0.836800     3 ; HWG, from CG2O1 CG311 CG311 OG311, yxu, RNA
   CG2O2    CG311    CG311     HGA1     9     0.000000     0.836800     3 ; HWG, from CG2O1 CG311 CG311 HGA1, yxu, RNA
   CG2O3    CG311    CG311    CG321     9     0.000000     0.836800     3 ; PROT C-terminal AA - standard parameter
   CG2O3    CG311    CG311    CG331     9     0.000000     0.836800     3 ; PROT C-terminal AA - standard parameter
   CG2O3    CG311    CG311    OG311     9     0.000000     0.836800     3 ; PROT C-terminal AA - standard parameter
   CG2O3    CG311    CG311     HGA1     9     0.000000     0.836800     3 ; PROT C-terminal AA - standard parameter
   CG2O4    CG311    CG311    CG331     9     0.000000     0.836800     3 ; amba, from CG2O1 CG311 CG311 CG331, not optimized, yxu, RNA
   CG2O4    CG311    CG311    OG301     9   180.000000     8.368000     1 ; amba, yxu, RNA
   CG2O4    CG311    CG311    OG301     9     0.000000     3.347200     2 ; amba, yxu, RNA
   CG2O4    CG311    CG311     HGA1     9     0.000000     0.836800     3 ; amba, from CG2O1 CG311 CG311 HGA1, not optimized, yxu, RNA
  CG2R53    CG311    CG311    CG331     9     0.000000     0.167360     3 ; from CG2R52 CG321 CG321 CG321, PENALTY= 9.9 CRF B2H CRO
  CG2R53    CG311    CG311    OG311     9     0.000000     0.836800     3 ; from CG2O1 CG311 CG321 OG311, B2H
  CG2R53    CG311    CG311     HGA1     9     0.000000     0.836800     3 ; from HGA1 CG311 CG321 CG2R51, PENALTY= 6.5 CRF B2H CRO
   CG301    CG311    CG311    CG311     9     0.000000     0.836800     3 ; CA, Cholic Acid, cacha, 03/06
   CG301    CG311    CG311    CG321     9     0.000000     0.836800     3 ; DCA, Deoxycholic Acid, cacha, 03/06
   CG301    CG311    CG311   CG3RC1     9     0.000000     0.836800     3 ; CA, Cholic Acid, cacha, 02/08
   CG301    CG311    CG311     HGA1     9     0.000000     0.815880     3 ; CA, Cholic Acid, cacha, 03/06 reset to default by kevo
   CG311    CG311    CG311    CG321     9   180.000000     2.092000     4 ; NA bkb
   CG311    CG311    CG311    CG331     9   180.000000     2.092000     4 ; flavin
   CG311    CG311    CG311    OG311     9     0.000000     0.585760     3 ; PROT, hydroxyl wild card
   CG311    CG311    CG311     HGA1     9     0.000000     0.815880     3 ; NA, sugar
   CG321    CG311    CG311    CG321     9   180.000000     2.092000     4 ; NA, sugar
   CG321    CG311    CG311    CG331     9   180.000000     2.092000     4 ; from CG321 CG311 CG311 CG321, PENALTY= 0.9 ILX
   CG321    CG311    CG311   CG3RC1     9     0.000000     0.627600     3 ; CARBOCY carbocyclic sugars
   CG321    CG311    CG311    NG2S1     9     0.000000     0.836800     3 ; PROT alkane update, adm jr., 3/2/92
   CG321    CG311    CG311    NG321     9     0.000000     1.673600     1 ; BUGn, from aboh, yxu, RNA
   CG321    CG311    CG311    NG321     9     0.000000     3.347200     3 ; BUGn, from aboh, yxu, RNA
   CG321    CG311    CG311    OG311     9     0.000000     0.585760     3 ; flavin
   CG321    CG311    CG311     HGA1     9     0.000000     0.815880     3 ; NA, sugar
   CG331    CG311    CG311    CG331     9   180.000000     2.092000     4 ; aboh, from CG321 CG311 CG311 CG321, not optimized, yxu, RNA
   CG331    CG311    CG311    NG2S1     9     0.000000     0.836800     3 ; PROT alkane update, adm jr., 3/2/92
   CG331    CG311    CG311    NG321     9     0.000000     1.673600     1 ; aboh, yxu, RNA
   CG331    CG311    CG311    NG321     9     0.000000     3.347200     3 ; aboh, yxu, RNA
   CG331    CG311    CG311    OG311     9     0.000000     0.585760     3 ; flavin
   CG331    CG311    CG311     HGA1     9     0.000000     0.815880     3 ; NA, sugar
  CG3RC1    CG311    CG311    OG311     9     0.000000     2.510400     1 ; CARBOCY carbocyclic sugars
  CG3RC1    CG311    CG311    OG311     9     0.000000     2.928800     3 ; CARBOCY carbocyclic sugars
  CG3RC1    CG311    CG311     HGA1     9     0.000000     0.627600     3 ; CARBOCY carbocyclic sugar
   NG2S1    CG311    CG311    OG301     9   180.000000     7.531200     1 ; PBG, yxu, RNA
   NG2S1    CG311    CG311    OG311     9     0.000000     0.836800     3 ; PROT alkane update, adm jr., 3/2/92
   NG2S1    CG311    CG311     HGA1     9     0.000000     0.836800     3 ; PROT alkane update, adm jr., 3/2/92
   NG321    CG311    CG311    OG311     9   180.000000     1.673600     1 ; BUGn, from aboh, yxu, RNA
   NG321    CG311    CG311    OG311     9     0.000000     3.347200     3 ; BUGn, from aboh, yxu, RNA
   NG321    CG311    CG311     HGA1     9     0.000000     2.092000     3 ; BUGn, from aboh, yxu, RNA
   OG301    CG311    CG311     HGA1     9     0.000000     0.815880     3 ; PBG, yxu, RNA
   OG311    CG311    CG311    OG311     9     0.000000     0.836800     3 ; flavin
   OG311    CG311    CG311     HGA1     9     0.000000     0.815880     3 ; NA, sugar
    HGA1    CG311    CG311     HGA1     9     0.000000     0.815880     3 ; NA, sugar
   CG321    CG311    CG314    CG2O1     9     0.000000     0.836800     3 ; PROT alkane update, adm jr., 3/2/92
   CG321    CG311    CG314    CG2O3     9     0.000000     0.836800     3 ; PROT alkane update, adm jr., 3/2/92
   CG321    CG311    CG314    NG3P3     9     0.000000     0.836800     3 ; PROT alkane update, adm jr., 3/2/92
   CG321    CG311    CG314     HGA1     9     0.000000     0.815880     3 ; PROT N-terminal AA - standard parameter collided with NA, sugar
   CG331    CG311    CG314    CG2O1     9     0.000000     0.836800     3 ; PROT alkane update, adm jr., 3/2/92
   CG331    CG311    CG314    CG2O3     9     0.000000     0.836800     3 ; PROT alkane update, adm jr., 3/2/92
   CG331    CG311    CG314    NG3P3     9     0.000000     0.836800     3 ; PROT alkane update, adm jr., 3/2/92
   CG331    CG311    CG314     HGA1     9     0.000000     0.815880     3 ; PROT N-terminal AA - standard parameter collided with NA, sugar
   OG311    CG311    CG314    CG2O3     9     0.000000     0.836800     3 ; BUG, from CG2O3 CG311 CG311 OG311, yxu, RNA
   OG311    CG311    CG314    NG3P3     9     0.000000     0.836800     3 ; BUG, from NG3P3 CG314 CG321 OG311, yxu, RNA
   OG311    CG311    CG314     HGA1     9     0.000000     0.815880     3 ; BUG, from OG311 CG311 CG311 HGA1, yxu, RNA
    HGA1    CG311    CG314    CG2O1     9     0.000000     0.836800     3 ; PROT alkane update, adm jr., 3/2/92
    HGA1    CG311    CG314    CG2O3     9     0.000000     0.836800     3 ; PROT alkane update, adm jr., 3/2/92
    HGA1    CG311    CG314    NG3P3     9     0.000000     0.836800     3 ; PROT alkane update, adm jr., 3/2/92
    HGA1    CG311    CG314     HGA1     9     0.000000     0.815880     3 ; NPROT N-terminal AA - standard parameter collided with A, sugar
   CG2D1    CG311    CG321    CG321     9   180.000000     0.585760     1 ; from CG2D1 CG321 CG321 CG321, PENALTY= 4 ACZ
   CG2D1    CG311    CG321    CG321     9     0.000000     0.711280     2 ; from CG2D1 CG321 CG321 CG321, PENALTY= 4 ACZ
   CG2D1    CG311    CG321    CG321     9   180.000000     0.209200     3 ; from CG2D1 CG321 CG321 CG321, PENALTY= 4 ACZ
   CG2D1    CG311    CG321    CG331     9   180.000000     0.585760     1 ; sidechai , from CG2D1 CG321 CG321 CG331, penalty= 4 ACZ
   CG2D1    CG311    CG321    CG331     9     0.000000     0.711280     2 ; sidechai , from CG2D1 CG321 CG321 CG331, penalty= 4 ACZ
   CG2D1    CG311    CG321    CG331     9   180.000000     0.209200     3 ; sidechai , from CG2D1 CG321 CG321 CG331, penalty= 4 ACZ
   CG2D1    CG311    CG321     HGA2     9     0.000000     0.815880     3 ; from CG2D1 CG321 CG321 HGA2, PENALTY= 4 ACZ
   CG2O1    CG311    CG321    CG2O1     9     0.000000     0.836800     3 ; PROT alkane update, adm jr., 3/2/92
   CG2O1    CG311    CG321    CG2O3     9     0.000000     0.836800     3 ; PROT alkane update, adm jr., 3/2/92
   CG2O1    CG311    CG321   CG2R51     9     0.000000     0.836800     3 ; PROT alkane update, adm jr., 3/2/92
   CG2O1    CG311    CG321   CG2R61     9     0.000000     0.167360     3 ; PROT 2.7 kcal/mole CH3 rot in ethylbenzene, adm jr, 3/7/92
   CG2O1    CG311    CG321    CG311     9     0.000000     0.836800     3 ; PROT alkane update, adm jr., 3/2/92
   CG2O1    CG311    CG321    CG321     9     0.000000     0.836800     3 ; PROT alkane update, adm jr., 3/2/92
   CG2O1    CG311    CG321    NG2S0     9     0.000000     1.882800     3 ; MDU, yxu, RNA
   CG2O1    CG311    CG321    OG311     9     0.000000     0.836800     3 ; PROT alkane update, adm jr., 3/2/92
   CG2O1    CG311    CG321    SG301     9     0.000000     0.836800     3 ; PROT alkane update, adm jr., 3/2/92
   CG2O1    CG311    CG321    SG311     9     0.000000     0.836800     3 ; PROT alkane update, adm jr., 3/2/92
   CG2O1    CG311    CG321     HGA2     9     0.000000     0.836800     3 ; PROT alkane update, adm jr., 3/2/92
   CG2O2    CG311    CG321    CG2O2     9     0.000000     0.836800     3 ; 576P, standard param
   CG2O2    CG311    CG321    CG321     9     0.000000     0.836800     3 ; AMGA, Alpha Methyl Glu Acid CDCA Amide, cacha
   CG2O2    CG311    CG321    CG331     9     0.000000     0.836800     3 ; from CG2O2 CG311 CG321 CG321, penalty= 0.9 CGUH
   CG2O2    CG311    CG321     HGA2     9     0.000000     0.836800     3 ; AMGA, Alpha Methyl Glu Acid CDCA Amide, cacha
   CG2O3    CG311    CG321    CG2O1     9     0.000000     0.836800     3 ; PROT C-terminal AA - standard parameter
   CG2O3    CG311    CG321    CG2O3     9     0.000000     0.836800     3 ; drug design project, xxwy
   CG2O3    CG311    CG321   CG2R51     9     0.000000     0.836800     3 ; PROT C-terminal AA - standard parameter
   CG2O3    CG311    CG321   CG2R61     9     0.000000     0.167360     3 ; PROT 2.7 kcal/mole CH3 rot in ethylbenzene, adm jr, 3/7/92
   CG2O3    CG311    CG321    CG311     9     0.000000     0.836800     3 ; PROT C-terminal AA - standard parameter
   CG2O3    CG311    CG321    CG321     9     0.000000     0.836800     3 ; PROT alkane update, adm jr., 3/2/92
   CG2O3    CG311    CG321    CG331     9     0.000000     0.836800     3 ; from CG2O3 CG311 CG321 CG321, penalty= 0.9 CGU CGUH
   CG2O3    CG311    CG321   NG3C51     9     0.000000     4.272282     1 ; PR4, by ac_aa
   CG2O3    CG311    CG321   NG3C51     9   180.000000     1.679876     2 ; PR4, by ac_aa
   CG2O3    CG311    CG321   NG3C51     9     0.000000     0.896631     3 ; PR4, by ac_aa
   CG2O3    CG311    CG321    OG311     9     0.000000     0.836800     3 ; PROT C-terminal AA - standard parameter
   CG2O3    CG311    CG321    SG301     9     0.000000     0.836800     3 ; PROT C-terminal AA - standard parameter
   CG2O3    CG311    CG321    SG311     9     0.000000     0.836800     3 ; PROT C-terminal AA - standard parameter
   CG2O3    CG311    CG321     HGA2     9     0.000000     0.836800     3 ; PROT alkane update, adm jr., 3/2/92
   CG2O4    CG311    CG321     HGA2     9     0.000000     0.836800     3 ; from CG2O2 CG311 CG321 HGA2, PENALTY= 2 LED
  CG2R53    CG311    CG321    CG2O3     9     0.000000     0.167360     3 ; from CG2R61 CG311 CG321 CG2O3, PENALTY= 8.5 DYG
  CG2R53    CG311    CG321   CG2R51     9     0.000000     0.167360     3 ; from CG2R51 CG321 CG321 CG321, CR8D
  CG2R53    CG311    CG321    CG321     9     0.000000     0.167360     3 ; from CG2R52 CG321 CG321 CG321, PENALTY= 5 CH6
  CG2R53    CG311    CG321    OG311     9     0.000000     0.836800     3 ; from CG2O1 CG311 CG321 OG311, SWG
  CG2R53    CG311    CG321     HGA2     9     0.000000     0.836800     3 ; from CG2R52 CG321 CG321 HGA2, PENALTY= 5 SWG GYS CH6 CR8D DYG
  CG2R61    CG311    CG321    CG2O3     9     0.000000     0.167360     3 ; FBIC(R/S), Fatty Binding Inhibitior C, cacha
  CG2R61    CG311    CG321     HGA2     9     0.000000     0.000000     3 ; Slack parameter from difluorotoluene picked up by FBIC ==> RE-OPTIMIZE !!!
   CG301    CG311    CG321    CG311     9     0.000000     0.836800     3 ; CA, Cholic Acid, cacha, 03/06
   CG301    CG311    CG321    CG321     9     0.000000     0.836800     3 ; DCA, Deoxycholic Acid, cacha, 03/06
   CG301    CG311    CG321     HGA2     9     0.000000     0.815880     3 ; CA, Cholic Acid, cacha, 03/06 reset to default by kevo
   CG302    CG311    CG321     HGA2     9   180.000000     0.193301     3 ; from CG302 CG311 CG331 HGA3, TFLE
   CG311    CG311    CG321    CG2D1     9     0.000000     0.836800     3 ; CHL1, Cholesterol
   CG311    CG311    CG321   CG2R51     9     0.000000     1.464400     3 ; HWG, from hpiz, yxu, RNA
   CG311    CG311    CG321    CG311     9     0.000000     0.836800     3 ; CA, Cholic Acid, reset to default by kevo
   CG311    CG311    CG321    CG321     9     0.000000     0.836800     3 ; CHL1, Cholesterol reset to default by kevo
   CG311    CG311    CG321    CG331     9     0.000000     0.836800     3 ; PROT alkane update, adm jr., 3/2/92
   CG311    CG311    CG321   NG2R61     9     0.000000     0.836800     3 ; flavin
   CG311    CG311    CG321    NG301     9     0.000000     0.836800     3 ; flavin
   CG311    CG311    CG321    OG303     9   180.000000     0.836800     3 ; flavin
   CG311    CG311    CG321    OG311     9   180.000000     0.836800     3 ; flavin
   CG311    CG311    CG321     HGA2     9     0.000000     0.815880     3 ; NA, sugar
   CG314    CG311    CG321   CG2R51     9     0.000000     1.464400     3 ; BUG, from HWG, yxu, RNA
   CG314    CG311    CG321    CG331     9     0.000000     0.836800     3 ; PROT alkane update, adm jr., 3/2/92
   CG314    CG311    CG321     HGA2     9     0.000000     0.815880     3 ; PROT N-terminal AA - standard parameter collided with NA, sugar
   CG321    CG311    CG321    CG2D1     9     0.000000     0.836800     3 ; PROT alkane update, adm jr., 3/2/92
   CG321    CG311    CG321    CG2O1     9     0.000000     0.836800     3 ; from CG2O1 CG311 CG311 CG321, PENALTY= 4 HT7 HMR B3X B3Y B3K B3E
   CG321    CG311    CG321   CG2R51     9     0.000000     0.167360     3 ; from CG2R51 CG321 CG321 CG321, PENALTY= 4 HT7
   CG321    CG311    CG321   CG2R61     9     0.000000     0.167360     3 ; from CG331 CG311 CG321 CG2R61, PENALTY= 0.9 B3Y
   CG321    CG311    CG321    CG301     9     0.000000     0.836800     3 ; from CG321 CG311 CG321 CG311, PENALTY= 1.2 ADAM
   CG321    CG311    CG321    CG311     9     0.000000     0.836800     3 ; PROT alkane update, adm jr., 3/2/92
   CG321    CG311    CG321    CG321     9     0.000000     0.836800     3 ; PROT alkane update, adm jr., 3/2/92
   CG321    CG311    CG321    CG324     9     0.000000     0.836800     3 ; G4MP, Gamma-4-Methyl piperidine Glu Acid CDCA Amide, cacha reset to default by kevo
   CG321    CG311    CG321    CG331     9     0.000000     0.836800     3 ; from CG311 CG311 CG321 CG331, PENALTY= 0.6 DILE
   CG321    CG311    CG321    NG2S1     9     0.000000     0.836800     3 ; G4MP, Gamma-4-Methyl piperidine Glu Acid CDCA Amide, cacha
   CG321    CG311    CG321    OG302     9   180.000000     0.836800     3 ; NA, sugar
   CG321    CG311    CG321    OG303     9   180.000000     0.836800     3 ; NA, sugar
   CG321    CG311    CG321    OG311     9   180.000000     0.836800     3 ; CARBOCY carbocyclic sugars
   CG321    CG311    CG321     HGA2     9     0.000000     0.815880     1 ; NA, sugar
   CG322    CG311    CG321     HGA2     9     0.000000     0.199577     3 ; from CG322 CG311 CG331 HGA3, LEF
   CG324    CG311    CG321    CG321     9     0.000000     0.815880     3 ; FLAVOP PIP1,2,3
   CG324    CG311    CG321    CG324     9     0.000000     0.815880     3 ; from CG314 CG321 CG321 CG324, PENALTY= 4.6 5CT
   CG324    CG311    CG321    NG2S1     9     0.000000     0.836800     3 ; 3MSB, Gamma-3 methyl piperidine, alpha-benzyl GA CDCA amide, cacha
   CG324    CG311    CG321     HGA2     9     0.000000     0.815880     3 ; FLAVOP PIP1,2,3
   CG331    CG311    CG321    CG2O1     9     0.000000     0.836800     3 ; from CG2O1 CG311 CG311 CG331, PENALTY= 4 KHB LMQ B3A
   CG331    CG311    CG321    CG2O3     9     0.000000     0.836800     3 ; FBIC(R/S), Fatty Binding Inhibitior C
   CG331    CG311    CG321   CG2R51     9     0.000000     1.464400     3 ; hpiz, yxu, RNA
   CG331    CG311    CG321   CG2R61     9     0.000000     0.167360     3 ; FBIF, Fatty acid Binding protein Inhibitor F, cacha
   CG331    CG311    CG321    CG311     9     0.000000     0.836800     3 ; PROT alkane update, adm jr., 3/2/92
   CG331    CG311    CG321    CG314     9     0.000000     0.836800     3 ; PROT alkane update, adm jr., 3/2/92
   CG331    CG311    CG321    CG321     9     0.000000     0.836800     3 ; PROT alkane update, adm jr., 3/2/92
   CG331    CG311    CG321    CG331     9     0.000000     0.836800     3 ; PROT alkane update, adm jr., 3/2/92
   CG331    CG311    CG321    NG2S0     9     0.000000     1.464400     3 ; MDU, yxu, RNA
   CG331    CG311    CG321    OG302     9     0.000000     0.836800     3 ; LIPID methyl acetate
   CG331    CG311    CG321    CLGA1     9     0.000000     5.975170     3 ; CTH, by ac_aa
   CG331    CG311    CG321     HGA2     9     0.000000     0.836800     3 ; PROT alkane update, adm jr., 3/2/92
  CG3C51    CG311    CG321    CG321     9     0.000000     0.836800     3 ; CA, Cholic Acid, cacha, 02/08 reset to default by kevo
  CG3C51    CG311    CG321     HGA2     9     0.000000     0.815880     3 ; CA, Cholic Acid, cacha, 02/08
  CG3RC1    CG311    CG321    CG2D1     9     0.000000     0.836800     3 ; CHL1, Cholesterol
  CG3RC1    CG311    CG321    CG311     9     0.000000     0.627600     3 ; CARBOCY carbocyclic sugars
  CG3RC1    CG311    CG321    CG321     9     0.000000     0.627600     3 ; CARBOCY carbocyclic sugars
  CG3RC1    CG311    CG321     HGA2     9     0.000000     0.627600     3 ; CARBOCY carbocyclic sugars
  NG2R53    CG311    CG321    CG2O2     9     0.000000     0.836800     3 ; drug design project, xxwy
  NG2R53    CG311    CG321    CG2O3     9     0.000000     0.836800     3 ; drug design project, xxwy
  NG2R53    CG311    CG321     HGA2     9     0.000000     0.836800     3 ; drug design project, xxwy
   NG2S0    CG311    CG321    CG324     9     0.000000     0.836800     3 ; fentanyl, Lesnik et al, 2020
   NG2S0    CG311    CG321     HGA2     9     0.000000     0.836800     3 ; fentanyl, Lesnik et al, 2020
   NG2S1    CG311    CG321    CG2O1     9     0.000000     0.836800     3 ; PROT alkane update, adm jr., 3/2/92
   NG2S1    CG311    CG321    CG2O3     9     0.000000     0.836800     3 ; PROT alkane update, adm jr., 3/2/92
   NG2S1    CG311    CG321   CG2R51     9     0.000000     0.836800     3 ; PROT alkane update, adm jr., 3/2/92
   NG2S1    CG311    CG321   CG2R61     9     0.000000     0.836800     3 ; PROT alkane update, adm jr., 3/2/92
   NG2S1    CG311    CG321    CG311     9     0.000000     0.836800     3 ; PROT alkane update, adm jr., 3/2/92
   NG2S1    CG311    CG321    CG321     9     0.000000     0.836800     3 ; PROT alkane update, adm jr., 3/2/92
   NG2S1    CG311    CG321    CG324     9     0.000000     0.836800     3 ; G4P, 01OH02
   NG2S1    CG311    CG321    OG311     9     0.000000     0.836800     3 ; PROT alkane update, adm jr., 3/2/92
   NG2S1    CG311    CG321    SG311     9     0.000000     0.836800     3 ; PROT alkane update, adm jr., 3/2/92
   NG2S1    CG311    CG321     HGA2     9     0.000000     0.836800     3 ; PROT alkane update, adm jr., 3/2/92
   NG321    CG311    CG321    CG321     9     0.000000     0.815880     3 ; 5UHA, from NG3P2 CG314 CG321 CG321, cgenff_xyu, yxu, RNA
   NG321    CG311    CG321     HGA2     9     0.000000     0.669440     3 ; 5UHA, from NG311 CG321 CG331 HGA3, yxu, RNA
   OG301    CG311    CG321   CG2R51     9   180.000000     3.347200     1 ; PBG, yxu, RNA
   OG301    CG311    CG321   CG2R51     9   180.000000     0.836800     3 ; PBG, yxu, RNA
   OG301    CG311    CG321    CG321     9   180.000000     0.669440     1 ; pepr, from CG321 CG321 CG321 OG301, not optimized, yxu, RNA
   OG301    CG311    CG321    CG321     9     0.000000     1.631760     2 ; pepr, from CG321 CG321 CG321 OG301, not optimized, yxu, RNA
   OG301    CG311    CG321     HGA2     9     0.000000     0.815880     3 ; PBG, from OG302 CG311 CG321 HGA2, yxu, RNA
   OG302    CG311    CG321    OG302     9     0.000000     0.836800     3 ; PROT alkane update, adm jr., 3/2/92
   OG302    CG311    CG321    OG303     9     0.000000     0.836800     3 ; PROT alkane update, adm jr., 3/2/92
   OG302    CG311    CG321     HGA2     9     0.000000     0.815880     3 ; NA, sugar
   OG311    CG311    CG321    CG2D1     9     0.000000     0.836800     3 ; PROT alkane update, adm jr., 3/2/92
   OG311    CG311    CG321    CG2O1     9     0.000000     0.836800     3 ; from CG2O1 CG311 CG311 OG311, PENALTY= 4 KHB
   OG311    CG311    CG321   CG2R51     9   180.000000     7.531200     1 ; HWG, yxu, RNA
   OG311    CG311    CG321   CG2R51     9     0.000000     1.464400     3 ; HWG, yxu, RNA
   OG311    CG311    CG321    CG311     9   180.000000     8.368000     3 ; NA, sugar
   OG311    CG311    CG321    CG311     9     0.000000     1.673600     5 ; NA, sugar
   OG311    CG311    CG321    CG311     9     0.000000     3.347200     6 ; NA, sugar
   OG311    CG311    CG321    CG314     9   180.000000     2.092000     1 ; HTI.pdb , from OG311 CG311 CG321 CG321, penalty= 17 HTI
   OG311    CG311    CG321    CG314     9     0.000000     2.928800     2 ; HTI.pdb , from OG311 CG311 CG321 CG321, penalty= 17 HTI
   OG311    CG311    CG321    CG314     9     0.000000     1.673600     3 ; HTI.pdb , from OG311 CG311 CG321 CG321, penalty= 17 HTI
   OG311    CG311    CG321    CG314     9     0.000000     1.673600     5 ; HTI.pdb , from OG311 CG311 CG321 CG321, penalty= 17 HTI
   OG311    CG311    CG321    CG321     9   180.000000     2.092000     1 ; NA elevates energy at 0 (c3'endo), adm
   OG311    CG311    CG321    CG321     9     0.000000     2.928800     2 ; NA elevates energy at 0 (c3'endo), adm
   OG311    CG311    CG321    CG321     9     0.000000     1.673600     3 ; NA abasic nucleoside
   OG311    CG311    CG321    CG321     9     0.000000     1.673600     5 ; NA abasic nucleoside
   OG311    CG311    CG321    CG324     9   180.000000     2.092000     1 ; from OG311 CG311 CG321 CG321, PENALTY= 17 5CT
   OG311    CG311    CG321    CG324     9     0.000000     2.928800     2 ; from OG311 CG311 CG321 CG321, PENALTY= 17 5CT
   OG311    CG311    CG321    CG324     9     0.000000     1.673600     3 ; from OG311 CG311 CG321 CG321, PENALTY= 17 5CT
   OG311    CG311    CG321    CG324     9     0.000000     1.673600     5 ; from OG311 CG311 CG321 CG321, PENALTY= 17 5CT
   OG311    CG311    CG321    CG331     9     0.000000     0.585760     3 ; 2BOH, 2-butanol, kevo for gsk/ibm
   OG311    CG311    CG321   NG2R61     9     0.000000     0.836800     3 ; flavin
   OG311    CG311    CG321    NG301     9     0.000000     0.836800     3 ; flavin
   OG311    CG311    CG321   NG3C51     9   180.000000     1.302898     3 ; PR4, by ac_aa
   OG311    CG311    CG321    OG303     9     0.000000     0.836800     3 ; PROT alkane update, adm jr., 3/2/92
   OG311    CG311    CG321    OG311     9     0.000000     0.836800     3 ; PROT alkane update, adm jr., 3/2/92
   OG311    CG311    CG321    CLGA1     9   180.000000     1.476952     2 ; CTH, by ac_aa
   OG311    CG311    CG321    CLGA1     9     0.000000     1.074451     3 ; CTH, by ac_aa
   OG311    CG311    CG321     HGA2     9   180.000000     0.815880     3 ; NA, sugar
  OG3C61    CG311    CG321    CG321     9   180.000000     0.794960     1 ; pepr, from CG321 CG321 CG321 OG3C61, not optimized, yxu, RNA
  OG3C61    CG311    CG321    CG321     9   180.000000     4.184000     2 ; pepr, from CG321 CG321 CG321 OG3C61, not optimized, yxu, RNA
  OG3C61    CG311    CG321    CG321     9     0.000000     2.510400     3 ; pepr, from CG321 CG321 CG321 OG3C61, not optimized, yxu, RNA
  OG3C61    CG311    CG321    CG321     9   180.000000     0.334720     4 ; pepr, from CG321 CG321 CG321 OG3C61, not optimized, yxu, RNA
  OG3C61    CG311    CG321     HGA2     9     0.000000     0.815880     3 ; pepr, from OG3C61 CG321 CG321 HGA2, not optimized, yxu, RNA
   SG311    CG311    CG321    CG2O3     9     0.000000     0.836800     3 ; from CG2O3 CG311 CG321 SG311, penalty= 8 CML
   SG311    CG311    CG321    CG314     9     0.000000     0.815880     3 ; from CG314 CG321 CG321 SG311, PENALTY= 4 HTI
   SG311    CG311    CG321    CG321     9     0.000000     0.815880     3 ; from CG321 CG321 CG321 SG311, PENALTY= 4 LA2
   SG311    CG311    CG321     HGA2     9     0.000000     0.041840     3 ; from SG311 CG321 CG321 HGA2, penalty= 4 CML HTI LA2
    HGA1    CG311    CG321    CG2D1     9     0.000000     0.836800     3 ; PROT alkane update, adm jr., 3/2/92
    HGA1    CG311    CG321    CG2O1     9     0.000000     0.836800     3 ; PROT alkane update, adm jr., 3/2/92
    HGA1    CG311    CG321    CG2O2     9     0.000000     0.836800     3 ; 576P, standard param
    HGA1    CG311    CG321    CG2O3     9     0.000000     0.836800     3 ; PROT alkane update, adm jr., 3/2/92
    HGA1    CG311    CG321   CG2R51     9     0.000000     0.836800     3 ; PROT alkane update, adm jr., 3/2/92
    HGA1    CG311    CG321   CG2R61     9     0.000000     0.167360     3 ; PROT 2.7 kcal/mole CH3 rot in ethylbenzene, adm jr, 3/7/92
    HGA1    CG311    CG321    CG301     9     0.000000     0.815880     3 ; from HGA1 CG311 CG321 CG311, PENALTY= 1.2 ADAM
    HGA1    CG311    CG321    CG311     9     0.000000     0.815880     3 ; NA, sugar
    HGA1    CG311    CG321    CG314     9     0.000000     0.815880     3 ; PROT N-terminal AA - standard parameter collided with NA, sugar
    HGA1    CG311    CG321    CG321     9     0.000000     0.815880     3 ; NA abasic nucleoside
    HGA1    CG311    CG321    CG324     9     0.000000     0.815880     3 ; G4MP, 01OH03, cacha
    HGA1    CG311    CG321    CG331     9     0.000000     0.836800     3 ; PROT alkane update, adm jr., 3/2/92
    HGA1    CG311    CG321   NG2R61     9     0.000000     0.543920     3 ; flavin
    HGA1    CG311    CG321    NG2S0     9     0.000000     1.255200     3 ; MDU, yxu, RNA
    HGA1    CG311    CG321    NG2S1     9     0.000000     0.836800     3 ; G4MP, 01OH03, cacha
    HGA1    CG311    CG321    NG301     9     0.000000     0.753120     3 ; flavin
    HGA1    CG311    CG321   NG3C51     9     0.000000     0.815880     3 ; from NG311 CG321 CG321 HGA2, PENALTY= 7 PR4
    HGA1    CG311    CG321    OG302     9     0.000000     0.815880     3 ; NA, sugar
    HGA1    CG311    CG321    OG303     9     0.000000     0.815880     3 ; NA, sugar
    HGA1    CG311    CG321    OG311     9     0.000000     0.815880     3 ; NA, sugar
    HGA1    CG311    CG321    SG311     9     0.000000     0.815880     3 ; PROTNA sahc
    HGA1    CG311    CG321    CLGA1     9     0.000000     1.222565     3 ; CTH, by ac_aa
    HGA1    CG311    CG321     HGA2     9     0.000000     0.815880     3 ; NA, sugar
   CG321    CG311    CG322     FGA1     9     0.000000     1.045582     3 ; from CG331 CG311 CG322 FGA1, LEF
   CG321    CG311    CG322     HGA6     9     0.000000     1.066502     3 ; from CG331 CG311 CG322 HGA6, LEF
   CG331    CG311    CG322     FGA1     9     0.000000     1.045582     3 ; LEF, by ac_aa
   CG331    CG311    CG322     HGA6     9     0.000000     1.066502     3 ; LEF, by ac_aa
    HGA1    CG311    CG322     FGA1     9     0.000000     0.774040     3 ; LEF, by ac_aa
    HGA1    CG311    CG322     HGA6     9     0.000000     0.774040     3 ; LEF, by ac_aa
   CG321    CG311    CG324    NG2P1     9     0.000000     0.815880     3 ; from CG321 CG321 CG324 NG2P1, PENALTY= 4 ARO
   CG321    CG311    CG324    NG3P1     9     0.000000     0.815880     3 ; FLAVOP PIP1,2,3
   CG321    CG311    CG324    NG3P2     9     0.000000     0.815880     3 ; G3P(R/S), Gamma-3-piperidine Glu Acid CDCA Amide, cacha
   CG321    CG311    CG324    NG3P3     9     0.000000     0.815880     3 ; from CG321 CG311 CG324 NG3P2, PENALTY= 0.9 LYZ
   CG321    CG311    CG324     HGA2     9     0.000000     0.815880     3 ; FLAVOP PIP1,2,3
   CG331    CG311    CG324    NG2P1     9     0.000000     0.815880     3 ; sidechai , from CG321 CG321 CG324 NG2P1, penalty= 4.9 ARO
   CG331    CG311    CG324     HGA2     9     0.000000     0.815880     3 ; sidechai , from CG321 CG311 CG324 HGA2, penalty= 0.9 ARO
   NG2S1    CG311    CG324    NG3P2     9     0.000000     0.815880     3 ; G3P(R/S), Gamma-3-piperidine Glu Acid CDCA Amide, cacha
   NG2S1    CG311    CG324     HGA2     9     0.000000     0.836800     3 ; G3P(R/S), Gamma-3-piperidine Glu Acid CDCA Amide, cacha
   OG311    CG311    CG324    NG2P1     9   180.000000    12.089250     1 ; ARO, by ac_aa
   OG311    CG311    CG324    NG2P1     9     0.000000     4.896535     4 ; ARO, by ac_aa
   OG311    CG311    CG324    NG3P1     9     0.000000     0.815880     3 ; FLAVOP PIP1,2,3
   OG311    CG311    CG324    NG3P2     9     0.000000     0.815880     3 ; from OG311 CG311 CG324 NG3P1, PENALTY= 0.6 5CT
   OG311    CG311    CG324    NG3P3     9     0.000000     0.815880     3 ; from OG311 CG311 CG324 NG3P1, PENALTY= 1.5 LYZ
   OG311    CG311    CG324     HGA2     9     0.000000     0.815880     3 ; FLAVOP PIP1,2,3
    HGA1    CG311    CG324    NG2P1     9     0.000000     0.815880     3 ; from HGA2 CG321 CG324 NG2P1, PENALTY= 4 ARO
    HGA1    CG311    CG324    NG3P1     9     0.000000     0.815880     3 ; FLAVOP PIP1,2,3
    HGA1    CG311    CG324    NG3P2     9     0.000000     0.815880     3 ; G3P(R/S), Gamma-3-piperidine Glu Acid CDCA Amide, cacha
    HGA1    CG311    CG324    NG3P3     9     0.000000     0.815880     3 ; from HGA1 CG311 CG324 NG3P2, PENALTY= 0.9 LYZ
    HGA1    CG311    CG324     HGA2     9     0.000000     0.815880     3 ; FLAVOP PIP1,2,3
   CG2O1    CG311    CG331     HGA3     9     0.000000     0.836800     3 ; PROT alkane update, adm jr., 3/2/92
   CG2O2    CG311    CG331     HGA3     9     0.000000     0.836800     3 ; hpme, from CG2O1 CG311 CG331 HGA3, not optimized, yxu, RNA
   CG2O3    CG311    CG331     HGA3     9     0.000000     0.669440     3 ; PROT rotation barrier in Ethane (SF)
   CG2O4    CG311    CG331     HGA3     9     0.000000     0.836800     3 ; from CG2O1 CG311 CG331 HGA3, PENALTY= 3 LED LVN
  CG2R51    CG311    CG331     HGA3     9     0.000000     0.669440     3 ; from CG2R51 CG321 CG331 HGA3, penalty= 4 HTR
  CG2R53    CG311    CG331     HGA3     9     0.000000     0.669440     3 ; from CG2R53 CG321 CG331 HGA3, PENALTY= 4 MDO PIA
  CG2R61    CG311    CG331     HGA3     9     0.000000     0.167360     3 ; FBIB, Fatty Binding Inhibitior B, cacha
   CG301    CG311    CG331     HGA3     9     0.000000     0.836800     3 ; from CG311 CG311 CG331 HGA3, PENALTY= 1.2 TS9
   CG302    CG311    CG331     HGA3     9   180.000000     0.193301     3 ; TFLE, by ac_aa
   CG311    CG311    CG331     HGA3     9     0.000000     0.836800     3 ; PROT alkane update, adm jr., 3/2/92
   CG314    CG311    CG331     HGA3     9     0.000000     0.836800     3 ; PROT alkane update, adm jr., 3/2/92
   CG321    CG311    CG331     HGA3     9     0.000000     0.836800     3 ; PROT alkane update, adm jr., 3/2/92
   CG322    CG311    CG331     HGA3     9     0.000000     0.199577     3 ; LEF, by ac_aa
   CG324    CG311    CG331     HGA3     9     0.000000     0.836800     3 ; sidechai , from CG314 CG311 CG331 HGA3, penalty= 0.6 ARO
   CG331    CG311    CG331     HGA3     9     0.000000     0.815880     3 ; PROTNA alkanes phospho-ser/thr
  CG3C51    CG311    CG331     HGA3     9     0.000000     0.836800     3 ; BAM1, bile acid steroidal C-D ring, cacha, 02/08
   NG2S0    CG311    CG331     HGA3     9     0.000000     0.836800     3 ; from NG2S1 CG311 CG331 HGA3, PENALTY= 1 MAA
   NG2S1    CG311    CG331     HGA3     9     0.000000     0.836800     3 ; PROT alkane update, adm jr., 3/2/92
   NG321    CG311    CG331     HGA3     9     0.000000     0.669440     3 ; aboh, from NG311 CG321 CG331 HGA3, cgenff_xyu, yxu, RNA
   OG301    CG311    CG331     HGA3     9     0.000000     0.669440     3 ; all34_ethers_1a
   OG302    CG311    CG331     HGA3     9     0.000000     0.836800     3 ; LIPID methyl acetate
   OG303    CG311    CG331     HGA3     9     0.000000     0.815880     3 ; PROTNA phospho-ser/thr phospho-ser/thr
   OG311    CG311    CG331     HGA3     9     0.000000     0.836800     3 ; PROT alkane update, adm jr., 3/2/92
   SG311    CG311    CG331     HGA3     9     0.000000     0.669440     3 ; from SG311 CG321 CG331 HGA3, penalty= 4 0TD HTI LA2
   CLGA1    CG311    CG331     HGA3     9     0.000000     1.046000     3 ; DCLE
   BRGA2    CG311    CG331     HGA3     9     0.000000     1.087840     3 ; DBRE
    HGA1    CG311    CG331     HGA3     9     0.000000     0.815880     3 ; NA, sugar
   CG321    CG311   CG3C51   CG3C52     9   180.000000     2.092000     4 ; CA, Cholic Acid, cacha, 02/08
   CG321    CG311   CG3C51   CG3RC1     9     0.000000     0.627600     3 ; CA, Cholic Acid, cacha, 02/08
   CG321    CG311   CG3C51     HGA1     9     0.000000     0.815880     3 ; CA, Cholic Acid, cacha, 02/08
   CG331    CG311   CG3C51   CG3C52     9     0.000000     1.046000     1 ; BAM1, bile acid steroidal C-D ring, cacha, 02/08
   CG331    CG311   CG3C51   CG3C52     9     0.000000     1.046000     2 ; BAM1, bile acid steroidal C-D ring, cacha, 02/08
   CG331    CG311   CG3C51   CG3C52     9     0.000000     1.882800     3 ; BAM1, bile acid steroidal C-D ring, cacha, 02/08
   CG331    CG311   CG3C51   CG3RC1     9     0.000000     0.836800     3 ; BAM1, bile acid steroidal C-D ring, cacha, 02/08
   CG331    CG311   CG3C51     HGA1     9     0.000000     0.815880     3 ; BAM1, bile acid steroidal C-D ring, cacha, 02/08
    HGA1    CG311   CG3C51   CG3C52     9     0.000000     0.669440     3 ; alkane, 4/98, yin and mackerell, tf2m viv
    HGA1    CG311   CG3C51   CG3RC1     9     0.000000     0.836800     3 ; BAM1, bile acid steroidal C-D ring, cacha, 02/08
    HGA1    CG311   CG3C51     HGA1     9     0.000000     0.669440     3 ; alkane, 4/98, yin and mackerell, tf2m viv
   CG311    CG311   CG3RC1   CG3C52     9     0.000000     0.627600     3 ; CA, Cholic Acid, cacha, 02/08
   CG311    CG311   CG3RC1   CG3RC1     9     0.000000     0.627600     3 ; CARBOCY carbocyclic sugars
   CG311    CG311   CG3RC1     HGA1     9     0.000000     0.627600     3 ; CARBOCY carbocyclic sugars
   CG321    CG311   CG3RC1    CG331     9     0.000000     0.209200     3 ; CA, Cholic Acid, cacha, 02/08
   CG321    CG311   CG3RC1   CG3C51     9     0.000000     0.209200     3 ; CA, Cholic Acid, cacha, 02/08
   CG321    CG311   CG3RC1   CG3C52     9   180.000000     2.092000     4 ; DCA, Deoxycholic Acid, cacha, 02/08
   CG321    CG311   CG3RC1   CG3RC1     9     0.000000     0.627600     3 ; CARBOCY carbocyclic sugars
   CG321    CG311   CG3RC1     HGA1     9     0.000000     0.627600     3 ; CARBOCY carbocyclic sugars
   OG311    CG311   CG3RC1    CG331     9     0.000000     0.661072     3 ; CA, Cholic Acid, cacha, 02/08
   OG311    CG311   CG3RC1   CG3C51     9     0.000000     0.661072     3 ; CA, Cholic Acid, cacha, 02/08
   OG311    CG311   CG3RC1   CG3RC1     9     0.000000     1.882800     2 ; CARBOCY carbocyclic sugars
    HGA1    CG311   CG3RC1    CG331     9     0.000000     0.209200     3 ; CA, Cholic Acid, cacha, 02/08
    HGA1    CG311   CG3RC1   CG3C51     9     0.000000     0.209200     3 ; CA, Cholic Acid, cacha, 02/08
    HGA1    CG311   CG3RC1   CG3C52     9     0.000000     0.815880     3 ; CA, Cholic Acid, cacha, 02/08
    HGA1    CG311   CG3RC1   CG3RC1     9     0.000000     0.627600     3 ; CARBOCY carbocyclic sugars
    HGA1    CG311   CG3RC1     HGA1     9     0.000000     0.627600     3 ; CARBOCY carbocyclic sugars
   CG2O2    CG311   NG2R53   CG2R53     9   180.000000     0.000000     1 ; drug design project, xxwy
   CG2O3    CG311   NG2R53   CG2R53     9   180.000000     0.000000     1 ; drug design project, xxwy
   CG321    CG311   NG2R53   CG2R53     9     0.000000     0.000000     1 ; drug design project, xxwy
    HGA1    CG311   NG2R53   CG2R53     9     0.000000     0.000000     1 ; drug design project, xxwy
   CG2O1    CG311    NG2S0    CG2O1     9   180.000000     0.836800     1 ; from CG2O1 CG311 NG2S1 CG2O1, PENALTY= 10 MAA
   CG2O1    CG311    NG2S0    CG331     9     0.000000     6.473066     1 ; MAA, by ac_aa
   CG2O1    CG311    NG2S0    CG331     9   180.000000     4.879381     2 ; MAA, by ac_aa
   CG321    CG311    NG2S0    CG2O1     9     0.000000     7.531200     1 ; fentanyl, Lesnik et al, 2020
   CG321    CG311    NG2S0   CG2R61     9     0.000000    14.279992     1 ; fentanyl, Lesnik et al, 2020
   CG321    CG311    NG2S0   CG2R61     9     0.000000     3.142184     3 ; fentanyl, Lesnik et al, 2020
   CG331    CG311    NG2S0    CG2O1     9     0.000000     7.531200     1 ; from CG331 CG311 NG2S1 CG2O1, PENALTY= 10 MAA
   CG331    CG311    NG2S0    CG331     9     0.000000    12.808061     1 ; MAA, by ac_aa
   CG331    CG311    NG2S0    CG331     9   180.000000     0.467771     2 ; MAA, by ac_aa
    HGA1    CG311    NG2S0    CG2O1     9     0.000000     0.000000     1 ; fentanyl, Lesnik et al, 2020
    HGA1    CG311    NG2S0   CG2R61     9     0.000000     0.000000     1 ; fentanyl, Lesnik et al, 2020
    HGA1    CG311    NG2S0    CG331     9     0.000000     1.757280     3 ; from HGA3 CG331 NG2S0 CG331, PENALTY= 11, MAA
   CG2O1    CG311    NG2S1    CG2O1     9   180.000000     0.836800     1 ; PROT ala dipeptide, new C VDW Rmin, adm jr., 3/3/93c
   CG2O1    CG311    NG2S1    CG2O3     9   180.000000     0.836800     1 ; from CG2O1 CG311 NG2S1 CG2O1, PENALTY= 7.5 CXM
   CG2O1    CG311    NG2S1     HGP1     9     0.000000     0.000000     1 ; PROT Alanine Dipeptide ab initio calc's (LK)
   CG2O2    CG311    NG2S1    CG2O1     9   180.000000     0.836800     1 ; PROT ala dipeptide, new C VDW Rmin, adm jr., 3/3/93c
   CG2O2    CG311    NG2S1    CG2O6     9   180.000000     0.836800     1 ; HWG, from CG2O2 CG311 NG2S1 CG2O1, yxu, RNA
   CG2O2    CG311    NG2S1     HGP1     9     0.000000     0.000000     1 ; PROT adm jr. 5/02/91, acetic Acid pure solvent
   CG2O3    CG311    NG2S1    CG2O1     9   180.000000     0.836800     1 ; PROT ala dipeptide, new C VDW Rmin, adm jr., 3/3/93c
   CG2O3    CG311    NG2S1    CG2O6     9   180.000000     0.836800     1 ; HNA, from CG2O3 CG311 NG2S1 CG2O1, yxu, RNA
   CG2O3    CG311    NG2S1     HGP1     9     0.000000     0.000000     1 ; PROT adm jr. 4/05/91, for asn,asp,gln,glu and cters
   CG2O4    CG311    NG2S1    CG2O1     9   180.000000     0.836800     1 ; amba, from CG2O2 CG311 NG2S1 CG2O1, not optimized, yxu, RNA
   CG2O4    CG311    NG2S1     HGP1     9     0.000000     0.000000     1 ; amba, from CG2O2 CG311 NG2S1 HGP1, not optimized, yxu, RNA
  CG2R53    CG311    NG2S1    CG2O1     9     0.000000     1.962714     1 ; MDO, by ac_aa
  CG2R53    CG311    NG2S1    CG2O1     9     0.000000     0.057739     2 ; MDO, by ac_aa
  CG2R53    CG311    NG2S1    CG2O1     9   180.000000     0.006276     3 ; MDO, by ac_aa
  CG2R53    CG311    NG2S1    CG2O1     9     0.000000     0.029288     4 ; MDO, by ac_aa
  CG2R53    CG311    NG2S1    CG2O1     9     0.000000     1.196624     6 ; MDO, by ac_aa
  CG2R53    CG311    NG2S1     HGP1     9     0.000000     6.448799     1 ; MDO, by ac_aa
   CG311    CG311    NG2S1    CG2O1     9     0.000000     7.531200     1 ; PROT ala dipeptide, new C VDW Rmin, adm jr., 3/3/93c
   CG311    CG311    NG2S1    CG2O6     9     0.000000     7.531200     1 ; HNA, from CG311 CG311 NG2S1 CG2O1, yxu, RNA
   CG311    CG311    NG2S1     HGP1     9     0.000000     0.000000     1 ; PROT Alanine Dipeptide ab initio calc's (LK)
   CG321    CG311    NG2S1    CG2O1     9     0.000000     7.531200     1 ; PROT ala dipeptide, new C VDW Rmin, adm jr., 3/3/93c
   CG321    CG311    NG2S1    CG2O3     9     0.000000     7.531200     1 ; from CG321 CG311 NG2S1 CG2O1, PENALTY= 7.5 CXM
   CG321    CG311    NG2S1    CG2O6     9     0.000000     7.531200     1 ; WBG, from CG321 CG311 NG2S1 CG2O1, yxu, RNA
   CG321    CG311    NG2S1     HGP1     9     0.000000     0.000000     1 ; PROT Alanine Dipeptide ab initio calc's (LK)
   CG324    CG311    NG2S1    CG2O1     9     0.000000     7.531200     1 ; G3P(R/S), Gamma-3-piperidine Glu Acid CDCA Amide, cacha
   CG324    CG311    NG2S1     HGP1     9     0.000000     0.000000     1 ; G3P(R/S), Gamma-3-piperidine Glu Acid CDCA Amide, cacha
   CG331    CG311    NG2S1    CG2O1     9     0.000000     7.531200     1 ; PROT ala dipeptide, new C VDW Rmin, adm jr., 3/3/93c
   CG331    CG311    NG2S1    CG2O3     9     0.000000     7.531200     1 ; from CG331 CG311 NG2S1 CG2O1, PENALTY= 7.5 CXM
   CG331    CG311    NG2S1     HGP1     9     0.000000     0.000000     1 ; PROT Alanine Dipeptide ab initio calc's (LK)
    HGA1    CG311    NG2S1    CG2O1     9     0.000000     0.000000     1 ; PROT Alanine Dipeptide ab initio calc's (LK)
    HGA1    CG311    NG2S1    CG2O3     9     0.000000     0.000000     1 ; from HGA1 CG311 NG2S1 CG2O1, PENALTY= 7.5 CXM
    HGA1    CG311    NG2S1    CG2O6     9     0.000000     0.000000     1 ; HNA, from HGA1 CG311 NG2S1 CG2O1, yxu, RNA
    HGA1    CG311    NG2S1     HGP1     9     0.000000     0.000000     1 ; PROT Alanine Dipeptide ab initio calc's (LK)
   CG2O2    CG311    NG321   HGPAM2     9     0.000000     0.669440     3 ; 5UHA, from CG2O2 CG321 NG321 HGPAM2, yxu, RNA
   CG311    CG311    NG321   HGPAM2     9   180.000000     2.092000     1 ; BUGn, yxu, RNA
   CG311    CG311    NG321   HGPAM2     9     0.000000     1.673600     3 ; BUGn, yxu, RNA
   CG321    CG311    NG321   HGPAM2     9     0.000000     1.673600     3 ; 5UHA, from aboh, yxu, RNA
   CG331    CG311    NG321   HGPAM2     9     0.000000     2.092000     1 ; aboh, cgenff_xyu, yxu, RNA
   CG331    CG311    NG321   HGPAM2     9     0.000000     1.673600     3 ; aboh, cgenff_xyu, yxu, RNA
    HGA1    CG311    NG321   HGPAM2     9     0.000000     0.041840     3 ; 5UHA, from HGA2   CG321  NG321  HGPAM2, cgenff_xyu, yxu, RNA
   CG2O3    CG311    OG301    CG331     9     0.000000     0.836800     3 ; og/sng thp CG321C CG321C OG3C6M CG321C
   CG311    CG311    OG301    CG331     9     0.000000     1.673600     1 ; amba, from CG331 CG311 OG301 CG331, not optimized, yxu, RNA
   CG311    CG311    OG301    CG331     9     0.000000     2.050160     3 ; amba, from CG331 CG311 OG301 CG331, not optimized, yxu, RNA
   CG311    CG311    OG301    OG311     9   180.000000     4.602400     1 ; PBG, from ppox, yxu, RNA
   CG311    CG311    OG301    OG311     9     0.000000     2.092000     3 ; PBG, from ppox, yxu, RNA
   CG321    CG311    OG301   CG3C51     9     0.000000     1.882800     3 ; pepr, yxu, RNA
   CG321    CG311    OG301    OG311     9   180.000000     4.602400     1 ; PBG, yxu, RNA
   CG321    CG311    OG301    OG311     9     0.000000     2.092000     3 ; PBG, yxu, RNA
   CG331    CG311    OG301    CG331     9     0.000000     1.673600     1 ; all34_ethers_1a og/gk (not affected by mistake)
   CG331    CG311    OG301    CG331     9     0.000000     2.050160     3 ; " CC33A CC32A OC30A CC33A og/gk (not affected by mistake)
   CG331    CG311    OG301    OG311     9   180.000000     4.602400     1 ; ppox, yxu, RNA
   CG331    CG311    OG301    OG311     9     0.000000     2.092000     3 ; ppox, yxu, RNA
  OG3C61    CG311    OG301   CG3C51     9     0.000000     3.430880     1 ; pepr, yxu, RNA
  OG3C61    CG311    OG301   CG3C51     9     0.000000     3.389040     2 ; pepr, yxu, RNA
  OG3C61    CG311    OG301   CG3C51     9     0.000000     1.464400     3 ; pepr, yxu, RNA
    HGA1    CG311    OG301    CG331     9     0.000000     1.188256     3 ; all34_ethers_1a og/gk (not affected by mistake)
    HGA1    CG311    OG301   CG3C51     9     0.000000     1.464400     3 ; pepr, yxu, RNA
    HGA1    CG311    OG301    OG311     9     0.000000     0.836800     3 ; PBG, yxu, RNA
   CG2O3    CG311    OG302    CG2O2     9     0.000000     4.738380     3 ; ASL, by ac_aa
   CG321    CG311    OG302    CG2O2     9   180.000000     2.928800     1 ; LIPID ethyl acetate, 12/92
   CG331    CG311    OG302    CG2O2     9     0.000000     0.000000     3 ; LIPID methyl acetate
    HGA1    CG311    OG302    CG2O2     9     0.000000     0.000000     3 ; LIPID phosphate, new NA, 4/98, adm jr.
   CG331    CG311    OG303      PG0     9   180.000000     1.673600     1 ; from CG331 CG311 OG303 PG2, PENALTY= 3 SGB SVY
   CG331    CG311    OG303      PG0     9     0.000000     1.255200     2 ; from CG331 CG311 OG303 PG2, PENALTY= 3 SGB SVY
   CG331    CG311    OG303      PG0     9     0.000000     0.418400     3 ; from CG331 CG311 OG303 PG2, PENALTY= 3 SGB SVY
   CG331    CG311    OG303      PG2     9   180.000000     1.673600     1 ; IP_2 phospho-ser/thr
   CG331    CG311    OG303      PG2     9     0.000000     1.255200     2 ; IP_2 phospho-ser/thr
   CG331    CG311    OG303      PG2     9     0.000000     0.418400     3 ; IP_2 phospho-ser/thr
   CG331    CG311    OG303    SG3O1     9     0.000000     0.000000     3 ; from CG321 CG321 OG303 SG3O1, penalty= 4.9 ALS
   OG311    CG311    OG303    SG3O1     9   180.000000     2.714579     1 ; ALS, by ac_aa
   OG311    CG311    OG303    SG3O1     9     0.000000     5.367235     2 ; ALS, by ac_aa
   OG311    CG311    OG303    SG3O1     9     0.000000     1.473605     3 ; ALS, by ac_aa
    HGA1    CG311    OG303      PG0     9     0.000000     0.000000     3 ; from HGA1 CG311 OG303 PG2, PENALTY= 3 SGB SVY
    HGA1    CG311    OG303      PG2     9     0.000000     0.000000     3 ; IP_2 phospho-ser/thr
    HGA1    CG311    OG303    SG3O1     9     0.000000     0.000000     3 ; from HGA2 CG321 OG303 SG3O1, penalty= 4 ALS
   CG2O1    CG311    OG311     HGP1     9     0.000000     1.464400     1 ; from CG2O5 CG311 OG311 HGP1, PENALTY= 3 4HH AHB GHG
   CG2O1    CG311    OG311     HGP1     9     0.000000     1.548080     2 ; from CG2O5 CG311 OG311 HGP1, PENALTY= 3 4HH AHB GHG
   CG2O1    CG311    OG311     HGP1     9   180.000000     0.041840     3 ; from CG2O5 CG311 OG311 HGP1, PENALTY= 3 4HH AHB GHG
   CG2O2    CG311    OG311     HGP1     9   180.000000     3.556400     1 ; CMU (hpme), yxu, RNA
   CG2O2    CG311    OG311     HGP1     9   180.000000     1.589920     2 ; CMU (hpme), yxu, RNA
   CG2O2    CG311    OG311     HGP1     9     0.000000     1.464400     3 ; CMU (hpme), yxu, RNA
   CG2O3    CG311    OG311     HGP1     9     0.000000     1.255200     1 ; HCU, yxu, 17/4,13, RNA
   CG2O3    CG311    OG311     HGP1     9   180.000000     1.255200     2 ; HCU, yxu, 17/4,13, RNA
   CG2O3    CG311    OG311     HGP1     9     0.000000     1.673600     3 ; HCU, yxu, 17/4,13, RNA
   CG2O5    CG311    OG311     HGP1     9     0.000000     1.464400     1 ; BIPHENYL re-initialized from CC2O3 CC312 OC311 HCP1 ! erh ketone, n=6 polyol
   CG2O5    CG311    OG311     HGP1     9     0.000000     1.548080     2 ; BIPHENYL re-initialized from CC2O3 CC312 OC311 HCP1 ! erh ketone, n=6 polyol
   CG2O5    CG311    OG311     HGP1     9   180.000000     0.041840     3 ; BIPHENYL re-initialized from CC2O3 CC312 OC311 HCP1 ! erh ketone, n=6 polyol with compensation for HCA1  CC311 OC311M HCP1 0.18 --> HGA1 CG311 OG311 HGP1 0.00 kevo ==> re-evaluate?
  CG2R51    CG311    OG311     HGP1     9     0.000000     5.119961     1 ; HTR, by ac_aa
  CG2R51    CG311    OG311     HGP1     9     0.000000     2.459355     2 ; HTR, by ac_aa
  CG2R51    CG311    OG311     HGP1     9     0.000000     2.493246     3 ; HTR, by ac_aa
  CG2R61    CG311    OG311     HGP1     9     0.000000     4.518720     1 ; bzhe, yxu, RNA
  CG2R61    CG311    OG311     HGP1     9     0.000000     2.259360     2 ; bzhe, yxu, RNA
  CG2R61    CG311    OG311     HGP1     9     0.000000     3.221680     3 ; bzhe, yxu, RNA
  CG2R62    CG311    OG311     HGP1     9     0.000000     4.518720     1 ; CMU, from bzhe, yxu, RNA
  CG2R62    CG311    OG311     HGP1     9     0.000000     2.259360     2 ; CMU, from bzhe, yxu, RNA
  CG2R62    CG311    OG311     HGP1     9     0.000000     3.221680     3 ; CMU, from bzhe, yxu, RNA
   CG301    CG311    OG311     HGP1     9     0.000000     5.564720     1 ; from CG311 CG311 OG311 HGP1, PENALTY= 1.2 4HH LYX TS9
   CG301    CG311    OG311     HGP1     9     0.000000     0.753120     2 ; from CG311 CG311 OG311 HGP1, PENALTY= 1.2 4HH LYX TS9
   CG301    CG311    OG311     HGP1     9     0.000000     1.924640     3 ; from CG311 CG311 OG311 HGP1, PENALTY= 1.2 4HH LYX TS9
   CG311    CG311    OG311     HGP1     9     0.000000     5.564720     1 ; PROT PRO2, 2-propanol OH hf/torsional surface, adm jr., 3/2/93
   CG311    CG311    OG311     HGP1     9     0.000000     0.753120     2 ; PROT PRO2, 2-propanol OH hf/torsional surface, adm jr., 3/2/93
   CG311    CG311    OG311     HGP1     9     0.000000     1.924640     3 ; PROT PRO2, 2-propanol OH hf/torsional surface, adm jr., 3/2/93 ! compensated for X CG311 OG311 X 0.14 --> HGA1 CG311 OG311 HGP1 0.00 kevo ==> re-optimize?
   CG314    CG311    OG311     HGP1     9     0.000000     2.092000     1 ; BUG, from CG324 CG311 OG311 HGP1,, yxu, RNA
   CG314    CG311    OG311     HGP1     9     0.000000     2.928800     2 ; BUG, from CG324 CG311 OG311 HGP1,, yxu, RNA
   CG321    CG311    OG311     HGP1     9     0.000000     1.255200     1 ; CARBOCY carbocyclic sugars
   CG321    CG311    OG311     HGP1     9     0.000000     1.255200     3 ; CHOLEST cholesterol
   CG324    CG311    OG311     HGP1     9     0.000000     2.092000     1 ; FLAVOP PIP3
   CG324    CG311    OG311     HGP1     9     0.000000     2.928800     2 ; FLAVOP PIP3
   CG331    CG311    OG311     HGP1     9     0.000000     5.564720     1 ; PROT PRO2, 2-propanol OH hf/torsional surface, adm jr., 3/2/93
   CG331    CG311    OG311     HGP1     9     0.000000     0.753120     2 ; PROT PRO2, 2-propanol OH hf/torsional surface, adm jr., 3/2/93
   CG331    CG311    OG311     HGP1     9     0.000000     1.924640     3 ; PROT PRO2, 2-propanol OH hf/torsional surface, adm jr., 3/2/93 ! compensated for X CG311 OG311 X 0.14 --> HGA1 CG311 OG311 HGP1 0.00 kevo ==> re-optimize?
  CG3RC1    CG311    OG311     HGP1     9     0.000000     6.276000     1 ; CARBOCY carbocyclic sugars
  CG3RC1    CG311    OG311     HGP1     9   180.000000     1.255200     2 ; CARBOCY carbocyclic sugars
  CG3RC1    CG311    OG311     HGP1     9     0.000000     2.092000     3 ; CARBOCY carbocyclic sugars
   OG303    CG311    OG311     HGP1     9     0.000000     9.400611     2 ; ALS, by ac_aa
   OG303    CG311    OG311     HGP1     9     0.000000     2.680689     3 ; ALS, by ac_aa
   OG311    CG311    OG311     HGP1     9     0.000000     7.673038     1 ; DDZ, by ac_aa
   OG311    CG311    OG311     HGP1     9     0.000000     4.413702     2 ; DDZ, by ac_aa
   OG311    CG311    OG311     HGP1     9     0.000000     1.163570     3 ; DDZ, by ac_aa
   OG312    CG311    OG311     HGP1     9     0.000000     1.171520     3 ; PROT EMB  11/21/89 methanol vib fit ! compensated for X CG311 OG311 X 0.14 --> HGA1 CG311 OG311 HGP1 0.00 kevo ==> re-optimize?
   SG311    CG311    OG311     HGP1     9     0.000000     5.151759     1 ; HTI, by ac_aa
   SG311    CG311    OG311     HGP1     9     0.000000     3.828360     3 ; HTI, by ac_aa
    HGA1    CG311    OG311     HGP1     9     0.000000     0.000000     3 ; NA backbone. PRO2 not properly optimized in new carbohydrate FF ==> unmodified.
   CG321    CG311   OG3C61    CG321     9   180.000000     2.217520     1 ; pepr, from CG321 CG321 OG3C61 CG321, not optimized, yxu, RNA
   CG321    CG311   OG3C61    CG321     9     0.000000     2.845120     2 ; pepr, from CG321 CG321 OG3C61 CG321, not optimized, yxu, RNA
   CG321    CG311   OG3C61    CG321     9   180.000000     0.878640     3 ; pepr, from CG321 CG321 OG3C61 CG321, not optimized, yxu, RNA
   CG321    CG311   OG3C61    CG321     9     0.000000     0.627600     4 ; pepr, from CG321 CG321 OG3C61 CG321, not optimized, yxu, RNA
   OG301    CG311   OG3C61    CG321     9     0.000000     0.836800     3 ; pepr, from Carb36, RNA
    HGA1    CG311   OG3C61    CG321     9     0.000000     0.815880     3 ; pepr, from HGA2 CG321 OG3C61 CG321, not optimized, yxu, RNA
   CG2O1    CG311    SG311    CG321     9   180.000000     6.618251     1 ; FROM CG331 SG311 CG311 CG2O1, LYX
   CG2O1    CG311    SG311    CG321     9     0.000000     2.845538     3 ; FROM CG331 SG311 CG311 CG2O1, LYX
   CG2O1    CG311    SG311    CG331     9   180.000000     6.618251     1 ; LYX, by ac_aa
   CG2O1    CG311    SG311    CG331     9     0.000000     2.845538     3 ; LYX, by ac_aa
   CG2O3    CG311    SG311    CG321     9   180.000000     8.062986     1 ; CGV, by ac_aa
   CG2O3    CG311    SG311    CG321     9   180.000000     5.373511     2 ; CGV, by ac_aa
   CG2O3    CG311    SG311    CG321     9     0.000000    10.384270     3 ; CGV, by ac_aa
   CG2O3    CG311    SG311    CG331     9   180.000000     9.548725     1 ; 0TD, by ac_aa
   CG2O3    CG311    SG311    CG331     9   180.000000     2.520860     2 ; 0TD, by ac_aa
   CG2O3    CG311    SG311    CG331     9     0.000000     1.214197     3 ; 0TD, by ac_aa
   CG2O3    CG311    SG311    CG331     9   180.000000     0.893284     4 ; 0TD, by ac_aa
   CG321    CG311    SG311    CG321     9   180.000000     1.004160     1 ; from CG321 CG321 SG311 CG321, penalty= 4 CML HTI
   CG321    CG311    SG311    CG321     9     0.000000     1.548080     3 ; from CG321 CG321 SG311 CG321, penalty= 4 CML HTI
   CG321    CG311    SG311     HGP3     9     0.000000     1.004160     1 ; from CG321 CG321 SG311 HGP3, PENALTY= 4 LA2
   CG321    CG311    SG311     HGP3     9     0.000000     0.627600     2 ; from CG321 CG321 SG311 HGP3, PENALTY= 4 LA2
   CG321    CG311    SG311     HGP3     9     0.000000     1.129680     3 ; from CG321 CG321 SG311 HGP3, PENALTY= 4 LA2
   CG331    CG311    SG311    CG321     9   180.000000     1.004160     1 ; from CG331 CG321 SG311 CG331, PENALTY= 4.9 LYX
   CG331    CG311    SG311    CG321     9     0.000000     1.548080     3 ; from CG331 CG321 SG311 CG331, PENALTY= 4.9 LYX
   CG331    CG311    SG311    CG331     9   180.000000     1.004160     1 ; from CG331 CG321 SG311 CG331, penalty= 4 0TD HTI
   CG331    CG311    SG311    CG331     9     0.000000     1.548080     3 ; from CG331 CG321 SG311 CG331, penalty= 4 0TD HTI
   CG331    CG311    SG311     HGP3     9     0.000000     1.004160     1 ; from CG331 CG321 SG311 HGP3, penalty= 4 LA2
   CG331    CG311    SG311     HGP3     9     0.000000     0.627600     2 ; from CG331 CG321 SG311 HGP3, penalty= 4 LA2
   CG331    CG311    SG311     HGP3     9     0.000000     1.129680     3 ; from CG331 CG321 SG311 HGP3, penalty= 4 LA2
   OG311    CG311    SG311    CG321     9   180.000000     1.966898     1 ; CGV, by ac_aa
   OG311    CG311    SG311    CG321     9   180.000000     1.479881     2 ; CGV, by ac_aa
   OG311    CG311    SG311    CG321     9   180.000000     7.115310     3 ; CGV, by ac_aa
   OG311    CG311    SG311    CG331     9   180.000000     2.623786     1 ; HTI, by ac_aa
   OG311    CG311    SG311    CG331     9     0.000000     5.818270     3 ; HTI, by ac_aa
    HGA1    CG311    SG311    CG321     9     0.000000     1.171520     3 ; from HGA2 CG321 SG311 CG321, penalty= 4 CGV CML HTI
    HGA1    CG311    SG311    CG331     9     0.000000     1.171520     3 ; from HGA2 CG321 SG311 CG331, penalty= 4 0TD HTI
    HGA1    CG311    SG311     HGP3     9     0.000000     0.836800     3 ; from HGA2 CG321 SG311 HGP3, PENALTY= 4 LA2
    FGA2    CG312    CG321    CG331     9   180.000000     3.196576     1 ; OBF, by ac_aa
    FGA2    CG312    CG321    CG331     9     0.000000     1.356871     3 ; OBF, by ac_aa
    FGA2    CG312    CG321     HGA2     9     0.000000     0.744752     3 ; from FGA2 CG312 CG331 HGA3, PENALTY= 6 OBF
    HGA7    CG312    CG321    CG331     9     0.000000     0.753120     3 ; OBF, by ac_aa
    HGA7    CG312    CG321     HGA2     9     0.000000     0.744752     3 ; from HGA7 CG312 CG331 HGA3, PENALTY= 6 OBF
    FGA2    CG312    CG331     HGA3     9     0.000000     0.744752     3 ; FLUROALK fluoro_alkanes
    HGA7    CG312    CG331     HGA3     9     0.000000     0.744752     3 ; FLUROALK fluoro_alkanes
  CG2R61    CG312      PG1    OG2P1     9     0.000000     0.000000     3 ; BDFP, Difuorobenzylphosphonate \ re-optimize?
  CG2R61    CG312      PG1    OG311     9     0.000000     0.418400     2 ; BDFP, BDFD, Difuorobenzylphosphonate
  CG2R61    CG312      PG1    OG311     9     0.000000     1.673600     3 ; BDFP, BDFD, Difuorobenzylphosphonate
    FGA2    CG312      PG1    OG2P1     9     0.000000     0.000000     3 ; BDFP, Difuorobenzylphosphonate \ re-optimize?
    FGA2    CG312      PG1    OG311     9     0.000000     0.418400     3 ; BDFP, BDFD, Difuorobenzylphosphonate
  CG2R61    CG312      PG2    OG2P1     9     0.000000     0.000000     3 ; BDFD, Difuorobenzylphosphonate / re-optimize?
    FGA2    CG312      PG2    OG2P1     9     0.000000     0.000000     3 ; BDFD, Difuorobenzylphosphonate / re-optimize?
    FGA2    CG312    SG311    CG321     9     0.000000     2.777339     1 ; 2FM, by ac_aa
    FGA2    CG312    SG311    CG321     9     0.000000     1.466074     2 ; 2FM, by ac_aa
    FGA2    CG312    SG311    CG321     9     0.000000     1.850165     3 ; 2FM, by ac_aa
    HGA7    CG312    SG311    CG321     9     0.000000     0.289951     3 ; 2FM, by ac_aa
   CG2O1    CG314    CG321    CG2O1     9     0.000000     0.836800     3 ; PROT alkane update, adm jr., 3/2/92
   CG2O1    CG314    CG321    CG2O3     9     0.000000     0.836800     3 ; PROT alkane update, adm jr., 3/2/92
   CG2O1    CG314    CG321   CG2R51     9     0.000000     0.836800     3 ; PROT alkane update, adm jr., 3/2/92
   CG2O1    CG314    CG321   CG2R61     9     0.000000     0.167360     3 ; PROT 2.7 kcal/mole CH3 rot in ethylbenzene, adm jr, 3/7/92
   CG2O1    CG314    CG321    CG311     9     0.000000     0.836800     3 ; PROT alkane update, adm jr., 3/2/92
   CG2O1    CG314    CG321    CG321     9     0.000000     0.836800     3 ; PROT alkane update, adm jr., 3/2/92
   CG2O1    CG314    CG321    OG311     9     0.000000     0.836800     3 ; PROT alkane update, adm jr., 3/2/92
   CG2O1    CG314    CG321    SG301     9     0.000000     0.836800     3 ; deleteme DELETEME (we want to use wildcarting)
   CG2O1    CG314    CG321    SG311     9     0.000000     0.836800     3 ; PROT N-terminal AA - standard parameter
   CG2O1    CG314    CG321     HGA2     9     0.000000     0.836800     3 ; PROT alkane update, adm jr., 3/2/92
   CG2O3    CG314    CG321    CG2O1     9     0.000000     0.836800     3 ; PROT alkane update, adm jr., 3/2/92
   CG2O3    CG314    CG321    CG2O3     9     0.000000     0.836800     3 ; PROT alkane update, adm jr., 3/2/92
   CG2O3    CG314    CG321   CG2R51     9     0.000000     0.836800     3 ; PROT alkane update, adm jr., 3/2/92
   CG2O3    CG314    CG321   CG2R61     9     0.000000     0.167360     3 ; PROT 2.7 kcal/mole CH3 rot in ethylbenzene, adm jr, 3/7/92
   CG2O3    CG314    CG321    CG311     9     0.000000     0.836800     3 ; PROT alkane update, adm jr., 3/2/92
   CG2O3    CG314    CG321    CG321     9     0.000000     0.836800     3 ; PROT alkane update, adm jr., 3/2/92
   CG2O3    CG314    CG321    OG311     9     0.000000     0.836800     3 ; PROT alkane update, adm jr., 3/2/92
   CG2O3    CG314    CG321    SG311     9     0.000000     0.836800     3 ; PROT alkane update, adm jr., 3/2/92
   CG2O3    CG314    CG321    CLGA1     9   180.000000     0.948094     1 ; C2N, by ac_aa
   CG2O3    CG314    CG321    CLGA1     9     0.000000     0.557727     3 ; C2N, by ac_aa
   CG2O3    CG314    CG321     HGA2     9     0.000000     0.836800     3 ; PROT alkane update, adm jr., 3/2/92
   CG321    CG314    CG321    CG321     9     0.000000     0.836800     3 ; 3MRB,Gamma-3 methyl piperidine, alpha-benzyl GA CDCA amide, cacha
   CG321    CG314    CG321    NG2S1     9     0.000000     0.836800     3 ; 3MRB, Gamma-3 methyl piperidine, alpha-benzyl GA CDCA amide, cacha
   CG321    CG314    CG321     HGA2     9     0.000000     0.815880     3 ; 3MRB,Gamma-3 methyl piperidine, alpha-benzyl GA CDCA amide, cacha reset to default by kevo
   CG331    CG314    CG321    CG321     9     0.000000     0.836800     3 ; from CG321 CG314 CG321 CG321, PENALTY= 0.9 AGM
   CG331    CG314    CG321    CG331     9     0.000000     0.836800     3 ; sidechai , from CG331 CG311 CG321 CG331, penalty= 1 AGM
   CG331    CG314    CG321     HGA2     9     0.000000     0.815880     3 ; from CG321 CG314 CG321 HGA2, PENALTY= 0.9 AGM
   NG2P1    CG314    CG321    CG321     9     0.000000     0.815880     3 ; from CG321 CG321 CG324 NG2P1, PENALTY= 4 AGM
   NG2P1    CG314    CG321    CG331     9     0.000000     0.815880     3 ; sidechai , from CG321 CG321 CG324 NG2P1, penalty= 4.9 AGM
   NG2P1    CG314    CG321     HGA2     9     0.000000     0.815880     3 ; from HGA2 CG321 CG324 NG2P1, PENALTY= 4 AGM
   NG3P0    CG314    CG321    CG321     9     0.000000     0.815880     3 ; from NG3P2 CG314 CG321 CG321, PENALTY= 1.8 DDE DDEP
   NG3P0    CG314    CG321     HGA2     9     0.000000     0.815880     3 ; from NG3P2 CG314 CG321 HGA2, PENALTY= 1.8 DDE DDEP
   NG3P2    CG314    CG321    CG321     9     0.000000     0.815880     3 ; 3MRB, Gamma-3 methyl piperidine, alpha-benzyl GA CDCA amide, cacha
   NG3P2    CG314    CG321    NG2S1     9     0.000000     0.815880     3 ; 3MRB, Gamma-3 methyl piperidine, alpha-benzyl GA CDCA amide, cacha
   NG3P2    CG314    CG321     HGA2     9     0.000000     0.815880     3 ; 3MRB, Gamma-3 methyl piperidine, alpha-benzyl GA CDCA amide, cacha
   NG3P3    CG314    CG321    CG2O1     9     0.000000     0.836800     3 ; PROT alkane update, adm jr., 3/2/92
   NG3P3    CG314    CG321    CG2O3     9     0.000000     0.836800     3 ; PROT alkane update, adm jr., 3/2/92
   NG3P3    CG314    CG321   CG2R51     9     0.000000     0.836800     3 ; PROT alkane update, adm jr., 3/2/92
   NG3P3    CG314    CG321   CG2R61     9     0.000000     0.836800     3 ; PROT alkane update, adm jr., 3/2/92
   NG3P3    CG314    CG321    CG311     9     0.000000     0.836800     3 ; PROT alkane update, adm jr., 3/2/92
   NG3P3    CG314    CG321    CG321     9     0.000000     0.836800     3 ; PROT alkane update, adm jr., 3/2/92
   NG3P3    CG314    CG321    OG311     9     0.000000     0.836800     3 ; PROT alkane update, adm jr., 3/2/92
   NG3P3    CG314    CG321    SG311     9     0.000000     0.836800     3 ; PROT N-terminal AA - standard parameter
   NG3P3    CG314    CG321    CLGA1     9     0.000000     0.425513     3 ; C2N, by ac_aa
   NG3P3    CG314    CG321     HGA2     9     0.000000     0.836800     3 ; PROT alkane update, adm jr., 3/2/92
    HGA1    CG314    CG321    CG2O1     9     0.000000     0.836800     3 ; PROT alkane update, adm jr., 3/2/92
    HGA1    CG314    CG321    CG2O3     9     0.000000     0.836800     3 ; PROT alkane update, adm jr., 3/2/92
    HGA1    CG314    CG321   CG2R51     9     0.000000     0.836800     3 ; PROT alkane update, adm jr., 3/2/92
    HGA1    CG314    CG321   CG2R61     9     0.000000     0.167360     3 ; PROT 2.7 kcal/mole CH3 rot in ethylbenzene, adm jr, 3/7/92
    HGA1    CG314    CG321    CG311     9     0.000000     0.815880     3 ; PROT N-terminal AA - standard parameter collided with NA, sugar
    HGA1    CG314    CG321    CG321     9     0.000000     0.815880     3 ; NA abasic nucleoside
    HGA1    CG314    CG321    CG331     9     0.000000     0.815880     3 ; sidechai , from HGA1 CG314 CG321 CG321, penalty= 0.9 AGM
    HGA1    CG314    CG321    NG2S1     9     0.000000     0.836800     3 ; 3MRB, Gamma-3 methyl piperidine, alpha-benzyl GA CDCA amide, cacha
    HGA1    CG314    CG321    OG311     9     0.000000     0.815880     3 ; PROT N-terminal AA - standard parameter collided with NA, sugar
    HGA1    CG314    CG321    SG311     9     0.000000     0.815880     3 ; PROT N-terminal AA - standard parameter collided with PROTNA sahc
    HGA1    CG314    CG321    CLGA1     9     0.000000     2.079448     3 ; C2N, by ac_aa
    HGA1    CG314    CG321     HGA2     9     0.000000     0.815880     3 ; NA, sugar
    HGP5    CG314    CG321    CG321     9     0.000000     0.815880     3 ; from HGA1 CG314 CG321 CG321, PENALTY= 13, DDE
    HGP5    CG314    CG321     HGA2     9     0.000000     0.815880     3 ; from HGA2 CG321 CG324 HGP5, PENALTY= 4 DDE DDEP
   CG2O1    CG314    CG331     HGA3     9     0.000000     0.836800     3 ; PROT alkane update, adm jr., 3/2/92
   CG2O3    CG314    CG331     HGA3     9     0.000000     0.669440     3 ; PROT rotation barrier in Ethane (SF)
   CG321    CG314    CG331     HGA3     9     0.000000     0.836800     3 ; from CG321 CG311 CG331 HGA3, PENALTY= 1 AGM
   CG331    CG314    CG331     HGA3     9     0.000000     0.815880     3 ; from CG331 CG311 CG331 HGA3, penalty= 1 IAM
   NG2P1    CG314    CG331     HGA3     9     0.000000     0.815880     3 ; from HGA2 CG321 CG324 NG2P1, PENALTY= 10 AGM
   NG3P0    CG314    CG331     HGA3     9     0.000000     0.836800     3 ; from NG3P3 CG314 CG331 HGA3, penalty= 2.7 DDE
   NG3P2    CG314    CG331     HGA3     9     0.000000     0.836800     3 ; from NG3P3 CG314 CG331 HGA3, penalty= 0.9 IAM
   NG3P3    CG314    CG331     HGA3     9     0.000000     0.836800     3 ; PROT N-terminal AA - standard parameter
    HGA1    CG314    CG331     HGA3     9     0.000000     0.815880     3 ; PROT N-terminal AA - standard parameter
    HGP5    CG314    CG331     HGA3     9     0.000000     0.669440     3 ; from HGP5 CG324 CG331 HGA3, penalty= 4 DDE
   CG2O3    CG314   CG3C51   CG3C52     9     0.000000     0.647265     4 ; 5CS, by ac_aa
   CG2O3    CG314   CG3C51   OG3C51     9   180.000000    19.257697     1 ; 5CS, by ac_aa
   CG2O3    CG314   CG3C51     HGA1     9     0.000000     1.699959     3 ; 5CS, by ac_aa
   NG3P3    CG314   CG3C51   CG3C52     9     0.000000     3.273562     3 ; 5CS, by ac_aa
   NG3P3    CG314   CG3C51   OG3C51     9     0.000000     8.997274     1 ; 5CS, by ac_aa
   NG3P3    CG314   CG3C51     HGA1     9     0.000000     0.577392     3 ; 5CS, by ac_aa
    HGA1    CG314   CG3C51   CG3C52     9     0.000000     0.669440     3 ; from HGA1 CG311 CG3C51 CG3C52, penalty= 1 5CS
    HGA1    CG314   CG3C51   OG3C51     9     0.000000     0.669440     3 ; from HGA2 CG321 CG3C51 OG3C51, penalty= 5 5CS
    HGA1    CG314   CG3C51     HGA1     9     0.000000     0.669440     3 ; from HGA1 CG311 CG3C51 HGA1, penalty= 1 5CS
   CG321    CG314    NG2P1    CG2N1     9   180.000000     0.000000     6 ; from CG321 CG324 NG2P1 CG2N1, PENALTY= 4 AGM
   CG321    CG314    NG2P1     HGP2     9   180.000000     0.000000     6 ; from CG321 CG324 NG2P1 HGP2, PENALTY= 4 AGM
   CG331    CG314    NG2P1    CG2N1     9   180.000000     0.000000     6 ; from CG321 CG324 NG2P1 CG2N1, PENALTY= 4.9 AGM
   CG331    CG314    NG2P1     HGP2     9   180.000000     0.000000     6 ; from CG321 CG324 NG2P1 HGP2, PENALTY= 4.9 AGM
    HGA1    CG314    NG2P1    CG2N1     9   180.000000     0.000000     6 ; from HGA2 CG324 NG2P1 CG2N1, PENALTY= 4 AGM
    HGA1    CG314    NG2P1     HGP2     9   180.000000     0.000000     6 ; from HGA2 CG324 NG2P1 HGP2, PENALTY= 4 AGM
   NG3P3    CG314    NG311    CG321     9     0.000000     1.721716     1 ; from CG331 NG311 CG314 NG3P3, AGT
   NG3P3    CG314    NG311    CG321     9     0.000000     1.996605     2 ; from CG331 NG311 CG314 NG3P3, AGT
   NG3P3    CG314    NG311    CG321     9     0.000000     2.203294     3 ; from CG331 NG311 CG314 NG3P3, AGT
   NG3P3    CG314    NG311    CG331     9     0.000000     1.721716     1 ; AGT, by ac_aa
   NG3P3    CG314    NG311    CG331     9     0.000000     1.996605     2 ; AGT, by ac_aa
   NG3P3    CG314    NG311    CG331     9     0.000000     2.203294     3 ; AGT, by ac_aa
   NG3P3    CG314    NG311   HGPAM1     9   180.000000     4.083584     2 ; AGT, by ac_aa
   NG3P3    CG314    NG311   HGPAM1     9     0.000000     0.584923     3 ; AGT, by ac_aa
   SG311    CG314    NG311    CG321     9     0.000000     2.658514     1 ; from CG331 NG311 CG314 SG311, AGT
   SG311    CG314    NG311    CG321     9     0.000000     8.773848     2 ; from CG331 NG311 CG314 SG311, AGT
   SG311    CG314    NG311    CG321     9     0.000000     7.197317     3 ; from CG331 NG311 CG314 SG311, AGT
   SG311    CG314    NG311    CG331     9     0.000000     2.658514     1 ; AGT, by ac_aa
   SG311    CG314    NG311    CG331     9     0.000000     8.773848     2 ; AGT, by ac_aa
   SG311    CG314    NG311    CG331     9     0.000000     7.197317     3 ; AGT, by ac_aa
   SG311    CG314    NG311   HGPAM1     9   180.000000     4.565162     2 ; AGT, by ac_aa
   SG311    CG314    NG311   HGPAM1     9   180.000000     2.656840     3 ; AGT, by ac_aa
    HGA1    CG314    NG311    CG321     9     0.000000     0.000000     3 ; from HGA2 CG321 NG311 CG321, PENALTY= 5 AGT
    HGA1    CG314    NG311    CG331     9     0.000000     0.000000     3 ; from HGA2 CG321 NG311 CG321, penalty= 5.9 AGT
    HGA1    CG314    NG311   HGPAM1     9     0.000000     0.209200     3 ; from HGA2 CG321 NG311 HGPAM1, PENALTY= 5 AGT
   CG2O1    CG314    NG3P0    CG334     9   180.000000     8.632010     1 ; DDE, by ac_aa
   CG2O1    CG314    NG3P0    CG334     9   180.000000     3.542174     2 ; DDE, by ac_aa
   CG2O1    CG314    NG3P0    CG334     9     0.000000     1.538038     3 ; DDE, by ac_aa
   CG321    CG314    NG3P0    CG334     9     0.000000     1.087840     3 ; from CG321 CG324 NG3P0 CG334, PENALTY= 4 DDE DDEP
   CG331    CG314    NG3P0    CG334     9     0.000000     1.087840     3 ; from CG331 CG324 NG3P0 CG334, penalty= 4 DDE
    HGP5    CG314    NG3P0    CG334     9     0.000000     1.087840     3 ; from HGP5 CG324 NG3P0 CG334, PENALTY= 4 DDE DDEP
   CG321    CG314    NG3P2    CG324     9     0.000000     0.418400     3 ; 3MRB, Gamma-3 methyl piperidine, alpha-benzyl GA CDCA amide, cacha
   CG321    CG314    NG3P2     HGP2     9     0.000000     0.418400     3 ; 3MRB, Gamma-3 methyl piperidine, alpha-benzyl GA CDCA amide, cacha
   CG331    CG314    NG3P2    CG324     9     0.000000     0.418400     3 ; from CG321 CG314 NG3P2 CG324, penalty= 0.9 IAM
   CG331    CG314    NG3P2     HGP2     9     0.000000     0.418400     3 ; from CG321 CG314 NG3P2 HGP2, penalty= 0.9 IAM
    HGA1    CG314    NG3P2    CG324     9     0.000000     0.418400     3 ; 3MRB, Gamma-3 methyl piperidine, alpha-benzyl GA CDCA amide, cacha
    HGA1    CG314    NG3P2     HGP2     9     0.000000     0.418400     3 ; 3MRB, Gamma-3 methyl piperidine, alpha-benzyl GA CDCA amide, cacha
   CG2D1    CG314    NG3P3     HGP2     9     0.000000     0.924664     3 ; ACZ, by ac_aa
   CG2O1    CG314    NG3P3     HGP2     9     0.000000     0.418400     3 ; PROT N-terminal AA - standard parameter
   CG2O3    CG314    NG3P3     HGP2     9     0.000000     0.418400     3 ; PROT 0.715->0.10 METHYLAMMONIUM (KK)
  CG2R51    CG314    NG3P3     HGP2     9     0.000000     0.003766     3 ; 143, by ac_aa
   CG302    CG314    NG3P3     HGP2     9   180.000000     1.219636     3 ; FLA, by ac_aa
   CG311    CG314    NG3P3     HGP2     9     0.000000     0.418400     3 ; PROT 0.715->0.10 METHYLAMMONIUM (KK)
   CG321    CG314    NG3P3     HGP2     9     0.000000     0.418400     3 ; PROT 0.715->0.10 METHYLAMMONIUM (KK)
   CG331    CG314    NG3P3     HGP2     9     0.000000     0.418400     3 ; PROT N-terminal AA - standard parameter
  CG3C51    CG314    NG3P3     HGP2     9     0.000000     0.418400     3 ; from CG321 CG314 NG3P3 HGP2, PENALTY= 10 5CS
   NG311    CG314    NG3P3     HGP2     9     0.000000     1.953928     3 ; AGT, by ac_aa
   SG311    CG314    NG3P3     HGP2     9     0.000000     0.108366     3 ; AGT, by ac_aa
    HGA1    CG314    NG3P3     HGP2     9     0.000000     0.418400     3 ; PROT 0.715->0.10 METHYLAMMONIUM (KK)
   NG311    CG314    SG311    CG321     9     0.000000     3.213730     1 ; from NG311 CG314 SG311 CG331, AGT
   NG311    CG314    SG311    CG321     9     0.000000     1.692846     2 ; from NG311 CG314 SG311 CG331, AGT
   NG311    CG314    SG311    CG321     9     0.000000     2.348479     3 ; from NG311 CG314 SG311 CG331, AGT
   NG311    CG314    SG311    CG321     9     0.000000     0.166942     4 ; from NG311 CG314 SG311 CG331, AGT
   NG311    CG314    SG311    CG331     9     0.000000     3.213730     1 ; AGT, by ac_aa
   NG311    CG314    SG311    CG331     9     0.000000     1.692846     2 ; AGT, by ac_aa
   NG311    CG314    SG311    CG331     9     0.000000     2.348479     3 ; AGT, by ac_aa
   NG311    CG314    SG311    CG331     9     0.000000     0.166942     4 ; AGT, by ac_aa
   NG3P3    CG314    SG311    CG321     9     0.000000     1.022151     1 ; from NG3P3 CG314 SG311 CG331, AGT
   NG3P3    CG314    SG311    CG321     9     0.000000     6.235834     2 ; from NG3P3 CG314 SG311 CG331, AGT
   NG3P3    CG314    SG311    CG321     9     0.000000     0.182004     3 ; from NG3P3 CG314 SG311 CG331, AGT
   NG3P3    CG314    SG311    CG331     9     0.000000     1.022151     1 ; AGT, by ac_aa
   NG3P3    CG314    SG311    CG331     9     0.000000     6.235834     2 ; AGT, by ac_aa
   NG3P3    CG314    SG311    CG331     9     0.000000     0.182004     3 ; AGT, by ac_aa
    HGA1    CG314    SG311    CG321     9     0.000000     1.171520     3 ; from HGA2 CG321 SG311 CG321, PENALTY= 5 AGT
    HGA1    CG314    SG311    CG331     9     0.000000     1.171520     3 ; from HGA2 CG321 SG311 CG331, penalty= 5 AGT
   CG1T1    CG321    CG321    CG321     9     0.000000     0.836800     3 ; HXYN, OCTY
   CG1T1    CG321    CG321    CG331     9     0.000000     0.836800     3 ; PNTY
   CG1T1    CG321    CG321     HGA2     9     0.000000     0.815880     3 ; HXYN , OCTY
   CG2D1    CG321    CG321    CG2D1     9   180.000000     3.765600     1 ; GAU, (15he), yxu, RNA
   CG2D1    CG321    CG321    CG2D1     9   180.000000     1.255200     3 ; GAU, (15he), yxu, RNA
   CG2D1    CG321    CG321    CG2O3     9     0.000000     0.836800     3 ; PROT alkane update, adm jr., 3/2/92
   CG2D1    CG321    CG321    CG321     9   180.000000     0.585760     1 ; 2-hexene, adm jr., 11/09
   CG2D1    CG321    CG321    CG321     9     0.000000     0.711280     2 ; 2-hexene, adm jr., 11/09
   CG2D1    CG321    CG321    CG321     9   180.000000     0.209200     3 ; 2-hexene, adm jr., 11/09
   CG2D1    CG321    CG321    CG331     9   180.000000     0.585760     1 ; 2-hexene, adm jr., 11/09
   CG2D1    CG321    CG321    CG331     9     0.000000     0.711280     2 ; 2-hexene, adm jr., 11/09
   CG2D1    CG321    CG321    CG331     9   180.000000     0.209200     3 ; 2-hexene, adm jr., 11/09
   CG2D1    CG321    CG321     HGA2     9     0.000000     0.815880     3 ; PROT alkane update, adm jr., 3/2/92
  CG2DC1    CG321    CG321    CG2O1     9     0.000000     0.836800     3 ; from CG2D1 CG321 CG321 CG2O3, CRQ
  CG2DC1    CG321    CG321    CG321     9     0.000000     0.794960     3 ; RETINOL TMCH
  CG2DC1    CG321    CG321    CG331     9   180.000000     0.585760     1 ; sidechai , from CG2D1 CG321 CG321 CG331, penalty= 0.5 2NP
  CG2DC1    CG321    CG321    CG331     9     0.000000     0.711280     2 ; sidechai , from CG2D1 CG321 CG321 CG331, penalty= 0.5 2NP
  CG2DC1    CG321    CG321    CG331     9   180.000000     0.209200     3 ; sidechai , from CG2D1 CG321 CG321 CG331, penalty= 0.5 2NP
  CG2DC1    CG321    CG321    SG311     9     0.000000     1.287835     1 ; NRQ, by ac_aa1
  CG2DC1    CG321    CG321    SG311     9     0.000000     1.480299     2 ; NRQ, by ac_aa1
  CG2DC1    CG321    CG321    SG311     9   180.000000     1.399130     3 ; NRQ, by ac_aa1
  CG2DC1    CG321    CG321     HGA2     9     0.000000     0.794960     3 ; RETINOL TMCH
  CG2DC2    CG321    CG321    CG2O1     9     0.000000     0.836800     3 ; from CG2D1 CG321 CG321 CG2O3, CRQ
  CG2DC2    CG321    CG321    CG321     9     0.000000     0.794960     3 ; RETINOL TMCH
  CG2DC2    CG321    CG321    CG331     9   180.000000     0.585760     1 ; sidechai , from CG2D1 CG321 CG321 CG331, penalty= 0.5 2NP
  CG2DC2    CG321    CG321    CG331     9     0.000000     0.711280     2 ; sidechai , from CG2D1 CG321 CG321 CG331, penalty= 0.5 2NP
  CG2DC2    CG321    CG321    CG331     9   180.000000     0.209200     3 ; sidechai , from CG2D1 CG321 CG321 CG331, penalty= 0.5 2NP
  CG2DC2    CG321    CG321    SG311     9     0.000000     1.287835     1 ; NRQ, by ac_aa1
  CG2DC2    CG321    CG321    SG311     9     0.000000     1.480299     2 ; NRQ, by ac_aa1
  CG2DC2    CG321    CG321    SG311     9   180.000000     1.399130     3 ; NRQ, by ac_aa1
  CG2DC2    CG321    CG321     HGA2     9     0.000000     0.794960     3 ; RETINOL TMCH
   CG2O1    CG321    CG321    CG2O1     9     0.000000     0.836800     3 ; PMHA, hydrazone-containing model compound: PROT alkane update, adm jr., 3/2/92, sz
   CG2O1    CG321    CG321    CG311     9     0.000000     0.815880     3 ; PROT alkane update, adm jr., 3/2/92
   CG2O1    CG321    CG321    CG314     9     0.000000     0.815880     3 ; PROT N-terminal AA - standard parameter
   CG2O1    CG321    CG321    CG321     9     0.000000     0.815880     3 ; from CG2O1 CG321 CG321 CG311, PENALTY= 0.6 LA2
   CG2O1    CG321    CG321    NG2S0     9     0.000000     1.589920     3 ; H2U, yxu, RNA
   CG2O1    CG321    CG321    NG2S1     9     0.000000     0.836800     3 ; from NG2S1 CG311 CG321 CG2O1, PENALTY= 4 4HH LYX
   CG2O1    CG321    CG321     HGA2     9     0.000000     0.815880     3 ; PROT alkane update, adm jr., 3/2/92
   CG2O2    CG321    CG321    CG311     9     0.000000     0.815880     3 ; GMGA, cacha
   CG2O2    CG321    CG321    CG314     9     0.000000     0.815880     3 ; from CG2O1 CG321 CG321 CG314, PENALTY= 2.5 CYG
   CG2O2    CG321    CG321    CG321     9   180.000000     0.878640     1 ; LIPID methylbutyrate
   CG2O2    CG321    CG321    CG321     9     0.000000     1.631760     2 ; LIPID methylbutyrate
   CG2O2    CG321    CG321    CG321     9   180.000000     1.464400     3 ; LIPID methylbutyrate
   CG2O2    CG321    CG321    CG321     9     0.000000     0.460240     4 ; LIPID methylbutyrate
   CG2O2    CG321    CG321    CG321     9   180.000000     0.376560     6 ; LIPID methylbutyrate
   CG2O2    CG321    CG321    CG331     9   180.000000     0.878640     1 ; LIPID methylbutyrate
   CG2O2    CG321    CG321    CG331     9     0.000000     1.631760     2 ; LIPID methylbutyrate
   CG2O2    CG321    CG321    CG331     9   180.000000     1.464400     3 ; LIPID methylbutyrate
   CG2O2    CG321    CG321    CG331     9     0.000000     0.460240     4 ; LIPID methylbutyrate
   CG2O2    CG321    CG321    CG331     9   180.000000     0.376560     6 ; LIPID methylbutyrate
   CG2O2    CG321    CG321     HGA2     9     0.000000     0.815880     3 ; deleteme DELETEME (we want to use wildcarting)
   CG2O3    CG321    CG321   CG2R61     9     0.000000     0.167360     3 ; FBIB, Fatty Binding Inhibitior B, cacha
   CG2O3    CG321    CG321    CG311     9     0.000000     0.815880     3 ; PROT alkane update, adm jr., 3/2/92
   CG2O3    CG321    CG321    CG314     9     0.000000     0.815880     3 ; PROT N-terminal AA - standard parameter
   CG2O3    CG321    CG321    CG321     9     0.000000     0.269868     2 ; LIPID alkane, 4/04, jbk
   CG2O3    CG321    CG321    CG321     9   180.000000     0.626554     3 ; LIPID alkane, 4/04, jbk
   CG2O3    CG321    CG321    CG321     9     0.000000     0.395723     4 ; LIPID alkane, 4/04, jbk
   CG2O3    CG321    CG321    CG321     9     0.000000     0.470742     5 ; LIPID alkane, 4/04, jbk
   CG2O3    CG321    CG321     HGA2     9     0.000000     0.815880     3 ; PROT alkane update, adm jr., 3/2/92
   CG2O5    CG321    CG321    CG314     9     0.000000     0.815880     3 ; from CG2O1 CG321 CG321 CG314, PENALTY= 3 CYD
   CG2O5    CG321    CG321    CG321     9   180.000000     0.878640     1 ; CHON, cyclohexanone; from LIPID methylbutyrate; yapol
   CG2O5    CG321    CG321    CG321     9     0.000000     1.631760     2 ; CHON, cyclohexanone; from LIPID methylbutyrate; yapol
   CG2O5    CG321    CG321    CG321     9   180.000000     1.464400     3 ; CHON, cyclohexanone; from LIPID methylbutyrate; yapol
   CG2O5    CG321    CG321    CG321     9     0.000000     0.460240     4 ; CHON, cyclohexanone; from LIPID methylbutyrate; yapol
   CG2O5    CG321    CG321    CG321     9   180.000000     0.376560     6 ; CHON, cyclohexanone; from LIPID methylbutyrate; yapol
   CG2O5    CG321    CG321    CG331     9   180.000000     0.878640     1 ; sidechai , from CG2O5 CG321 CG321 CG321, penalty= 0.9 26P
   CG2O5    CG321    CG321    CG331     9     0.000000     1.631760     2 ; sidechai , from CG2O5 CG321 CG321 CG321, penalty= 0.9 26P
   CG2O5    CG321    CG321    CG331     9   180.000000     1.464400     3 ; sidechai , from CG2O5 CG321 CG321 CG321, penalty= 0.9 26P
   CG2O5    CG321    CG321    CG331     9     0.000000     0.460240     4 ; sidechai , from CG2O5 CG321 CG321 CG321, penalty= 0.9 26P
   CG2O5    CG321    CG321    CG331     9   180.000000     0.376560     6 ; sidechai , from CG2O5 CG321 CG321 CG321, penalty= 0.9 26P
   CG2O5    CG321    CG321     HGA2     9     0.000000     0.815880     3 ; CHON, cyclohexanone; from CG2O2 CG321 CG321 HGA2; yapol
  CG2R51    CG321    CG321    CG311     9     0.000000     0.167360     3 ; WBG, from CG2R61 CG321 CG321 CG321, yxu, RNA
  CG2R51    CG321    CG321    CG321     9     0.000000     0.167360     3 ; INCA model for D3R, xxwy
  CG2R51    CG321    CG321    NG301     9     0.000000     0.167360     3 ; D3R set1 scaffold 2, xxwy
  CG2R51    CG321    CG321     HGA2     9     0.000000     0.836800     3 ; INCA model for D3R, xxwy
  CG2R52    CG321    CG321    CG321     9     0.000000     0.167360     3 ; INCA model for D3R, xxwy
  CG2R52    CG321    CG321    NG301     9     0.000000     0.167360     3 ; D3R set1 scaffold 1, xxwy
  CG2R52    CG321    CG321     HGA2     9     0.000000     0.836800     3 ; INCA model for D3R, xxwy
  CG2R53    CG321    CG321    CG314     9     0.000000     0.167360     3 ; from CG2R52 CG321 CG321 CG321, PENALTY= 18, DDEP
  CG2R53    CG321    CG321     HGA2     9     0.000000     0.836800     3 ; from CG2R52 CG321 CG321 HGA2, PENALTY= 1 DDE DDEP
  CG2R61    CG321    CG321    CG321     9     0.000000     0.167360     3 ; PROT ethylbenzene
  CG2R61    CG321    CG321    NG2S1     9     0.000000     0.794960     3 ; 2AEPD, 2-ethylamino-pyridine CDCA conjugate, corrected by kevo
  CG2R61    CG321    CG321     HGA2     9     0.000000     0.167360     3 ; PROT ethylbenzene
   CG301    CG321    CG321    CG311     9     0.000000     0.836800     3 ; CA, Cholic Acid, cacha, 03/06
   CG301    CG321    CG321    CG321     9     0.000000     0.815880     3 ; PROT alkane update, adm jr., 3/2/92
   CG301    CG321    CG321     HGA2     9     0.000000     0.815880     3 ; PROT alkane update, adm jr., 3/2/92
   CG311    CG321    CG321    CG311     9     0.000000     0.815880     3 ; PROT alkane update, adm jr., 3/2/92
   CG311    CG321    CG321    CG321     9     0.000000     2.092000     3 ; CARBOCY carbocyclic sugars
   CG311    CG321    CG321    CG321     9   180.000000     2.092000     6 ; CARBOCY carbocyclic sugars
   CG311    CG321    CG321    CG324     9     0.000000     0.815880     3 ; FLAVOP PIP1,2,3
   CG311    CG321    CG321   CG3RC1     9     0.000000     0.627600     3 ; CARBOCY carbocyclic sugars
   CG311    CG321    CG321   NG2R61     9     0.000000     0.836800     3 ; 5UHA, from CG321  CG321  CG321  NG2S1, yxu, RNA
   CG311    CG321    CG321    SG311     9     0.000000     0.815880     3 ; PROT alkane update, adm jr., 3/2/92
   CG311    CG321    CG321    BRGA1     9   180.000000     4.024171     1 ; BIU, by ac_aa
   CG311    CG321    CG321    BRGA1     9   180.000000     0.501662     3 ; BIU, by ac_aa
   CG311    CG321    CG321     HGA2     9     0.000000     0.815880     3 ; NA abasic nucleoside
   CG314    CG321    CG321    CG321     9     0.000000     2.092000     3 ; CARBOCY carbocyclic sugars
   CG314    CG321    CG321    CG321     9   180.000000     2.092000     6 ; CARBOCY carbocyclic sugars
   CG314    CG321    CG321    CG324     9     0.000000     0.815880     3 ; PROT N-terminal AA - standard parameter collided with FLAVOP PIP1,2,3
   CG314    CG321    CG321    CG331     9     0.000000     2.092000     3 ; sidechai , from CG314 CG321 CG321 CG321, penalty= 0.9 6CL
   CG314    CG321    CG321    CG331     9   180.000000     2.092000     6 ; sidechai , from CG314 CG321 CG321 CG321, penalty= 0.9 6CL
   CG314    CG321    CG321   NG2R61     9   180.000000     2.092000     1 ; 3AU, from 3pru, yxu, RNA
   CG314    CG321    CG321    SG311     9     0.000000     0.815880     3 ; PROT alkane update, adm jr., 3/2/92
   CG314    CG321    CG321     HGA2     9     0.000000     0.815880     3 ; NA abasic nucleoside
   CG321    CG321    CG321    CG321     9     0.000000     0.269868     2 ; LIPID alkane, 4/04, jbk (Jeff Klauda)
   CG321    CG321    CG321    CG321     9   180.000000     0.626554     3 ; LIPID alkane, 4/04, jbk
   CG321    CG321    CG321    CG321     9     0.000000     0.395723     4 ; LIPID alkane, 4/04, jbk
   CG321    CG321    CG321    CG321     9     0.000000     0.470742     5 ; LIPID alkane, 4/04, jbk
   CG321    CG321    CG321    CG324     9     0.000000     0.815880     3 ; FLAVOP PIP1,2,3
   CG321    CG321    CG321    CG331     9     0.000000     0.629734     2 ; LIPID alkane, 4/04, jbk (Jeff Klauda)
   CG321    CG321    CG321    CG331     9   180.000000     0.340285     3 ; LIPID alkane, 4/04, jbk
   CG321    CG321    CG321    CG331     9     0.000000     0.452876     4 ; LIPID alkane, 4/04, jbk
   CG321    CG321    CG321    CG331     9     0.000000     0.853159     5 ; LIPID alkane, 4/04, jbk
   CG321    CG321    CG321   CG3C50     9     0.000000     1.673600     3 ; MSCH model for D3R, xxwy
   CG321    CG321    CG321   CG3RC1     9     0.000000     0.627600     3 ; CARBOCY carbocyclic sugars
   CG321    CG321    CG321    NG2D1     9   180.000000     3.305360     1 ; from EEPI's CG331 CG321 CG321 NG2D1, fylin
   CG321    CG321    CG321    NG2D1     9     0.000000     0.836800     2 ; from EEPI's CG331 CG321 CG321 NG2D1, fylin
   CG321    CG321    CG321    NG2D1     9     0.000000     0.502080     3 ; from EEPI's CG331 CG321 CG321 NG2D1, fylin
   CG321    CG321    CG321    NG2D1     9     0.000000     0.627600     4 ; from EEPI's CG331 CG321 CG321 NG2D1, fylin
   CG321    CG321    CG321    NG2D1     9   180.000000     0.209200     6 ; from EEPI's CG331 CG321 CG321 NG2D1, fylin
   CG321    CG321    CG321    NG2S0     9     0.000000     0.836800     3 ; from CG321 CG321 CG321 NG2S1, PENALTY= 1 FHO
   CG321    CG321    CG321    NG2S1     9     0.000000     0.836800     3 ; ALBE, Alpha Lysine Benzyl Ester CDCA Amide, cacha
   CG321    CG321    CG321    NG2S3     9     0.000000     0.836800     3 ; from CG321 CG321 CG321 NG2S1, PENALTY= 9 APK GPL
   CG321    CG321    CG321    NG301     9   180.000000     0.669440     1 ; TSPD model for D3R, xxwy
   CG321    CG321    CG321    NG301     9     0.000000     1.631760     2 ; TSPD model for D3R, xxwy
   CG321    CG321    CG321    NG311     9     0.000000     1.255200     3 ; K2Cn, from prnc, yxu, RNA
   CG321    CG321    CG321    OG301     9   180.000000     0.669440     1 ; methylpropylether, 2/12/05, ATM
   CG321    CG321    CG321    OG301     9     0.000000     1.631760     2 ; methylpropylether
   CG321    CG321    CG321    OG302     9     0.000000     0.815880     3 ; PROT alkane update, adm jr., 3/2/92
   CG321    CG321    CG321    OG303     9     0.000000     0.815880     3 ; PROT alkane update, adm jr., 3/2/92
   CG321    CG321    CG321    OG311     9     0.000000     0.815880     3 ; PROT alkane update, adm jr., 3/2/92
   CG321    CG321    CG321   OG3C61     9   180.000000     0.794960     1 ; THP, tetrahydropyran
   CG321    CG321    CG321   OG3C61     9   180.000000     4.184000     2 ; THP, tetrahydropyran
   CG321    CG321    CG321   OG3C61     9     0.000000     2.510400     3 ; THP, tetrahydropyran
   CG321    CG321    CG321   OG3C61     9   180.000000     0.334720     4 ; THP, tetrahydropyran
   CG321    CG321    CG321    SG311     9     0.000000     0.815880     3 ; THPS, thiopyran
   CG321    CG321    CG321     HGA2     9     0.000000     0.815880     3 ; LIPID alkanes
   CG324    CG321    CG321    CG324     9     0.000000     0.815880     3 ; R2C, from CG36, yxu, RNA
   CG324    CG321    CG321    CG331     9     0.000000     0.815880     3 ; from CG321 CG321 CG321 CG324, penalty= 0.9 DA2
   CG324    CG321    CG321     HGA2     9     0.000000     0.815880     3 ; FLAVOP PIP1,2,3
   CG331    CG321    CG321    CG331     9     0.000000     0.159787     2 ; LIPID alkane, 4/04, jbk
   CG331    CG321    CG321    CG331     9   180.000000     0.132968     6 ; LIPID alkane, 4/04, jbk
   CG331    CG321    CG321    NG1T1     9   180.000000     3.098670     1 ; AZH, by ac_aa
   CG331    CG321    CG321    NG1T1     9     0.000000     2.697425     3 ; AZH, by ac_aa
   CG331    CG321    CG321    NG2D1     9   180.000000     3.305360     1 ; EEPI, fylin
   CG331    CG321    CG321    NG2D1     9     0.000000     0.836800     2 ; EEPI, fylin
   CG331    CG321    CG321    NG2D1     9     0.000000     0.502080     3 ; EEPI, fylin
   CG331    CG321    CG321    NG2D1     9     0.000000     0.627600     4 ; EEPI, fylin
   CG331    CG321    CG321    NG2D1     9   180.000000     0.209200     6 ; EEPI, fylin
   CG331    CG321    CG321   NG2R61     9   180.000000     2.092000     1 ; 3pru, yxu, RNA
   CG331    CG321    CG321    NG2S1     9     0.000000     0.836800     3 ; sidechai , from CG321 CG321 CG321 NG2S1, penalty= 0.9 CIR
   CG331    CG321    CG321    NG311     9     0.000000     1.255200     3 ; prnc, yxu, RNA
   CG331    CG321    CG321    OG301     9   180.000000     0.669440     1 ; methylpropylether, 2/12/05, ATM
   CG331    CG321    CG321    OG301     9     0.000000     1.631760     2 ; methylpropylether
   CG331    CG321    CG321    OG311     9     0.000000     0.815880     3 ; PROH, n-propanol, kevo for gsk/ibm
   CG331    CG321    CG321    SG301     9     0.000000     0.815880     3 ; from CG331 CG321 CG321 SG311, PENALTY= 1 PR3
   CG331    CG321    CG321    SG311     9     0.000000     0.815880     3 ; PRSH, n-thiopropanol, kevo for gsk/ibm
   CG331    CG321    CG321    SG3O1     9   180.000000     3.932960     1 ; PSNA, propyl sulfonate, xhe
   CG331    CG321    CG321    SG3O1     9     0.000000     1.589920     2 ; PSNA, propyl sulfonate, xhe
   CG331    CG321    CG321    SG3O1     9     0.000000     0.460240     3 ; PSNA, propyl sulfonate, xhe
   CG331    CG321    CG321     HGA2     9     0.000000     0.753120     3 ; LIPID alkane
  CG3C50    CG321    CG321    NG301     9   180.000000     0.669440     1 ; D3R set2 scaffold, xxwy
  CG3C50    CG321    CG321    NG301     9     0.000000     1.631760     2 ; D3R set2 scaffold, xxwy
  CG3C50    CG321    CG321     HGA2     9     0.000000     2.092000     3 ; MSCH model for D3R, xxwy
  CG3RC1    CG321    CG321     HGA2     9     0.000000     0.815880     3 ; LIPID alkanes
   NG1T1    CG321    CG321     HGA2     9     0.000000     0.002510     3 ; AZH, by ac_aa
   NG2D1    CG321    CG321     HGA2     9     0.000000     0.836800     3 ; EEPI, from NG2S1 CG321 CG321 HGA2, fylin
  NG2R61    CG321    CG321     HGA2     9     0.000000     0.418400     3 ; 3AU, yxu, RNA
   NG2S0    CG321    CG321     HGA2     9     0.000000     0.815880     3 ; H2U, yxu, RNA
   NG2S1    CG321    CG321    SG311     9     0.000000     0.836800     3 ; from NG2S1 CG311 CG321 SG311, PENALTY= 4 4HH LYX
   NG2S1    CG321    CG321    SG3O1     9   180.000000     3.974800     1 ; NACT, N-acetyltaurine, compromise between 6-31G* and 6-31+G*, xxwy & kevo
   NG2S1    CG321    CG321    SG3O1     9     0.000000     5.564720     2 ; NACT, N-acetyltaurine, compromise between 6-31G* and 6-31+G*, xxwy & kevo
   NG2S1    CG321    CG321    SG3O1     9   180.000000     0.334720     3 ; NACT, N-acetyltaurine, compromise between 6-31G* and 6-31+G*, xxwy & kevo
   NG2S1    CG321    CG321     HGA2     9     0.000000     0.815880     3 ; TCA, Taurocholic Acid, cacha, 03/06 OK
   NG2S3    CG321    CG321     HGA2     9     0.000000     0.815880     3 ; from NG2S3 CG321 CG331 HGA3, PENALTY= 6 APK GPL
   NG301    CG321    CG321     HGA2     9     0.000000     0.669440     3 ; TSPD model for D3R, xxwy
   NG311    CG321    CG321     HGA2     9     0.000000     0.815880     3 ; K2Cn, cgenff_compromise, kevo
   NG321    CG321    CG321    SG311     9     0.000000     2.510400     1 ; asbb, PC, 2020 , N9-C10-C13-S15
   NG321    CG321    CG321    SG311     9   180.000000     0.836800     2 ; asbb, PC, 2020 , N9-C10-C13-S15
   NG321    CG321    CG321    SG311     9     0.000000     1.255200     3 ; asbb, PC, 2020 , N9-C10-C13-S15
   NG321    CG321    CG321     HGA2     9     0.000000     0.523000     3 ; asbb, PC, 2020 , N9-C10-C13-H68
   OG301    CG321    CG321    OG301     9   180.000000     1.046000     1 ; 1,2 dimethoxyethane, 2/12/05, ATM
   OG301    CG321    CG321    OG301     9     0.000000     5.188160     2 ; 1,2 dimethoxyethane
   OG301    CG321    CG321     HGA2     9     0.000000     0.794960     3 ; alkane, 4/98, yin and mackerell
   OG302    CG321    CG321     HGA2     9     0.000000     0.815880     3 ; PROT alkane update, adm jr., 3/2/92
   OG303    CG321    CG321    OG303     9     0.000000     0.815880     3 ; PROT alkane update, adm jr., 3/2/92
   OG303    CG321    CG321     HGA2     9     0.000000     0.815880     3 ; PROT alkane update, adm jr., 3/2/92
   OG311    CG321    CG321    SG301     9   180.000000    11.002665     1 ; CME, by ac_aa
   OG311    CG321    CG321    SG301     9   180.000000     1.389088     2 ; CME, by ac_aa
   OG311    CG321    CG321    SG301     9     0.000000     0.969851     3 ; CME, by ac_aa
   OG311    CG321    CG321    SG311     9   180.000000     7.282670     1 ; OCY, by ac_aa
   OG311    CG321    CG321    SG311     9     0.000000     0.500406     3 ; OCY, by ac_aa
   OG311    CG321    CG321     HGA2     9     0.000000     0.815880     3 ; PROT alkane update, adm jr., 3/2/92
  OG3C61    CG321    CG321   OG3C61     9     0.000000     0.815880     3 ; DIOX, dioxane
  OG3C61    CG321    CG321     HGA2     9     0.000000     0.815880     3 ; DIOX, dioxane
   SG301    CG321    CG321     HGA2     9     0.000000     0.041840     3 ; from SG311 CG321 CG321 HGA2, penalty= 1 CME PR3
   SG311    CG321    CG321    SG311     9     0.000000     0.418400     3 ; DITH, dithiane
   SG311    CG321    CG321     HGA2     9     0.000000     0.041840     3 ; PROT DTN 8/24/90
   SG3O1    CG321    CG321     HGA2     9     0.000000     0.041840     1 ; PSNA, propyl sulfonate, xhe
   SG3O2    CG321    CG321     HGA2     9     0.000000     0.041840     1 ; from SG3O1 CG321 CG321 HGA2, PENALTY= 5 OMT
   SG3O3    CG321    CG321     HGA2     9     0.000000     0.669440     3 ; from SG3O3 CG321 CG331 HGA3, PENALTY= 6 MHO SME
   BRGA1    CG321    CG321     HGA2     9     0.000000     1.255200     3 ; from BRGA1 CG321 CG331 HGA3, PENALTY= 6 BIU
    HGA2    CG321    CG321     HGA2     9     0.000000     0.920480     3 ; LIPID alkanes
   CG331    CG321    CG322    CG2O3     9     0.000000     3.980658     3 ; FGA4, by ac_aa
   CG331    CG321    CG322     FGA1     9   180.000000     1.442643     3 ; FGA4, by ac_aa
   CG331    CG321    CG322     HGA6     9   180.000000     0.076567     3 ; FGA4, by ac_aa
    HGA2    CG321    CG322    CG2O3     9     0.000000     0.690778     3 ; FGA4, by ac_aa
    HGA2    CG321    CG322     FGA1     9     0.000000     0.774040     3 ; from FGA1 CG322 CG331 HGA3, PENALTY= 6 FGA4
    HGA2    CG321    CG322     HGA6     9     0.000000     0.774040     3 ; from HGA6 CG322 CG331 HGA3, PENALTY= 6 FGA4
  CG2R61    CG321    CG324    NG3P1     9     0.000000     0.836800     3 ; fentanyl, Lesnik et al, 2020
  CG2R61    CG321    CG324     HGA2     9     0.000000     0.167360     3 ; fentanyl, Lesnik et al, 2020
   CG311    CG321    CG324    NG3P1     9     0.000000     4.184000     3 ; BPAB, Gamma N-benzyl piperidine alpha benzyl CDCA amide, cacha ! @@@ Kenno: 0.1950 -> 1.00
   CG311    CG321    CG324    NG3P2     9     0.000000     4.184000     3 ; G4MP, Gamma-4-Methyl Piperidine Glu Acid CDCA Amide, cacha ! @@@ Kenno: 0.1950 -> 1.00
   CG311    CG321    CG324    NG3P3     9     0.000000     0.815880     3 ; from CG321 CG321 CG324 NG3P3, PENALTY= 0.6 5CT
   CG311    CG321    CG324     HGA2     9     0.000000     0.815880     3 ; FLAVOP PIP1,2,3
   CG321    CG321    CG324    NG2P1     9     0.000000     0.815880     3 ; PROT alkane update, adm jr., 3/2/92
   CG321    CG321    CG324    NG3P0     9     0.000000     4.184000     3 ; from CG321 CG321 CG324 NG3P1, PENALTY= 1.2 M3L
   CG321    CG321    CG324    NG3P1     9     0.000000     4.184000     3 ; FLAVOP PIP1,2,3 ! @@@ Kenno: 0.1950 -> 1.00
   CG321    CG321    CG324    NG3P2     9     0.000000     4.184000     3 ; PIP, piperidine ! @@@ Kenno: 0.1950 -> 1.00
   CG321    CG321    CG324    NG3P3     9     0.000000     0.815880     3 ; PROT alkane update, adm jr., 3/2/92
   CG321    CG321    CG324     HGA2     9     0.000000     0.815880     3 ; FLAVOP PIP1,2,3
   CG321    CG321    CG324     HGP5     9   180.000000     1.829663     3 ; M3L, by ac_aa
   CG331    CG321    CG324    NG2O1     9   180.000000     3.670623     1 ; NIPR, nitropropane, abar
   CG331    CG321    CG324    NG2O1     9     0.000000     0.996629     2 ; NIPR, nitropropane, abar
   CG331    CG321    CG324    NG2O1     9   180.000000     0.612956     3 ; NIPR, nitropropane, abar
   CG331    CG321    CG324    NG2P1     9     0.000000     0.815880     3 ; pncp, yxu, RNA
   CG331    CG321    CG324     HGA2     9     0.000000     0.815880     3 ; NIPR, nitropropane; from CG321 CG321 CG324 HGA2; abar
   OG302    CG321    CG324    NG3P0     9   180.000000    13.807200     1 ; LIPID choline, 12/92
   OG302    CG321    CG324    NG3P0     9   180.000000    -1.673600     3 ; LIPID choline, 12/92
   OG302    CG321    CG324     HGP5     9     0.000000     0.815880     3 ; PROT alkane update, adm jr., 3/2/92
   OG303    CG321    CG324    NG3P0     9   180.000000    13.807200     1 ; LIPID choline, 12/92
   OG303    CG321    CG324    NG3P0     9   180.000000    -1.673600     3 ; LIPID choline, 12/92
   OG303    CG321    CG324    NG3P3     9   180.000000     2.928800     1 ; LIPID ethanolamine
   OG303    CG321    CG324     HGA2     9     0.000000     0.815880     3 ; PROT alkane update, adm jr., 3/2/92
   OG303    CG321    CG324     HGP5     9     0.000000     0.815880     3 ; PROT alkane update, adm jr., 3/2/92
   OG311    CG321    CG324    NG3P0     9   180.000000    17.991200     1 ; LIPID choline, 12/92
   OG311    CG321    CG324    NG3P0     9   180.000000    -1.673600     3 ; LIPID choline, 12/92
   OG311    CG321    CG324    NG3P3     9   180.000000     2.928800     1 ; LIPID ethanolamine
   OG311    CG321    CG324     HGA2     9     0.000000     0.815880     3 ; PROT alkane update, adm jr., 3/2/92
   OG311    CG321    CG324     HGP5     9     0.000000     0.815880     3 ; PROT alkane update, adm jr., 3/2/92
  OG3C61    CG321    CG324    NG3P2     9     0.000000     3.347200     3 ; MORP, morpholine
  OG3C61    CG321    CG324     HGA2     9     0.000000     0.815880     3 ; MORP, morpholine
   SG311    CG321    CG324    NG3P2     9     0.000000     3.347200     3 ; TMOR, thiomorpholine
   SG311    CG321    CG324    NG3P3     9     0.000000     3.347200     3 ; from SG311 CG321 CG324 NG3P2, PENALTY= 0.9 SLZ
   SG311    CG321    CG324     HGA2     9     0.000000     0.815880     3 ; TMOR, thiomorpholine
   SG3O1    CG321    CG324    NG3P2     9   180.000000    20.083200     1 ; 5TU, yxu, RNA
   SG3O1    CG321    CG324    NG3P2     9   180.000000     1.882800     2 ; 5TU, yxu, RNA
   SG3O1    CG321    CG324     HGA2     9     0.000000     0.209200     1 ; 5TU, yxu, RNA
    HGA2    CG321    CG324    NG2O1     9     0.000000     0.815880     3 ; NIPR, nitropropane; from NG2S1 CG321 CG321 HGA2; abar
    HGA2    CG321    CG324    NG2P1     9     0.000000     0.815880     3 ; PROT alkane update, adm jr., 3/2/92
    HGA2    CG321    CG324    NG3P0     9     0.000000     0.815880     3 ; PROT alkane update, adm jr., 3/2/92
    HGA2    CG321    CG324    NG3P1     9     0.000000     0.815880     3 ; FLAVOP PIP1,2,3
    HGA2    CG321    CG324    NG3P2     9     0.000000     0.815880     3 ; PIP, piperidine
    HGA2    CG321    CG324    NG3P3     9     0.000000     0.815880     3 ; PROT alkane update, adm jr., 3/2/92
    HGA2    CG321    CG324     HGA2     9     0.000000     0.815880     3 ; FLAVOP PIP1,2,3
    HGA2    CG321    CG324     HGP5     9     0.000000     0.815880     3 ; PROT alkane update, adm jr., 3/2/92
   CG1T1    CG321    CG331     HGA3     9     0.000000     0.815880     3 ; BUTY
   CG2D1    CG321    CG331     HGA3     9     0.000000     0.669440     3 ; PROT rotation barrier in Ethane (SF)
  CG2DC1    CG321    CG331     HGA3     9     0.000000     0.669440     3 ; from CG2D1 CG321 CG331 HGA3, penalty= 0.5 TPQ TPQP
  CG2DC2    CG321    CG331     HGA3     9     0.000000     0.669440     3 ; from CG2D1 CG321 CG331 HGA3, penalty= 0.5 TPQ TPQP
   CG2O1    CG321    CG331     HGA3     9     0.000000     0.669440     3 ; PROT rotation barrier in Ethane (SF)
   CG2O2    CG321    CG331     HGA3     9     0.000000     0.669440     3 ; PROT rotation barrier in Ethane (SF)
   CG2O3    CG321    CG331     HGA3     9     0.000000     0.669440     3 ; PROT rotation barrier in Ethane (SF)
   CG2O4    CG321    CG331     HGA3     9     0.000000     0.669440     3 ; PALD, propionaldehyde from PROT rotation barrier in Ethane (SF) unmodified
   CG2O5    CG321    CG331     HGA3     9     0.000000     0.669440     3 ; Methyl group torsion, kevo
  CG2R51    CG321    CG331     HGA3     9     0.000000     0.669440     3 ; PROT rotation barrier in Ethane (SF)
  CG2R53    CG321    CG331     HGA3     9     0.000000     0.669440     3 ; ETEA, 5-Ethyl-1H-tetrazole, pchat
  CG2R61    CG321    CG331     HGA3     9     0.000000     0.167360     3 ; PROT 2.7 kcal/mole CH3 rot in ethylbenzene, adm jr, 3/7/92
   CG301    CG321    CG331     HGA3     9     0.000000     0.669440     3 ; DMBU, dimethoxybutane, sna
   CG311    CG321    CG331     HGA3     9     0.000000     0.669440     3 ; PROT rotation barrier in Ethane (SF)
   CG312    CG321    CG331     HGA3     9     0.000000     0.362753     3 ; OBF, by ac_aa
   CG314    CG321    CG331     HGA3     9     0.000000     0.836800     3 ; sidechai , from CG324 CG321 CG331 HGA3, penalty= 0.6 AGM
   CG321    CG321    CG331     HGA3     9     0.000000     0.669440     3 ; PROT rotation barrier in Ethane (SF)
   CG322    CG321    CG331     HGA3     9     0.000000     0.437228     3 ; FGA4, by ac_aa
   CG324    CG321    CG331     HGA3     9     0.000000     0.836800     3 ; NIPR, nitropropane; from CG314 CG311 CG331 HGA3; abar
   CG331    CG321    CG331     HGA3     9     0.000000     0.669440     3 ; PROT rotation barrier in Ethane (SF)
  CG3C31    CG321    CG331     HGA3     9     0.000000     0.669440     3 ; 1BOX, 1-butene oxide; default from CG321 CG321 CG331 HGA3; sc
   NG1T1    CG321    CG331     HGA3     9     0.000000     1.072359     3 ; AZDA, by ac_aa
   NG2D1    CG321    CG331     HGA3     9     0.000000     0.627600     3 ; EICY, ethyl isocyanate, xxwy
  NG2R51    CG321    CG331     HGA3     9     0.000000     0.815880     3 ; ETRZ, 1-Ethyl-1,2,3-triazole, from NG2S1 CG321 CG331 HGA3, kevo
  NG2R53    CG321    CG331     HGA3     9     0.000000     0.815880     3 ; from NG2S1 CG321 CG331 HGA3, penalty= 1 6V1
  NG2R61    CG321    CG331     HGA3     9     0.000000     0.543920     3 ; flavin
   NG2S0    CG321    CG331     HGA3     9     0.000000     0.815880     3 ; from NG2S1 CG321 CG331 HGA3, PENALTY= 1 I4G BXT FHO
   NG2S1    CG321    CG331     HGA3     9     0.000000     0.815880     3 ; DECB, diethyl carbamate, cacha
   NG2S3    CG321    CG331     HGA3     9     0.000000     0.815880     3 ; NESM, N-ethyl-sulfamate; from NG2S1 CG321 CG331 HGA3; my
   NG301    CG321    CG331     HGA3     9     0.000000     0.753120     3 ; flavin
   NG311    CG321    CG331     HGA3     9     0.000000     0.669440     3 ; PEI polymers, default parameter, kevo
   OG301    CG321    CG331     HGA3     9     0.000000     0.669440     3 ; alkane, 4/98, yin and mackerell
   OG302    CG321    CG331     HGA3     9     0.000000     0.815880     3 ; PROT alkane update, adm jr., 3/2/92
   OG303    CG321    CG331     HGA3     9     0.000000     0.669440     3 ; PROT rotation barrier in Ethane (SF)
   OG311    CG321    CG331     HGA3     9     0.000000     0.669440     3 ; PROT rotation barrier in Ethane (SF)
   OG312    CG321    CG331     HGA3     9     0.000000     0.669440     3 ; PROT rotation barrier in Ethane (SF)
   SG2P1    CG321    CG331     HGA3     9     0.000000     0.526766     3 ; CSPP, by ac_aa
   SG301    CG321    CG331     HGA3     9     0.000000     0.041840     3 ; PROT DTN 8/24/90
   SG311    CG321    CG331     HGA3     9     0.000000     0.669440     3 ; PROT rotation barrier in Ethane (SF)
   SG3O1    CG321    CG331     HGA3     9     0.000000     0.460240     3 ; ESNA, ethyl sulfonate, xhe
   SG3O2    CG321    CG331     HGA3     9     0.000000     0.322168     3 ; EESM, N-ethylethanesulfonamide; MESN, methyl ethyl sulfone; xxwy & xhe
   SG3O3    CG321    CG331     HGA3     9     0.000000     0.669440     3 ; MESO, methylethylsulfoxide; default parameter; kevo
   CLGA1    CG321    CG331     HGA3     9     0.000000     1.255200     3 ; CLET
   BRGA1    CG321    CG331     HGA3     9     0.000000     1.255200     3 ; BRET
   BG201    CG321    CG331     HGA3     9   180.000000     0.579902     1 ; BORE,BONE,BNNE Boronic acid, sr
    HGA2    CG321    CG331     HGA3     9     0.000000     0.669440     3 ; PROT rotation barrier in Ethane (SF)
   CG331    CG321   CG3C31   CG3C31     9     0.000000     0.000000     3 ; 1BOX, 1-butene oxide, kevo
   CG331    CG321   CG3C31   OG3C31     9   180.000000     1.966480     1 ; 1BOX, 1-butene oxide, kevo
   CG331    CG321   CG3C31   OG3C31     9     0.000000     0.543920     3 ; 1BOX, 1-butene oxide, kevo
   CG331    CG321   CG3C31     HGA1     9     0.000000     0.753120     1 ; 1BOX, 1-butene oxide, kevo
   CG331    CG321   CG3C31     HGA1     9     0.000000     4.476880     3 ; 1BOX, 1-butene oxide, kevo
    HGA2    CG321   CG3C31   CG3C31     9     0.000000     0.041840     1 ; 1BOX, 1-butene oxide, kevo
    HGA2    CG321   CG3C31   CG3C31     9     0.000000     0.083680     3 ; 1BOX, 1-butene oxide, kevo
    HGA2    CG321   CG3C31   OG3C31     9     0.000000     2.092000     1 ; 1BOX, 1-butene oxide, kevo
    HGA2    CG321   CG3C31   OG3C31     9     0.000000     1.129680     3 ; 1BOX, 1-butene oxide, kevo
    HGA2    CG321   CG3C31     HGA1     9     0.000000     0.000000     3 ; 1BOX, 1-butene oxide; kept at 0; sc
   CG321    CG321   CG3C50   CG2R53     9   180.000000     3.347200     4 ; MSCH model for D3R, xxwy
   CG321    CG321   CG3C50   CG2RC0     9   180.000000     3.347200     4 ; MSCH model for D3R, xxwy
   CG321    CG321   CG3C50    CG321     9     0.000000     1.673600     3 ; MSCH model for D3R, xxwy
    HGA2    CG321   CG3C50   CG2R53     9     0.000000     0.000000     3 ; MSCH model for D3R, xxwy
    HGA2    CG321   CG3C50   CG2RC0     9     0.000000     0.000000     3 ; MSCH model for D3R, xxwy
    HGA2    CG321   CG3C50    CG321     9     0.000000     0.000000     3 ; MSCH model for D3R, xxwy
   OG301    CG321   CG3C51   CG3C52     9   180.000000     0.836800     3 ; 3POMP, 3-phenoxymethylpyrrolidine; from NA, sugar; kevo
   OG301    CG321   CG3C51     HGA1     9     0.000000     0.815880     3 ; 3POMP, 3-phenoxymethylpyrrolidine; from NA, sugar; kevo
   OG303    CG321   CG3C51   CG3C51     9   180.000000    10.460000     1 ; NA, sugar
   OG303    CG321   CG3C51   CG3C51     9     0.000000     1.673600     2 ; NA, sugar
   OG303    CG321   CG3C51   CG3C51     9   180.000000     3.347200     3 ; NA, sugar
   OG303    CG321   CG3C51   CG3C51     9   180.000000     0.836800     4 ; NA, sugar
   OG303    CG321   CG3C51   CG3C52     9   180.000000     0.836800     3 ; NA, sugar
   OG303    CG321   CG3C51   CG3RC1     9     0.000000     0.627600     3 ; CARBOCY carbocyclic sugars
   OG303    CG321   CG3C51   OG3C51     9   180.000000    14.225600     1 ; NA, sugar
   OG303    CG321   CG3C51     HGA1     9     0.000000     0.815880     3 ; NA, sugar
   OG311    CG321   CG3C51   CG3C51     9   180.000000    10.460000     1 ; NA, sugar
   OG311    CG321   CG3C51   CG3C51     9     0.000000     1.673600     2 ; NA, sugar
   OG311    CG321   CG3C51   CG3C51     9   180.000000     3.347200     3 ; NA, sugar
   OG311    CG321   CG3C51   CG3C51     9   180.000000     0.836800     4 ; NA, sugar
   OG311    CG321   CG3C51   CG3C52     9   180.000000     0.836800     3 ; CARBOCY carbocyclic sugars
   OG311    CG321   CG3C51   OG3C51     9   180.000000    14.225600     1 ; NA, sugar
   OG311    CG321   CG3C51     HGA1     9     0.000000     0.815880     3 ; NA, sugar
   SG311    CG321   CG3C51   CG3C51     9   180.000000    10.460000     1 ; PROTNA sahc
   SG311    CG321   CG3C51   CG3C51     9     0.000000     1.673600     2 ; PROTNA sahc
   SG311    CG321   CG3C51   CG3C51     9   180.000000     3.347200     3 ; PROTNA sahc
   SG311    CG321   CG3C51   CG3C51     9   180.000000     0.836800     4 ; PROTNA sahc
   SG311    CG321   CG3C51   OG3C51     9   180.000000    14.225600     1 ; PROTNA sahc
   SG311    CG321   CG3C51     HGA1     9     0.000000     0.815880     3 ; PROTNA sahc
    HGA2    CG321   CG3C51   CG3C51     9     0.000000     0.669440     3 ; alkane, 4/98, yin and mackerell, tf2m viv
    HGA2    CG321   CG3C51   CG3C52     9     0.000000     0.669440     3 ; alkane, 4/98, yin and mackerell, tf2m viv
    HGA2    CG321   CG3C51   CG3RC1     9     0.000000     0.627600     3 ; CARBOCY carbocyclic sugars
    HGA2    CG321   CG3C51   OG3C51     9     0.000000     0.669440     3 ; alkane, 4/98, yin and mackerell, tf2m viv
    HGA2    CG321   CG3C51     HGA1     9     0.000000     0.669440     3 ; alkane, 4/98, yin and mackerell, tf2m viv
   CG321    CG321   CG3RC1    CG331     9     0.000000     0.836800     3 ; BAM1, bile acid steroidal C-D ring, cacha, 02/08
   CG321    CG321   CG3RC1   CG3C51     9     0.000000     0.661072     3 ; BAM1, bile acid steroidal C-D ring, cacha, 02/08
   CG321    CG321   CG3RC1   CG3C52     9     0.000000     0.836800     3 ; BAM1, bile acid steroidal C-D ring, cacha, 02/08
   CG321    CG321   CG3RC1   CG3RC1     9     0.000000     0.627600     3 ; CARBOCY carbocyclic sugars
   CG321    CG321   CG3RC1     HGA1     9     0.000000     0.627600     3 ; CARBOCY carbocyclic sugars
   OG303    CG321   CG3RC1   CG3C31     9   180.000000     0.627600     1 ; CARBOCY carbocyclic sugars
   OG303    CG321   CG3RC1   CG3C51     9     0.000000     2.092000     2 ; CARBOCY carbocyclic sugars
   OG303    CG321   CG3RC1   CG3RC1     9     0.000000     2.510400     1 ; CARBOCY carbocyclic sugars
   OG303    CG321   CG3RC1   CG3RC1     9     0.000000     1.882800     2 ; CARBOCY carbocyclic sugars
   OG303    CG321   CG3RC1   CG3RC1     9     0.000000     2.928800     3 ; CARBOCY carbocyclic sugars
    HGA2    CG321   CG3RC1    CG331     9     0.000000     0.794960     3 ; BAM1, bile acid steroidal C-D ring, cacha, 02/08
    HGA2    CG321   CG3RC1   CG3C31     9     0.000000     0.815880     3 ; CARBOCY carbocyclic sugars
    HGA2    CG321   CG3RC1   CG3C51     9     0.000000     0.815880     3 ; CARBOCY carbocyclic sugars
    HGA2    CG321   CG3RC1   CG3C52     9     0.000000     0.815880     1 ; BAM1, bile acid steroidal C-D ring, cacha, 02/08
    HGA2    CG321   CG3RC1   CG3RC1     9     0.000000     0.627600     3 ; CARBOCY carbocyclic sugars
    HGA2    CG321   CG3RC1     HGA1     9     0.000000     0.627600     3 ; CARBOCY carbocyclic sugars
   CG321    CG321    NG1T1    NG1T1     9     0.000000     1.529670     3 ; AZH, by ac_aa
   CG331    CG321    NG1T1    NG1T1     9     0.000000     2.541780     1 ; AZDA, by ac_aa
   CG331    CG321    NG1T1    NG1T1     9     0.000000     1.704562     3 ; AZDA, by ac_aa
    HGA2    CG321    NG1T1    NG1T1     9   180.000000     0.112968     1 ; AZDA, by ac_aa
   CG311    CG321    NG2D1    CG2O1     9     0.000000     2.759348     1 ; ABMM, amide base, from CG331  CG321  NG2D1  CG2O1, sr
   CG311    CG321    NG2D1    CG2O1     9     0.000000     0.208363     2 ; ABMM, amide base, from CG331  CG321  NG2D1  CG2O1, sr
   CG311    CG321    NG2D1    CG2O1     9   180.000000     6.755068     3 ; ABMM, amide base, from CG331  CG321  NG2D1  CG2O1, sr
   CG321    CG321    NG2D1    CG2D1     9     0.000000     2.552240     1 ; EEPI, fylin
   CG321    CG321    NG2D1    CG2D1     9   180.000000     2.594080     2 ; EEPI, fylin
   CG321    CG321    NG2D1    CG2D1     9     0.000000     1.046000     3 ; EEPI, fylin
   CG321    CG321    NG2D1    CG2D1     9     0.000000     2.510400     4 ; EEPI, fylin
   CG321    CG321    NG2D1    CG2D1     9     0.000000     1.046000     6 ; EEPI, fylin
   CG321    CG321    NG2D1   CG2D1O     9     0.000000     2.552240     1 ; from CG321 CG321 NG2D1 CG2D1, PENALTY= 3 FZN
   CG321    CG321    NG2D1   CG2D1O     9   180.000000     2.594080     2 ; from CG321 CG321 NG2D1 CG2D1, PENALTY= 3 FZN
   CG321    CG321    NG2D1   CG2D1O     9     0.000000     1.046000     3 ; from CG321 CG321 NG2D1 CG2D1, PENALTY= 3 FZN
   CG321    CG321    NG2D1   CG2D1O     9     0.000000     2.510400     4 ; from CG321 CG321 NG2D1 CG2D1, PENALTY= 3 FZN
   CG321    CG321    NG2D1   CG2D1O     9     0.000000     1.046000     6 ; from CG321 CG321 NG2D1 CG2D1, PENALTY= 3 FZN
   CG321    CG321    NG2D1   CG2D2O     9     0.000000     2.552240     1 ; from CG321 CG321 NG2D1 CG2D1, PENALTY= 3 FZN
   CG321    CG321    NG2D1   CG2D2O     9   180.000000     2.594080     2 ; from CG321 CG321 NG2D1 CG2D1, PENALTY= 3 FZN
   CG321    CG321    NG2D1   CG2D2O     9     0.000000     1.046000     3 ; from CG321 CG321 NG2D1 CG2D1, PENALTY= 3 FZN
   CG321    CG321    NG2D1   CG2D2O     9     0.000000     2.510400     4 ; from CG321 CG321 NG2D1 CG2D1, PENALTY= 3 FZN
   CG321    CG321    NG2D1   CG2D2O     9     0.000000     1.046000     6 ; from CG321 CG321 NG2D1 CG2D1, PENALTY= 3 FZN
   CG321    CG321    NG2D1   CG2DC1     9     0.000000     2.552240     1 ; from CG321 CG321 NG2D1 CG2D1, PENALTY= 0.5 IT1 LLP MCL
   CG321    CG321    NG2D1   CG2DC1     9   180.000000     2.594080     2 ; from CG321 CG321 NG2D1 CG2D1, PENALTY= 0.5 IT1 LLP MCL
   CG321    CG321    NG2D1   CG2DC1     9     0.000000     1.046000     3 ; from CG321 CG321 NG2D1 CG2D1, PENALTY= 0.5 IT1 LLP MCL
   CG321    CG321    NG2D1   CG2DC1     9     0.000000     2.510400     4 ; from CG321 CG321 NG2D1 CG2D1, PENALTY= 0.5 IT1 LLP MCL
   CG321    CG321    NG2D1   CG2DC1     9     0.000000     1.046000     6 ; from CG321 CG321 NG2D1 CG2D1, PENALTY= 0.5 IT1 LLP MCL
   CG321    CG321    NG2D1   CG2DC2     9     0.000000     2.552240     1 ; from CG321 CG321 NG2D1 CG2D1, PENALTY= 0.5 IT1 LLP MCL
   CG321    CG321    NG2D1   CG2DC2     9   180.000000     2.594080     2 ; from CG321 CG321 NG2D1 CG2D1, PENALTY= 0.5 IT1 LLP MCL
   CG321    CG321    NG2D1   CG2DC2     9     0.000000     1.046000     3 ; from CG321 CG321 NG2D1 CG2D1, PENALTY= 0.5 IT1 LLP MCL
   CG321    CG321    NG2D1   CG2DC2     9     0.000000     2.510400     4 ; from CG321 CG321 NG2D1 CG2D1, PENALTY= 0.5 IT1 LLP MCL
   CG321    CG321    NG2D1   CG2DC2     9     0.000000     1.046000     6 ; from CG321 CG321 NG2D1 CG2D1, PENALTY= 0.5 IT1 LLP MCL
   CG321    CG321    NG2D1    CG2N2     9   180.000000     0.794960     1 ; DH3T, fylin
   CG321    CG321    NG2D1    CG2N2     9   180.000000     1.422560     2 ; DH3T, fylin
   CG321    CG321    NG2D1    CG2N2     9   180.000000     2.343040     3 ; DH3T, fylin
   CG321    CG321    NG2D1    CG2N2     9     0.000000     0.502080     4 ; DH3T, fylin
   CG321    CG321    NG2D1    CG2N2     9   180.000000     0.502080     6 ; DH3T, fylin
   CG321    CG321    NG2D1    CG2O1     9     0.000000     2.759348     1 ; ABMM, amide base, from CG331  CG321  NG2D1  CG2O1, sr
   CG321    CG321    NG2D1    CG2O1     9     0.000000     0.208363     2 ; ABMM, amide base, from CG331  CG321  NG2D1  CG2O1, sr
   CG321    CG321    NG2D1    CG2O1     9   180.000000     6.755068     3 ; ABMM, amide base, from CG331  CG321  NG2D1  CG2O1, sr
   CG331    CG321    NG2D1   CG2DC1     9     0.000000     2.552240     1 ; from CG321 CG321 NG2D1 CG2D1, penalty= 1.4 IT1P MCL
   CG331    CG321    NG2D1   CG2DC1     9   180.000000     2.594080     2 ; from CG321 CG321 NG2D1 CG2D1, penalty= 1.4 IT1P MCL
   CG331    CG321    NG2D1   CG2DC1     9     0.000000     1.046000     3 ; from CG321 CG321 NG2D1 CG2D1, penalty= 1.4 IT1P MCL
   CG331    CG321    NG2D1   CG2DC1     9     0.000000     2.510400     4 ; from CG321 CG321 NG2D1 CG2D1, penalty= 1.4 IT1P MCL
   CG331    CG321    NG2D1   CG2DC1     9     0.000000     1.046000     6 ; from CG321 CG321 NG2D1 CG2D1, penalty= 1.4 IT1P MCL
   CG331    CG321    NG2D1   CG2DC2     9     0.000000     2.552240     1 ; from CG321 CG321 NG2D1 CG2D1, penalty= 1.4 IT1P MCL
   CG331    CG321    NG2D1   CG2DC2     9   180.000000     2.594080     2 ; from CG321 CG321 NG2D1 CG2D1, penalty= 1.4 IT1P MCL
   CG331    CG321    NG2D1   CG2DC2     9     0.000000     1.046000     3 ; from CG321 CG321 NG2D1 CG2D1, penalty= 1.4 IT1P MCL
   CG331    CG321    NG2D1   CG2DC2     9     0.000000     2.510400     4 ; from CG321 CG321 NG2D1 CG2D1, penalty= 1.4 IT1P MCL
   CG331    CG321    NG2D1   CG2DC2     9     0.000000     1.046000     6 ; from CG321 CG321 NG2D1 CG2D1, penalty= 1.4 IT1P MCL
   CG331    CG321    NG2D1    CG2N2     9     0.000000     0.794960     1 ; MT2A, fylin
   CG331    CG321    NG2D1    CG2N2     9   180.000000     1.422560     2 ; MT2A, fylin
   CG331    CG321    NG2D1    CG2N2     9   180.000000     2.343040     3 ; MT2A, fylin
   CG331    CG321    NG2D1    CG2N2     9     0.000000     0.502080     4 ; MT2A, fylin
   CG331    CG321    NG2D1    CG2N2     9   180.000000     0.502080     6 ; MT2A, fylin
   CG331    CG321    NG2D1    CG2O1     9     0.000000     2.759348     1 ; ABMM, amide base, sr
   CG331    CG321    NG2D1    CG2O1     9     0.000000     0.208363     2 ; ABMM, amide base, sr
   CG331    CG321    NG2D1    CG2O1     9   180.000000     6.755068     3 ; ABMM, amide base, sr
    HGA2    CG321    NG2D1    CG2D1     9     0.000000     0.418400     3 ; EEPI, from HGA3 CG331 NG2D1 CG2D1, fylin
    HGA2    CG321    NG2D1   CG2D1O     9     0.000000     0.418400     3 ; from HGA2 CG321 NG2D1 CG2D1, PENALTY= 3 FZN
    HGA2    CG321    NG2D1   CG2D2O     9     0.000000     0.418400     3 ; from HGA2 CG321 NG2D1 CG2D1, PENALTY= 3 FZN
    HGA2    CG321    NG2D1   CG2DC1     9     0.000000     0.418400     3 ; from HGA2 CG321 NG2D1 CG2D1, PENALTY= 0.5 IT1 IT1P LLP
    HGA2    CG321    NG2D1   CG2DC2     9     0.000000     0.418400     3 ; from HGA2 CG321 NG2D1 CG2D1, PENALTY= 0.5 IT1 IT1P LLP
    HGA2    CG321    NG2D1    CG2N2     9   180.000000     0.460240     3 ; MT2A, from HGA3 CG331 NG2D1 CG2N1, fylin
    HGA2    CG321    NG2D1    CG2O1     9   180.000000     0.460240     3 ; ABMM, amide base, sr
   CG2O1    CG321   NG2R51   CG2R51     9   180.000000     3.743425     1 ; B2H, by ac_aa
   CG2O1    CG321   NG2R51   CG2R51     9   180.000000     1.776526     2 ; B2H, by ac_aa
   CG2O1    CG321   NG2R51   CG2R51     9     0.000000     2.025893     3 ; B2H, by ac_aa
   CG2O1    CG321   NG2R51   CG2R53     9   180.000000     2.316262     1 ; XYG, by ac_aa
   CG2O1    CG321   NG2R51   CG2R53     9     0.000000     2.335927     2 ; XYG, by ac_aa
   CG2O1    CG321   NG2R51   CG2R53     9     0.000000     0.856046     3 ; XYG, by ac_aa
   CG2O4    CG321   NG2R51   CG2R51     9     0.000000     2.780268     1 ; C12, by ac_aa
   CG2O4    CG321   NG2R51   CG2R51     9     0.000000    15.134783     2 ; C12, by ac_aa
   CG2O4    CG321   NG2R51   CG2R51     9     0.000000     5.473090     3 ; C12, by ac_aa
   CG2O4    CG321   NG2R51   CG2R53     9   180.000000     4.195297     1 ; C12, by ac_aa
   CG2O4    CG321   NG2R51   CG2R53     9   180.000000    13.788790     2 ; C12, by ac_aa
   CG2O4    CG321   NG2R51   CG2R53     9     0.000000     6.733311     3 ; C12, by ac_aa
   CG331    CG321   NG2R51   CG2R51     9     0.000000     1.610840     1 ; ETRZ, 1-Ethyl-1,2,3-triazole, kevo
   CG331    CG321   NG2R51   CG2R51     9     0.000000     1.757280     2 ; ETRZ, 1-Ethyl-1,2,3-triazole, kevo
   CG331    CG321   NG2R51   CG2R51     9     0.000000     0.334720     3 ; ETRZ, 1-Ethyl-1,2,3-triazole, kevo
   CG331    CG321   NG2R51   CG2R51     9     0.000000     0.230120     4 ; ETRZ, 1-Ethyl-1,2,3-triazole, kevo
   CG331    CG321   NG2R51   CG2R53     9     0.000000     1.610840     1 ; from CG331 CG321 NG2R51 CG2R51, penalty= 2.5 TRZ4
   CG331    CG321   NG2R51   CG2R53     9     0.000000     1.757280     2 ; from CG331 CG321 NG2R51 CG2R51, penalty= 2.5 TRZ4
   CG331    CG321   NG2R51   CG2R53     9     0.000000     0.334720     3 ; from CG331 CG321 NG2R51 CG2R51, penalty= 2.5 TRZ4
   CG331    CG321   NG2R51   CG2R53     9     0.000000     0.230120     4 ; from CG331 CG321 NG2R51 CG2R51, penalty= 2.5 TRZ4
   CG331    CG321   NG2R51   NG2R50     9   180.000000     1.610840     1 ; ETRZ, 1-Ethyl-1,2,3-triazole, kevo
   CG331    CG321   NG2R51   NG2R50     9     0.000000     1.757280     2 ; ETRZ, 1-Ethyl-1,2,3-triazole, kevo
   CG331    CG321   NG2R51   NG2R50     9   180.000000     0.334720     3 ; ETRZ, 1-Ethyl-1,2,3-triazole, kevo
   CG331    CG321   NG2R51   NG2R50     9     0.000000     0.230120     4 ; ETRZ, 1-Ethyl-1,2,3-triazole, kevo
    HGA2    CG321   NG2R51   CG2R51     9     0.000000     0.000000     3 ; ETRZ, 1-Ethyl-1,2,3-triazole, from HGA3 CG331 NG2R51 CG2R53, kevo
    HGA2    CG321   NG2R51   CG2R53     9     0.000000     0.000000     3 ; from HGA2 CG321 NG2R51 CG2R51, PENALTY= 2.5 CRQ SWG CRF B2H CRO MDO C12 TRZ4
    HGA2    CG321   NG2R51   NG2R50     9     0.000000     0.000000     3 ; ETRZ, 1-Ethyl-1,2,3-triazole, from HGA3 CG331 NG2R51 CG2R53, kevo
   CG2O1    CG321   NG2R53   CG2R53     9   180.000000     0.000000     1 ; from CG2O2 CG311 NG2R53 CG2R53, penalty= 5.5 SUI
   CG331    CG321   NG2R53   CG2R53     9     0.000000     0.000000     1 ; from CG321 CG311 NG2R53 CG2R53, penalty= 4.9 6V1
    HGA2    CG321   NG2R53   CG2R53     9     0.000000     0.000000     1 ; from HGA1 CG311 NG2R53 CG2R53, penalty= 4.1 6V1 SUI
   CG311    CG321   NG2R61   CG2R61     9     0.000000     7.070960     1 ; flavin
   CG311    CG321   NG2R61   CG2R64     9     0.000000     7.280160     1 ; flavin
   CG321    CG321   NG2R61   CG2R63     9     0.000000     2.092000     2 ; 3AU, yxu, RNA
   CG331    CG321   NG2R61   CG2R61     9     0.000000     7.070960     1 ; flavin
   CG331    CG321   NG2R61   CG2R64     9     0.000000     7.280160     1 ; flavin
    HGA2    CG321   NG2R61   CG2R61     9     0.000000     0.000000     3 ; flavin
    HGA2    CG321   NG2R61   CG2R63     9     0.000000     0.209200     6 ; 3AU, yxu, RNA
    HGA2    CG321   NG2R61   CG2R64     9     0.000000     0.000000     3 ; flavin
   CG2O1    CG321    NG2S0    CG2O1     9   180.000000     0.836800     1 ; from CG2O1 CG321 NG2S1 CG2O1, PENALTY= 10 I4G
   CG2O1    CG321    NG2S0    CG321     9     0.000000    13.003454     1 ; I4G, by ac_aa
   CG311    CG321    NG2S0    CG2O6     9     0.000000     0.000000     3 ; MDU, yxu, RNA
   CG311    CG321    NG2S0    CG321     9     0.000000     5.913666     1 ; from CG331 CG321 NG2S0 CG321, I4G
   CG311    CG321    NG2S0    CG321     9     0.000000     5.360541     2 ; from CG331 CG321 NG2S0 CG321, I4G
   CG311    CG321    NG2S0    CG331     9   180.000000     0.418400     3 ; MDU, from H2U_m, yxu, 8/8,13, RNA
   CG321    CG321    NG2S0    CG2O1     9     0.000000     7.531200     1 ; from CG321 CG321 NG2S1 CG2O1, PENALTY= 10 FHO
   CG321    CG321    NG2S0    CG2O6     9     0.000000     0.000000     3 ; H2U, yxu, RNA
   CG321    CG321    NG2S0    CG331     9   180.000000     0.418400     3 ; H2U_m, yxu, 8/8,13, RNA
   CG321    CG321    NG2S0    OG311     9     0.000000     2.502032     1 ; from OG311 NG2S0 CG321 CG331, FHO
   CG331    CG321    NG2S0    CG2O1     9     0.000000     7.531200     1 ; from CG321 CG321 NG2S1 CG2O1, PENALTY= 10.9 I4G
   CG331    CG321    NG2S0    CG2O6     9   180.000000     1.464400     1 ; from CG331 CG321 NG2S1 CG2O6, PENALTY= 10 BXT
   CG331    CG321    NG2S0    CG2O6     9     0.000000     3.138000     2 ; from CG331 CG321 NG2S1 CG2O6, PENALTY= 10 BXT
   CG331    CG321    NG2S0    CG2O6     9     0.000000     0.627600     4 ; from CG331 CG321 NG2S1 CG2O6, PENALTY= 10 BXT
   CG331    CG321    NG2S0    CG321     9     0.000000     5.913666     1 ; I4G, by ac_aa
   CG331    CG321    NG2S0    CG321     9     0.000000     5.360541     2 ; I4G, by ac_aa
   CG331    CG321    NG2S0    CG331     9     0.000000     0.825922     1 ; BXT, by ac_aa
   CG331    CG321    NG2S0    OG311     9     0.000000     2.502032     1 ; FHO, by ac_aa
    HGA2    CG321    NG2S0    CG2O1     9     0.000000     0.000000     3 ; from HGA3 CG331 NG2S0 CG2O1, PENALTY= 6 I4G FHO
    HGA2    CG321    NG2S0    CG2O6     9     0.000000     0.000000     3 ; H2U, yxu, RNA
    HGA2    CG321    NG2S0    CG321     9     0.000000     1.757280     3 ; from HGA3 CG331 NG2S0 CG331, PENALTY= 6.9 I4G
    HGA2    CG321    NG2S0    CG331     9     0.000000     1.338880     3 ; H2U_m, yxu, 8/8,13, RNA
    HGA2    CG321    NG2S0    OG311     9     0.000000     3.854301     3 ; FHO, by ac_aa
   CG2O1    CG321    NG2S1    CG2O1     9   180.000000     0.836800     1 ; PROT ala dipeptide, new C VDW Rmin, adm jr., 3/3/93c
   CG2O1    CG321    NG2S1     HGP1     9     0.000000     0.000000     1 ; PROT Alanine Dipeptide ab initio calc's (LK)
   CG2O2    CG321    NG2S1    CG2O1     9   180.000000     0.836800     1 ; PROT Alanine dipeptide; NMA; acetate; etc. backbon adm jr., 3/3/93c
   CG2O2    CG321    NG2S1    CG2O6     9   180.000000     0.836800     1 ; 6GA, from CG2O3 CG321 NG2S1 CG2O1, yxu, RNA
   CG2O2    CG321    NG2S1     HGP1     9     0.000000     0.000000     1 ; PROT adm jr. 5/02/91, acetic Acid pure solvent
   CG2O3    CG321    NG2S1    CG2O1     9   180.000000     0.836800     1 ; PROT Alanine dipeptide; NMA; acetate; etc. adm jr., 3/3/93c
   CG2O3    CG321    NG2S1    CG2O6     9   180.000000     0.836800     1 ; 6GA, from CG2O3 CG321 NG2S1 CG2O1, yxu, RNA
   CG2O3    CG321    NG2S1     HGP1     9     0.000000     0.000000     1 ; PROT Alanine dipeptide; NMA; acetate; etc. backbone param. RLD 3/22/92
  CG2R53    CG321    NG2S1     HGP1     9     0.000000     0.000000     1 ; from CG2R61 CG321 NG2S1 HGP1, PENALTY= 8.5 CR2
  CG2R61    CG321    NG2S1    CG2O1     9     0.000000     0.062760     1 ; NZAD, N-benzylacetamide, isg
  CG2R61    CG321    NG2S1    CG2O1     9     0.000000     1.246832     2 ; NZAD, N-benzylacetamide, isg
  CG2R61    CG321    NG2S1    CG2O1     9   180.000000     0.317984     3 ; NZAD, N-benzylacetamide, isg
  CG2R61    CG321    NG2S1    CG2O1     9     0.000000     2.589896     4 ; NZAD, N-benzylacetamide, isg
  CG2R61    CG321    NG2S1    CG2O1     9     0.000000     0.619232     6 ; NZAD, N-benzylacetamide, isg
  CG2R61    CG321    NG2S1     HGP1     9     0.000000     0.000000     1 ; NZAD, N-benzylacetamide; from CG2O2 CG321 NG2S1 HGP1; isg
   CG311    CG321    NG2S1    CG2O1     9     0.000000     7.531200     1 ; G4MP, Gamma-4-Methyl Piperidine Glu Acid CDCA Amide, cacha
   CG311    CG321    NG2S1     HGP1     9     0.000000     0.000000     1 ; G4MP, Gamma-4-Methyl Piperidine Glu Acid CDCA Amide, cacha
   CG314    CG321    NG2S1    CG2O1     9     0.000000     7.531200     1 ; 3MRB, Gamma-3 methyl piperidine, alpha-benzyl GA CDCA amide, cacha
   CG314    CG321    NG2S1     HGP1     9     0.000000     0.000000     1 ; 3MRB, Gamma-3 methyl piperidine, alpha-benzyl GA CDCA amide, cacha
   CG321    CG321    NG2S1    CG2O1     9     0.000000     7.531200     1 ; slack parameter picked up by 3CPD ==> re-optimize?
   CG321    CG321    NG2S1    CG2O3     9     0.000000     7.531200     1 ; from CG321 CG321 NG2S1 CG2O1, penalty= 7.5 KCX
   CG321    CG321    NG2S1    CG2O6     9   180.000000     1.464400     1 ; from CG331 CG321 NG2S1 CG2O6, PENALTY= 0.9 CIR THIC
   CG321    CG321    NG2S1    CG2O6     9     0.000000     3.138000     2 ; from CG331 CG321 NG2S1 CG2O6, PENALTY= 0.9 CIR THIC
   CG321    CG321    NG2S1    CG2O6     9     0.000000     0.627600     4 ; from CG331 CG321 NG2S1 CG2O6, PENALTY= 0.9 CIR THIC
   CG321    CG321    NG2S1     HGP1     9     0.000000     0.000000     1 ; PROT from HGP1   NG2S1  CG321  CT3, for lactams, adm jr.
   CG331    CG321    NG2S1    CG2O1     9     0.000000     2.592406     2 ; 4HH, by ac_aa
   CG331    CG321    NG2S1    CG2O1     9   180.000000     0.745589     3 ; 4HH, by ac_aa
   CG331    CG321    NG2S1    CG2O6     9   180.000000     1.464400     1 ; DECB, diethyl carbamate, cacha & xxwy
   CG331    CG321    NG2S1    CG2O6     9     0.000000     3.138000     2 ; DECB, diethyl carbamate, cacha & xxwy
   CG331    CG321    NG2S1    CG2O6     9     0.000000     0.627600     4 ; DECB, diethyl carbamate, cacha & xxwy
   CG331    CG321    NG2S1     HGP1     9     0.000000     0.000000     1 ; PROT Alanine Dipeptide ab initio calc's (LK)
    HGA1    CG321    NG2S1    CG2O1     9     0.000000     0.000000     1 ; PROT Alanine Dipeptide ab initio calc's (LK)
    HGA1    CG321    NG2S1     HGP1     9     0.000000     0.000000     1 ; PROT Alanine Dipeptide ab initio calc's (LK)
    HGA2    CG321    NG2S1    CG2O1     9     0.000000     0.000000     3 ; PROT, sp2-methyl, no torsion potential
    HGA2    CG321    NG2S1    CG2O3     9     0.000000     0.000000     3 ; from HGA2 CG321 NG2S1 CG2O1, penalty= 7.5 KCX
    HGA2    CG321    NG2S1    CG2O6     9     0.000000     0.000000     3 ; DECB, diethyl carbamate, from DMCB, kevo
    HGA2    CG321    NG2S1     HGP1     9     0.000000     0.000000     3 ; PROT, sp2-methyl, no torsion potential
   CG321    CG321    NG2S3      PG1     9   180.000000     6.445870     1 ; from CG331 CG321 NG2S3 PG1, APK
   CG321    CG321    NG2S3      PG1     9     0.000000     0.384510     2 ; from CG331 CG321 NG2S3 PG1, APK
   CG321    CG321    NG2S3      PG1     9     0.000000     1.777782     3 ; from CG331 CG321 NG2S3 PG1, APK
   CG321    CG321    NG2S3     HGP1     9     0.000000     3.100344     1 ; from CG331 CG321 NG2S3 HGP1, PENALTY= 0.9 APK GPL
   CG321    CG321    NG2S3     HGP1     9     0.000000     1.343064     2 ; from CG331 CG321 NG2S3 HGP1, PENALTY= 0.9 APK GPL
   CG321    CG321    NG2S3     HGP1     9   180.000000     0.983240     3 ; from CG331 CG321 NG2S3 HGP1, PENALTY= 0.9 APK GPL
   CG331    CG321    NG2S3      PG1     9   180.000000     6.445870     1 ; APK, by ac_aa
   CG331    CG321    NG2S3      PG1     9     0.000000     0.384510     2 ; APK, by ac_aa
   CG331    CG321    NG2S3      PG1     9     0.000000     1.777782     3 ; APK, by ac_aa
   CG331    CG321    NG2S3    SG3O1     9   180.000000     3.158920     1 ; NESM, N-ethyl-sulfamate, my & kevo
   CG331    CG321    NG2S3    SG3O1     9     0.000000     3.623344     2 ; NESM, N-ethyl-sulfamate, my & kevo
   CG331    CG321    NG2S3    SG3O1     9     0.000000     2.627552     3 ; NESM, N-ethyl-sulfamate, my & kevo
   CG331    CG321    NG2S3    SG3O1     9   180.000000     0.631784     4 ; NESM, N-ethyl-sulfamate, my & kevo
   CG331    CG321    NG2S3    SG3O1     9     0.000000     0.472792     6 ; NESM, N-ethyl-sulfamate, my & kevo
   CG331    CG321    NG2S3     HGP1     9     0.000000     3.100344     1 ; NESM, N-ethyl-sulfamate, my & kevo
   CG331    CG321    NG2S3     HGP1     9     0.000000     1.343064     2 ; NESM, N-ethyl-sulfamate, my & kevo
   CG331    CG321    NG2S3     HGP1     9   180.000000     0.983240     3 ; NESM, N-ethyl-sulfamate, my & kevo
    HGA2    CG321    NG2S3      PG1     9     0.000000     0.627600     3 ; from HGA3 CG331 NG2S3 PG1, PENALTY= 6 APK GPL
    HGA2    CG321    NG2S3    SG3O1     9     0.000000     0.627600     3 ; NESM, N-ethyl-sulfamate; from HGA3 CG331 NG2S3 PG1; my
    HGA2    CG321    NG2S3     HGP1     9     0.000000     0.041840     3 ; NESM, N-ethyl-sulfamate; from HGA3 CG331 NG2S3 HGP1; my
  CG2R51    CG321    NG301    CG321     9   180.000000     5.941280     1 ; D3R set1 scaffold 2, xxwy
  CG2R51    CG321    NG301    CG321     9     0.000000     3.430880     2 ; D3R set1 scaffold 2, xxwy
  CG2R51    CG321    NG301    CG321     9     0.000000     4.267680     3 ; D3R set1 scaffold 2, xxwy
  CG2R51    CG321    NG301    SG3O2     9     0.000000     0.418400     1 ; D3R set1 scaffold 2, xxwy
  CG2R51    CG321    NG301    SG3O2     9     0.000000     2.928800     2 ; D3R set1 scaffold 2, xxwy
  CG2R51    CG321    NG301    SG3O2     9     0.000000     0.418400     3 ; D3R set1 scaffold 2, xxwy
   CG311    CG321    NG301   CG2R61     9   180.000000     1.840960     1 ; flavin
   CG311    CG321    NG301   CG2R61     9     0.000000     0.125520     2 ; flavin
   CG311    CG321    NG301   CG2R61     9     0.000000     0.041840     3 ; flavin
   CG311    CG321    NG301   CG2R64     9     0.000000     0.251040     2 ; flavin
   CG311    CG321    NG301   CG2R64     9     0.000000     1.966480     3 ; flavin
   CG321    CG321    NG301    CG321     9   180.000000     5.941280     1 ; TSPD model for D3R, xxwy
   CG321    CG321    NG301    CG321     9     0.000000     3.430880     2 ; TSPD model for D3R, xxwy
   CG321    CG321    NG301    CG321     9     0.000000     4.267680     3 ; TSPD model for D3R, xxwy
   CG321    CG321    NG301    SG3O2     9     0.000000     0.418400     1 ; TSPD model for D3R, xxwy
   CG321    CG321    NG301    SG3O2     9     0.000000     2.928800     2 ; TSPD model for D3R, xxwy
   CG321    CG321    NG301    SG3O2     9     0.000000     0.418400     3 ; TSPD model for D3R, xxwy
   CG331    CG321    NG301   CG2R61     9   180.000000     1.840960     1 ; flavin
   CG331    CG321    NG301   CG2R61     9     0.000000     0.125520     2 ; flavin
   CG331    CG321    NG301   CG2R61     9     0.000000     0.041840     3 ; flavin
   CG331    CG321    NG301   CG2R64     9     0.000000     0.251040     2 ; flavin
   CG331    CG321    NG301   CG2R64     9     0.000000     1.966480     3 ; flavin
    HGA2    CG321    NG301   CG2R61     9   180.000000     0.000000     3 ; flavin
    HGA2    CG321    NG301   CG2R64     9   180.000000     0.000000     3 ; flavin
    HGA2    CG321    NG301    CG321     9     0.000000     0.418400     3 ; TSPD model for D3R, xxwy
    HGA2    CG321    NG301    SG3O2     9     0.000000     0.418400     3 ; TSPD model for D3R, xxwy
   CG2D1    CG321    NG311   CG2R64     9   180.000000     8.368000     1 ; 6IA, yxu, RNA
   CG2D1    CG321    NG311   CG2R64     9   180.000000     1.255200     3 ; 6IA, yxu, RNA
   CG2D1    CG321    NG311    CG321     9   180.000000     4.602400     1 ; 5UNI, from penm, yxu, RNA
   CG2D1    CG321    NG311    CG321     9   180.000000     2.510400     2 ; 5UNI, from penm, yxu, RNA
   CG2D1    CG321    NG311    CG321     9     0.000000     2.092000     3 ; 5UNI, from penm, yxu, RNA
   CG2D1    CG321    NG311    CG331     9   180.000000     4.602400     1 ; penm, yxu, RNA
   CG2D1    CG321    NG311    CG331     9   180.000000     2.510400     2 ; penm, yxu, RNA
   CG2D1    CG321    NG311    CG331     9     0.000000     2.092000     3 ; penm, yxu, RNA
   CG2D1    CG321    NG311   HGPAM1     9     0.000000     2.008320     3 ; 6IA, yxu, RNA
   CG2O2    CG321    NG311    CG321     9     0.000000     8.368000     1 ; 5UHG, from nmgn, yxu, RNA
   CG2O2    CG321    NG311    CG321     9     0.000000     7.531200     2 ; 5UHG, from nmgn, yxu, RNA
   CG2O2    CG321    NG311    CG321     9     0.000000     2.092000     3 ; 5UHG, from nmgn, yxu, RNA
   CG2O2    CG321    NG311    CG331     9     0.000000     8.368000     1 ; nmgn, yxu, RNA
   CG2O2    CG321    NG311    CG331     9     0.000000     7.531200     2 ; nmgn, yxu, RNA
   CG2O2    CG321    NG311    CG331     9     0.000000     2.092000     3 ; nmgn, yxu, RNA
   CG2O2    CG321    NG311   HGPAM1     9   180.000000     2.510400     1 ; 5UHG, yxu, RNA
   CG2O2    CG321    NG311   HGPAM1     9     0.000000     1.255200     2 ; 5UHG, yxu, RNA
   CG2O2    CG321    NG311   HGPAM1     9     0.000000     2.092000     3 ; 5UHG, from nmgn, yxu, RNA
  CG2R51    CG321    NG311   CG3C51     9   180.000000    12.552000     1 ; 7GNM, yxu, RNA
  CG2R51    CG321    NG311   HGPAM1     9   180.000000     4.184000     2 ; 7GNM, yxu, RNA
  CG2R51    CG321    NG311   HGPAM1     9     0.000000     3.347200     3 ; 7GNM, yxu, RNA
  CG2R61    CG321    NG311    CG331     9   180.000000     3.347200     1 ; ambz, yxu, RNA
  CG2R61    CG321    NG311    CG331     9     0.000000     2.092000     2 ; ambz, yxu, RNA
  CG2R61    CG321    NG311    CG331     9     0.000000     2.928800     3 ; ambz, yxu, RNA
  CG2R61    CG321    NG311   HGPAM1     9     0.000000     1.255200     3 ; ambz, yxu, RNA
  CG2R62    CG321    NG311    CG321     9   180.000000     3.347200     1 ; 5UHG, from ambz, yxu, RNA
  CG2R62    CG321    NG311    CG321     9     0.000000     2.092000     2 ; 5UHG, from ambz, yxu, RNA
  CG2R62    CG321    NG311    CG321     9     0.000000     2.928800     3 ; 5UHG, from ambz, yxu, RNA
  CG2R62    CG321    NG311    CG331     9   180.000000     3.347200     1 ; 5UNM, from ambz, yxu, RNA
  CG2R62    CG321    NG311    CG331     9     0.000000     2.092000     2 ; 5UNM, from ambz, yxu, RNA
  CG2R62    CG321    NG311    CG331     9     0.000000     2.928800     3 ; 5UNM, from ambz, yxu, RNA
  CG2R62    CG321    NG311   HGPAM1     9     0.000000     1.255200     3 ; 5UHG, from ambz, yxu, RNA
   CG321    CG321    NG311   CG2R64     9   180.000000     3.347200     1 ; K2Cn, yxu, RNA
   CG321    CG321    NG311   CG2R64     9     0.000000     4.602400     3 ; K2Cn, yxu, RNA
   CG321    CG321    NG311    CG314     9   180.000000     5.941280     1 ; from CG321 CG321 NG301 CG321, PENALTY= 22, AGT
   CG321    CG321    NG311    CG314     9     0.000000     3.430880     2 ; from CG321 CG321 NG301 CG321, PENALTY= 22, AGT
   CG321    CG321    NG311    CG314     9     0.000000     4.267680     3 ; from CG321 CG321 NG301 CG321, PENALTY= 22, AGT
   CG321    CG321    NG311   HGPAM1     9     0.000000     1.255200     3 ; K2Cn, cgenff_compromise, kevo
   CG331    CG321    NG311    SG3O2     9     0.000000     0.418400     1 ; EESM, N-ethylethanesulfonamide, xxwy
   CG331    CG321    NG311    SG3O2     9     0.000000     2.928800     2 ; EESM, N-ethylethanesulfonamide, xxwy
   CG331    CG321    NG311    SG3O2     9     0.000000     0.418400     3 ; EESM, N-ethylethanesulfonamide, xxwy
   CG331    CG321    NG311     HGP1     9     0.000000     0.418400     3 ; EESM, N-ethylethanesulfonamide, xxwy
   NG311    CG321    NG311   CG2R61     9   180.000000    10.460000     1 ; AOBT, acyclic model introduced for OBTZ to optimize related dihedrals, xxwy
   NG311    CG321    NG311   CG2R61     9     0.000000     6.276000     2 ; AOBT, acyclic model introduced for OBTZ to optimize related dihedrals, xxwy
   NG311    CG321    NG311   CG2R61     9     0.000000     2.092000     3 ; AOBT, acyclic model introduced for OBTZ to optimize related dihedrals, xxwy
   NG311    CG321    NG311    SG3O2     9   180.000000     5.857600     1 ; AOBT, acyclic model introduced for OBTZ to optimize related dihedrals, xxwy
   NG311    CG321    NG311    SG3O2     9     0.000000     2.092000     2 ; AOBT, acyclic model introduced for OBTZ to optimize related dihedrals, xxwy
   NG311    CG321    NG311    SG3O2     9     0.000000     0.418400     3 ; AOBT, acyclic model introduced for OBTZ to optimize related dihedrals, xxwy
   NG311    CG321    NG311     HGP1     9     0.000000     0.418400     3 ; AOBT, acyclic model introduced for OBTZ to optimize related dihedrals, xxwy
   NG311    CG321    NG311   HGPAM1     9     0.000000     7.112800     2 ; AOBT, acyclic model introduced for OBTZ to optimize related dihedrals, xxwy
   NG311    CG321    NG311   HGPAM1     9     0.000000     1.255200     3 ; AOBT, acyclic model introduced for OBTZ to optimize related dihedrals, xxwy
    HGA2    CG321    NG311   CG2R61     9   180.000000     0.000000     3 ; AOBT, acyclic model introduced for OBTZ to optimize related dihedrals, xxwy
    HGA2    CG321    NG311   CG2R64     9   180.000000     0.209200     3 ; K2Cn, from HGA2 CG321 NG311 HGP1, yxu, RNA
    HGA2    CG321    NG311    CG314     9   180.000000     0.487854     3 ; from HGA3 CG331 NG311 CG314, AGT
    HGA2    CG321    NG311    CG321     9     0.000000     0.000000     3 ; 5UHG, cgenff_compromise, kevo
    HGA2    CG321    NG311    CG331     9     0.000000     1.673600     3 ; nmgn, yxu, RNA
    HGA2    CG321    NG311   CG3C51     9     0.000000     3.347200     3 ; 7GNM, yxu, RNA
    HGA2    CG321    NG311    SG3O2     9     0.000000     0.418400     3 ; EESM, N-ethylethanesulfonamide, xxwy
    HGA2    CG321    NG311     HGP1     9     0.000000     0.209200     3 ; EESM, N-ethylethanesulfonamide, xxwy
    HGA2    CG321    NG311   HGPAM1     9     0.000000     0.209200     3 ; PEI0, OBTZ, AOBT, kevo & xxwy
   CG2O2    CG321    NG321   HGPAM2     9     0.000000     0.669440     3 ; GLYN, Glycine neutral from AMINE aliphatic amines
  CG2R51    CG321    NG321   HGPAM2     9     0.000000     2.426720     1 ; 7GNA (idam), yxu, RNA
  CG2R51    CG321    NG321   HGPAM2     9     0.000000     2.970640     3 ; 7GNA (idam), yxu, RNA
  CG2R62    CG321    NG321   HGPAM2     9     0.000000     1.255200     3 ; 5UNA, from ambz, yxu, RNA
   CG321    CG321    NG321   HGPAM2     9     0.000000     3.347200     3 ; asbb, PC, 2020 , C13-C10-N9-H69
    HGA2    CG321    NG321   HGPAM2     9     0.000000     0.041840     3 ; amines
   CG311    CG321   NG3C51   CG3C51     9   180.000000    12.920610     1 ; PR4, by ac_aa
   CG311    CG321   NG3C51   CG3C51     9   180.000000     1.549754     2 ; PR4, by ac_aa
   CG311    CG321   NG3C51   CG3C51     9     0.000000     1.264823     3 ; PR4, by ac_aa
   CG311    CG321   NG3C51   CG3C52     9   180.000000     0.946002     1 ; PR4, by ac_aa
   CG311    CG321   NG3C51   CG3C52     9     0.000000     6.478924     2 ; PR4, by ac_aa
    HGA2    CG321   NG3C51   CG3C51     9     0.000000     0.639315     3 ; PR4, by ac_aa
    HGA2    CG321   NG3C51   CG3C52     9     0.000000     0.869017     3 ; PR4, by ac_aa
   CG2O2    CG321    OG301   CG2R61     9   180.000000     3.807440     1 ; oebz, yxu, RNA
   CG2O2    CG321    OG301   CG2R61     9     0.000000     2.092000     2 ; oebz, yxu, RNA
   CG2O2    CG321    OG301   CG2R62     9   180.000000     3.807440     1 ; OEU, from oebz, yxu, RNA
   CG2O2    CG321    OG301   CG2R62     9     0.000000     2.092000     2 ; OEU, from oebz, yxu, RNA
   CG2O2    CG321    OG301    CG331     9   180.000000     0.418400     1 ; moac, yxu, RNA
   CG2O2    CG321    OG301    CG331     9     0.000000     3.347200     2 ; moac, yxu, RNA
   CG2O2    CG321    OG301    CG331     9     0.000000     2.468560     3 ; moac, yxu, RNA
   CG2O3    CG321    OG301   CG2R61     9   180.000000     4.602400     1 ; atbz, yxu, 12/2015, RNA
   CG2O3    CG321    OG301   CG2R61     9   180.000000     0.836800     3 ; atbz, yxu, 12/2015, RNA
   CG2O3    CG321    OG301   CG2R62     9   180.000000     5.481040     1 ; OAU, from atbz, yxu, RNA
   CG2O3    CG321    OG301    CG331     9     0.000000     0.836800     3 ; moat, from CG2O3 CG311 OG301 CG331, not optimized, yxu, RNA
   CG321    CG321    OG301   CG2R61     9     0.000000     1.004160     1 ; PNTM, pentamidine; from ETOB, Ethoxybenzene; kevo
   CG321    CG321    OG301   CG2R61     9     0.000000     1.213360     2 ; PNTM, pentamidine; from ETOB, Ethoxybenzene; kevo
   CG321    CG321    OG301   CG2R61     9     0.000000     0.083680     3 ; PNTM, pentamidine; from ETOB, Ethoxybenzene; kevo
   CG321    CG321    OG301    CG321     9     0.000000     2.384880     1 ; 1,2 dimethoxyethane, 2/12/05, ATM
   CG321    CG321    OG301    CG321     9     0.000000     1.213360     2 ; 1,2 dimethoxyethane
   CG321    CG321    OG301    CG321     9     0.000000     1.799120     3 ; 1,2 dimethoxyethane
   CG321    CG321    OG301    CG331     9     0.000000     2.384880     1 ; 1,2 dimethoxyethane (DME), 2/12/05, ATM
   CG321    CG321    OG301    CG331     9     0.000000     1.213360     2 ; 1,2 dimethoxyethane (DME)
   CG321    CG321    OG301    CG331     9     0.000000     1.799120     3 ; 1,2 dimethoxyethane (DME)
   CG321    CG321    OG301    NG2D1     9   180.000000     1.559377     1 ; from NG2D1 OG301 CG321 CG331, GGB
   CG321    CG321    OG301    NG2D1     9     0.000000     3.033400     2 ; from NG2D1 OG301 CG321 CG331, GGB
   CG321    CG321    OG301    NG2D1     9     0.000000     0.094977     3 ; from NG2D1 OG301 CG321 CG331, GGB
   CG321    CG321    OG301    NG2P1     9     0.000000     0.707096     1 ; GGBP, by ac_aa, from NG2P1   OG301   CG321   CG331
   CG321    CG321    OG301    NG2P1     9     0.000000     1.129680     2 ; GGBP, by ac_aa, from NG2P1   OG301   CG321   CG331
   CG321    CG321    OG301    NG2P1     9     0.000000     3.029216     3 ; GGBP, by ac_aa, from NG2P1   OG301   CG321   CG331
   CG321    CG321    OG301    NG321     9   180.000000     1.758535     1 ; from NG321 OG301 CG321 CG331, CAN
   CG321    CG321    OG301    NG321     9   180.000000     3.739241     3 ; from NG321 OG301 CG321 CG331, CAN
   CG331    CG321    OG301   CG2R61     9     0.000000     1.004160     1 ; ETOB, Ethoxybenzene, cacha
   CG331    CG321    OG301   CG2R61     9     0.000000     1.213360     2 ; ETOB, Ethoxybenzene, cacha
   CG331    CG321    OG301   CG2R61     9     0.000000     0.083680     3 ; ETOB, Ethoxybenzene, cacha
   CG331    CG321    OG301    CG321     9     0.000000     1.673600     1 ; diethylether, 2/12/05, ATM
   CG331    CG321    OG301    CG321     9     0.000000     2.050160     3 ; diethylether
   CG331    CG321    OG301    CG331     9     0.000000     1.673600     1 ; diethylether, 2/12/05, ATM!from CCT3-CCT2-OCE-CG321  MEE viv
   CG331    CG321    OG301    CG331     9     0.000000     2.050160     3 ; diethylether              !from CCT3-CCT2-OCE-CG321  MEE viv
   CG331    CG321    OG301    NG2D1     9   180.000000     1.559377     1 ; GGB, by ac_aa
   CG331    CG321    OG301    NG2D1     9     0.000000     3.033400     2 ; GGB, by ac_aa
   CG331    CG321    OG301    NG2D1     9     0.000000     0.094977     3 ; GGB, by ac_aa
   CG331    CG321    OG301    NG2P1     9     0.000000     0.707096     1 ; GGBP, by ac_aa
   CG331    CG321    OG301    NG2P1     9     0.000000     1.129680     2 ; GGBP, by ac_aa
   CG331    CG321    OG301    NG2P1     9     0.000000     3.029216     3 ; GGBP, by ac_aa
   CG331    CG321    OG301    NG321     9   180.000000     1.758535     1 ; CAN, by ac_aa
   CG331    CG321    OG301    NG321     9   180.000000     3.739241     3 ; CAN, by ac_aa
  CG3C51    CG321    OG301   CG2R61     9   180.000000     0.836800     1 ; 3POMP, 3-phenoxymethylpyrrolidine, kevo
  CG3C51    CG321    OG301   CG2R61     9     0.000000     0.418400     2 ; 3POMP, 3-phenoxymethylpyrrolidine, kevo
  CG3C51    CG321    OG301   CG2R61     9   180.000000     0.418400     3 ; 3POMP, 3-phenoxymethylpyrrolidine, kevo
    HGA2    CG321    OG301   CG2R61     9     0.000000     0.397480     3 ; ETOB, Ethoxybenzene, cacha
    HGA2    CG321    OG301   CG2R62     9     0.000000     0.397480     3 ; OAU, from CG2R62 OG301 CG331 HGA3 yxu, RNA
    HGA2    CG321    OG301    CG321     9     0.000000     1.188256     3 ; diethylether, alex
    HGA2    CG321    OG301    CG331     9     0.000000     1.188256     3 ; diethylether, alex
    HGA2    CG321    OG301    NG2D1     9     0.000000     1.350595     3 ; GGB, by ac_aa
    HGA2    CG321    OG301    NG2P1     9     0.000000     0.234304     3 ; GGBP, by ac_aa
    HGA2    CG321    OG301    NG321     9     0.000000     3.568115     3 ; CAN, by ac_aa
   CG2O3    CG321    OG302    CG2O2     9   180.000000     2.838007     1 ; ASB, by ac_aa
   CG2O3    CG321    OG302    CG2O2     9     0.000000     7.293130     2 ; ASB, by ac_aa
   CG2O3    CG321    OG302    CG2O2     9     0.000000     4.571020     3 ; ASB, by ac_aa
  CG2R61    CG321    OG302    CG2O2     9     0.000000     0.000000     3 ; ABGA, ALPHA BENZYL GLU ACID CDCA AMIDE
   CG311    CG321    OG302    CG2O2     9     0.000000     0.000000     3 ; LIPID phosphate, new NA, 4/98, adm jr.
   CG321    CG321    OG302    CG2O2     9     0.000000     0.000000     3 ; LIPID phosphate, new NA, 4/98, adm jr.
   CG324    CG321    OG302    CG2O2     9     0.000000     0.000000     3 ; LIPID phosphate, new NA, 4/98, adm jr.
   CG331    CG321    OG302    CG2O2     9     0.000000     0.000000     3 ; LIPID phosphate, new NA, 4/98, adm jr.
   CG331    CG321    OG302    CG2O6     9   180.000000     0.418400     1 ; DECB & DECA, diethyl carbamate & carbonate, cacha & xxwy
   CG331    CG321    OG302    CG2O6     9     0.000000     2.510400     2 ; DECB, diethyl carbamate, cacha & xxwy
   CG331    CG321    OG302    CG2O6     9   180.000000     0.418400     3 ; DECB, diethyl carbamate, cacha & xxwy
    HGA2    CG321    OG302    CG2O2     9     0.000000     0.000000     3 ; LIPID phosphate, new NA, 4/98, adm jr.
    HGA2    CG321    OG302    CG2O6     9     0.000000     0.000000     3 ; DECB, diethyl carbamate, from DMCB, kevo
  CG2R61    CG321    OG303      PG1     9   180.000000     2.510400     1 ; from CG321 CG321 OG303 PG1, PENALTY= 71 LLPP
  CG2R61    CG321    OG303      PG1     9     0.000000     2.719600     2 ; from CG321 CG321 OG303 PG1, PENALTY= 71 LLPP
  CG2R61    CG321    OG303      PG1     9     0.000000     0.209200     3 ; from CG321 CG321 OG303 PG1, PENALTY= 71 LLPP
  CG2R61    CG321    OG303      PG2     9   180.000000     2.510400     1 ; from CG331 CG321 OG303 PG2, PENALTY= 71.9 IT1 LLP
  CG2R61    CG321    OG303      PG2     9     0.000000     2.719600     2 ; from CG331 CG321 OG303 PG2, PENALTY= 71.9 IT1 LLP
  CG2R61    CG321    OG303      PG2     9     0.000000     0.209200     3 ; from CG331 CG321 OG303 PG2, PENALTY= 71.9 IT1 LLP
   CG301    CG321    OG303      PG1     9   180.000000     2.510400     1 ; from CG311 CG321 OG303 PG1, PENALTY= 1.2 4HH LYX
   CG301    CG321    OG303      PG1     9     0.000000     2.719600     2 ; from CG311 CG321 OG303 PG1, PENALTY= 1.2 4HH LYX
   CG301    CG321    OG303      PG1     9     0.000000     0.209200     3 ; from CG311 CG321 OG303 PG1, PENALTY= 1.2 4HH LYX
   CG311    CG321    OG303      PG1     9   180.000000     2.510400     1 ; EP_2 phospho-ser/thr !Reorganization: GPC and others
   CG311    CG321    OG303      PG1     9     0.000000     2.719600     2 ; EP_2 phospho-ser/thr !Reorganization: GPC and others
   CG311    CG321    OG303      PG1     9     0.000000     0.209200     3 ; EP_2 phospho-ser/thr !Reorganization: GPC and others
   CG311    CG321    OG303      PG2     9   180.000000     2.510400     1 ; flavin
   CG311    CG321    OG303      PG2     9     0.000000     2.719600     2 ; flavin
   CG311    CG321    OG303      PG2     9     0.000000     0.209200     3 ; flavin
   CG321    CG321    OG303      PG1     9   180.000000     2.510400     1 ; EP_2 phospho-ser/thr !Reorganization: BPET and others
   CG321    CG321    OG303      PG1     9     0.000000     2.719600     2 ; EP_2 phospho-ser/thr !Reorganization: BPET and others
   CG321    CG321    OG303      PG1     9     0.000000     0.209200     3 ; EP_2 phospho-ser/thr !Reorganization: BPET and others
   CG321    CG321    OG303    SG3O1     9     0.000000     0.000000     3 ; LIPID phosphate, new NA, 4/98, adm jr.
   CG324    CG321    OG303      PG1     9   180.000000     2.510400     1 ; EP_2 phospho-ser/thr !Reorganization: PC and others
   CG324    CG321    OG303      PG1     9     0.000000     2.719600     2 ; EP_2 phospho-ser/thr !Reorganization: PC and others
   CG324    CG321    OG303      PG1     9     0.000000     0.209200     3 ; EP_2 phospho-ser/thr !Reorganization: PC and others
   CG331    CG321    OG303      PG0     9   180.000000     2.510400     1 ; from CG321 CG321 OG303 PG1, PENALTY= 2.9 SDP SUN SVX
   CG331    CG321    OG303      PG0     9     0.000000     2.719600     2 ; from CG321 CG321 OG303 PG1, PENALTY= 2.9 SDP SUN SVX
   CG331    CG321    OG303      PG0     9     0.000000     0.209200     3 ; from CG321 CG321 OG303 PG1, PENALTY= 2.9 SDP SUN SVX
   CG331    CG321    OG303      PG1     9   180.000000     2.510400     1 ; from CG321 CG321 OG303 PG1, PENALTY= 0.9 MIR SBG SEN
   CG331    CG321    OG303      PG1     9     0.000000     2.719600     2 ; from CG321 CG321 OG303 PG1, PENALTY= 0.9 MIR SBG SEN
   CG331    CG321    OG303      PG1     9     0.000000     0.209200     3 ; from CG321 CG321 OG303 PG1, PENALTY= 0.9 MIR SBG SEN
   CG331    CG321    OG303      PG2     9   180.000000     2.510400     1 ; EP_2 phospho-ser/thr
   CG331    CG321    OG303      PG2     9     0.000000     2.719600     2 ; EP_2 phospho-ser/thr
   CG331    CG321    OG303      PG2     9     0.000000     0.209200     3 ; EP_2 phospho-ser/thr
   CG331    CG321    OG303    SG3O2     9     0.000000     0.000000     3 ; from CG321 CG321 OG303 SG3O1, penalty= 5.9 SEB
  CG3C51    CG321    OG303      PG0     9   180.000000     2.510400     1 ; mono-thio S-P bond
  CG3C51    CG321    OG303      PG0     9     0.000000     2.719600     2 ; mono-thio S-P bond
  CG3C51    CG321    OG303      PG0     9     0.000000     0.209200     3 ; mono-thio S-P bond
  CG3C51    CG321    OG303      PG1     9   180.000000     2.510400     1 ; B5SP carbocyclic sugars reset to EP_2 phospho-ser/thr
  CG3C51    CG321    OG303      PG1     9     0.000000     2.719600     2 ; B5SP carbocyclic sugars reset to EP_2 phospho-ser/thr
  CG3C51    CG321    OG303      PG1     9     0.000000     0.209200     3 ; B5SP carbocyclic sugars reset to EP_2 phospho-ser/thr
  CG3C51    CG321    OG303      PG2     9   180.000000     2.510400     1 ; TH5P carbocyclic sugars reset to EP_2 phospho-ser/thr
  CG3C51    CG321    OG303      PG2     9     0.000000     2.719600     2 ; TH5P carbocyclic sugars reset to EP_2 phospho-ser/thr
  CG3C51    CG321    OG303      PG2     9     0.000000     0.209200     3 ; TH5P carbocyclic sugars reset to EP_2 phospho-ser/thr
  CG3RC1    CG321    OG303      PG1     9   180.000000     2.510400     1 ; B5NP carbocyclic sugars reset to EP_2 phospho-ser/thr
  CG3RC1    CG321    OG303      PG1     9     0.000000     2.719600     2 ; B5NP carbocyclic sugars reset to EP_2 phospho-ser/thr
  CG3RC1    CG321    OG303      PG1     9     0.000000     0.209200     3 ; B5NP carbocyclic sugars reset to EP_2 phospho-ser/thr
    HGA2    CG321    OG303      PG0     9     0.000000     0.000000     3 ; mono-thio S-P bond
    HGA2    CG321    OG303      PG1     9     0.000000     0.000000     3 ; NA dmp !Reorganization: PC and others
    HGA2    CG321    OG303      PG2     9     0.000000     0.000000     3 ; NA dmp !Reorganization: TH5P and others
    HGA2    CG321    OG303    SG3O1     9     0.000000     0.000000     3 ; LIPID phosphate, new NA, 4/98, adm jr.
    HGA2    CG321    OG303    SG3O2     9     0.000000     0.000000     3 ; from HGA2 CG321 OG303 SG3O1, PENALTY= 5 SEB
   CG2D1    CG321    OG311     HGP1     9     0.000000     5.439200     1 ; RETINOL PROL
   CG2D1    CG321    OG311     HGP1     9     0.000000     2.928800     2 ; RETINOL PROL
   CG2D1    CG321    OG311     HGP1     9     0.000000     0.585760     3 ; RETINOL PROL; Kenno: empirically corrected for HGA2 CG321 OG311 HGP1 from Team sugar ==> re-evaluate.
  CG2DC1    CG321    OG311     HGP1     9     0.000000     5.439200     1 ; RETINOL PROL
  CG2DC1    CG321    OG311     HGP1     9     0.000000     2.928800     2 ; RETINOL PROL
  CG2DC1    CG321    OG311     HGP1     9     0.000000     0.585760     3 ; RETINOL PROL; Kenno: empirically corrected for HGA2 CG321 OG311 HGP1 from Team sugar ==> re-evaluate.
  CG2DC2    CG321    OG311     HGP1     9     0.000000     5.439200     1 ; RETINOL PROL
  CG2DC2    CG321    OG311     HGP1     9     0.000000     2.928800     2 ; RETINOL PROL
  CG2DC2    CG321    OG311     HGP1     9     0.000000     0.585760     3 ; RETINOL PROL; Kenno: empirically corrected for HGA2 CG321 OG311 HGP1 from Team sugar ==> re-evaluate.
  CG2R61    CG321    OG311     HGP1     9     0.000000     8.786400     1 ; 3ALP, nicotinaldehyde (PYRIDINE pyr-CH2OH), yin
  CG2R61    CG321    OG311     HGP1     9     0.000000     5.857600     2 ; 3ALP, nicotinaldehyde (PYRIDINE pyr-CH2OH), yin
  CG2R61    CG321    OG311     HGP1     9     0.000000     3.096160     3 ; 3ALP, nicotinaldehyde (PYRIDINE pyr-CH2OH), yin; Kenno: empirically corrected for HGA2 CG321 OG311 HGP1 from Team sugar ==> re-evaluate.
  CG2R62    CG321    OG311     HGP1     9     0.000000     8.786400     1 ; HMC, from CG2R61 CG321 OG311 HGP1, yxu, RNA
  CG2R62    CG321    OG311     HGP1     9     0.000000     5.857600     2 ; HMC, from CG2R61 CG321 OG311 HGP1, yxu, RNA
  CG2R62    CG321    OG311     HGP1     9     0.000000     4.602400     3 ; HMC, from CG2R61 CG321 OG311 HGP1, yxu, RNA
   CG302    CG321    OG311     HGP1     9     0.000000     1.673600     1 ; TFE, Trifluoroethanol
   CG302    CG321    OG311     HGP1     9     0.000000     3.765600     2 ; TFE, Trifluoroethanol
   CG302    CG321    OG311     HGP1     9     0.000000     1.422560     3 ; TFE, Trifluoroethanol; Kenno: empirically corrected for HGA2 CG321 OG311 HGP1 from Team sugar ==> re-evaluate.
   CG302    CG321    OG311     HGP1     9     0.000000     0.502080     4 ; TFE, Trifluoroethanol
   CG311    CG321    OG311     HGP1     9     0.000000     4.727920     1 ; og ethanol
   CG311    CG321    OG311     HGP1     9     0.000000     0.585760     2 ; og ethanol
   CG311    CG321    OG311     HGP1     9     0.000000     1.004160     3 ; og ethanol
   CG314    CG321    OG311     HGP1     9     0.000000     4.727920     1 ; og ethanol
   CG314    CG321    OG311     HGP1     9     0.000000     0.585760     2 ; og ethanol
   CG314    CG321    OG311     HGP1     9     0.000000     1.004160     3 ; og ethanol
   CG321    CG321    OG311     HGP1     9     0.000000     4.727920     1 ; og ethanol
   CG321    CG321    OG311     HGP1     9     0.000000     0.585760     2 ; og ethanol
   CG321    CG321    OG311     HGP1     9     0.000000     1.004160     3 ; og ethanol
   CG324    CG321    OG311     HGP1     9     0.000000     4.727920     1 ; ETAM, ethanolamine (transferred from og ethanol)
   CG324    CG321    OG311     HGP1     9     0.000000     0.585760     2 ; ETAM, ethanolamine (transferred from og ethanol)
   CG324    CG321    OG311     HGP1     9     0.000000     1.004160     3 ; ETAM, ethanolamine (transferred from og ethanol)
   CG331    CG321    OG311     HGP1     9     0.000000     4.727920     1 ; og ethanol
   CG331    CG321    OG311     HGP1     9     0.000000     0.585760     2 ; og ethanol
   CG331    CG321    OG311     HGP1     9     0.000000     1.004160     3 ; og ethanol
  CG3C51    CG321    OG311     HGP1     9     0.000000     4.727920     1 ; og ethanol
  CG3C51    CG321    OG311     HGP1     9     0.000000     0.585760     2 ; og ethanol
  CG3C51    CG321    OG311     HGP1     9     0.000000     1.004160     3 ; og ethanol
   SG311    CG321    OG311     HGP1     9     0.000000     3.229211     1 ; M0H, by ac_aa
   SG311    CG321    OG311     HGP1     9     0.000000     4.270190     2 ; ME0, by ac_aa
   SG311    CG321    OG311     HGP1     9     0.000000     2.573578     3 ; ME0, by ac_aa
    HGA2    CG321    OG311     HGP1     9     0.000000     0.753120     3 ; og methanol
   CG321    CG321   OG3C61    CG311     9   180.000000     2.217520     1 ; pepr, from CG321 CG321 OG3C61 CG321, not optimized, yxu, RNA
   CG321    CG321   OG3C61    CG311     9     0.000000     2.845120     2 ; pepr, from CG321 CG321 OG3C61 CG321, not optimized, yxu, RNA
   CG321    CG321   OG3C61    CG311     9   180.000000     0.878640     3 ; pepr, from CG321 CG321 OG3C61 CG321, not optimized, yxu, RNA
   CG321    CG321   OG3C61    CG311     9     0.000000     0.627600     4 ; pepr, from CG321 CG321 OG3C61 CG321, not optimized, yxu, RNA
   CG321    CG321   OG3C61    CG321     9   180.000000     2.217520     1 ; DIOX, dioxane
   CG321    CG321   OG3C61    CG321     9     0.000000     2.845120     2 ; DIOX, dioxane
   CG321    CG321   OG3C61    CG321     9   180.000000     0.878640     3 ; DIOX, dioxane
   CG321    CG321   OG3C61    CG321     9     0.000000     0.627600     4 ; DIOX, dioxane
   CG324    CG321   OG3C61    CG321     9     0.000000     2.092000     3 ; MORP, morpholine
  OG3C61    CG321   OG3C61    CG321     9     0.000000     4.184000     3 ; DIXB, 13dioxane
    HGA2    CG321   OG3C61    CG311     9     0.000000     0.815880     3 ; pepr, from HGA2 CG321 OG3C61 CG321, not optimized, yxu, RNA
    HGA2    CG321   OG3C61    CG321     9     0.000000     0.815880     3 ; DIOX, dioxane
  CG2DC1    CG321   OG3R60   CG2D2O     9     0.000000     2.928800     3 ; PY02, 2h-pyran
  CG2DC2    CG321   OG3R60   CG2D1O     9     0.000000     2.928800     3 ; PY02, 2h-pyran
    HGA2    CG321   OG3R60   CG2D1O     9     0.000000     3.765600     3 ; PY02, 2h-pyran
    HGA2    CG321   OG3R60   CG2D2O     9     0.000000     3.765600     3 ; PY02, 2h-pyran
  CG2R61    CG321      PG1    OG2P1     9     0.000000     0.209200     3 ; BDFP, Benzylphosphonate \ re-optimize?
  CG2R61    CG321      PG1    OG311     9   180.000000     6.903600     1 ; BDFP, BDFD, Benzylphosphonate
  CG2R61    CG321      PG1    OG311     9     0.000000     2.092000     2 ; BDFP, BDFD, Benzylphosphonate
   SG311    CG321      PG1    OG2P1     9   180.000000     1.016294     2 ; CYQP, by ac_aa
   SG311    CG321      PG1    OG311     9   180.000000     4.995278     1 ; CYQP, by ac_aa
   SG311    CG321      PG1    OG311     9   180.000000     1.034285     2 ; CYQP, by ac_aa
   SG311    CG321      PG1    OG311     9   180.000000     2.130074     3 ; CYQP, by ac_aa
    HGA2    CG321      PG1    OG2P1     9     0.000000     0.418400     3 ; BDFP, Benzylphosphonate \ re-optimize?
    HGA2    CG321      PG1    OG311     9     0.000000     0.418400     3 ; BDFP, BDFD, Benzylphosphonate
  CG2R61    CG321      PG2    OG2P1     9     0.000000     0.209200     3 ; BDFD, Benzylphosphonate / re-optimize?
   SG311    CG321      PG2    OG2P1     9   180.000000     0.168197     3 ; CYQ, by ac_aa
    HGA2    CG321      PG2    OG2P1     9     0.000000     0.418400     3 ; BDFD, Benzylphosphonate / re-optimize?
   CG331    CG321    SG2P1      PG2     9   180.000000     1.405824     1 ; CSPP, by ac_aa
   CG331    CG321    SG2P1      PG2     9     0.000000     2.190324     2 ; CSPP, by ac_aa
   CG331    CG321    SG2P1      PG2     9   180.000000     0.644336     3 ; CSPP, by ac_aa
    HGA2    CG321    SG2P1      PG2     9     0.000000     0.306269     1 ; CSPP, by ac_aa
    HGA2    CG321    SG2P1      PG2     9     0.000000     0.664419     3 ; CSPP, by ac_aa
  CG2R51    CG321    SG301    SG301     9   180.000000     2.473162     1 ; R1A, by ac_aa1
  CG2R51    CG321    SG301    SG301     9     0.000000     0.733874     2 ; R1A, by ac_aa1
  CG2R51    CG321    SG301    SG301     9     0.000000     3.893630     3 ; R1A, by ac_aa1
   CG321    CG321    SG301    SG301     9     0.000000     1.297040     3 ; from CG331 CG321 SG301 SG301, penalty= 0.9 CME PR3
   CG331    CG321    SG301    OG301     9   180.000000     4.132537     1 ; 2CO, by ac_aa
   CG331    CG321    SG301    OG301     9     0.000000     0.279073     2 ; 2CO, by ac_aa
   CG331    CG321    SG301    OG301     9     0.000000     1.037214     3 ; 2CO, by ac_aa
   CG331    CG321    SG301    OG311     9   180.000000     3.047626     1 ; CSO, by ac_aa
   CG331    CG321    SG301    OG311     9     0.000000     1.372352     3 ; CSO, by ac_aa
   CG331    CG321    SG301    OG312     9   180.000000     6.059687     1 ; CSX, by ac_aa
   CG331    CG321    SG301    OG312     9     0.000000     2.558934     2 ; CSX, by ac_aa
   CG331    CG321    SG301    OG312     9     0.000000     5.165148     3 ; CSX, by ac_aa
   CG331    CG321    SG301    SG301     9     0.000000     1.297040     3 ; PROT S-S for cys-cys, dummy parameter for now ... DTN  9/04/90
   CG331    CG321    SG301    SG311     9     0.000000     1.297040     3 ; from CG331 CG321 SG301 SG301, penalty= 2 CSS
   CG331    CG321    SG301    SG3O1     9   180.000000     3.381090     1 ; CSU, by ac_aa
   CG331    CG321    SG301    SG3O1     9     0.000000     2.079448     2 ; CSU, by ac_aa
    HGA2    CG321    SG301    OG301     9     0.000000     1.380302     3 ; 2CO, by ac_aa
    HGA2    CG321    SG301    OG311     9     0.000000     1.727155     3 ; CSO, by ac_aa
    HGA2    CG321    SG301    OG312     9     0.000000     0.366518     1 ; CSX, by ac_aa
    HGA2    CG321    SG301    OG312     9     0.000000     1.337206     3 ; CSX, by ac_aa
    HGA2    CG321    SG301    SG301     9     0.000000     0.661072     3 ; PROT expt. dimethyldisulfide,    3/26/92 (FL)
    HGA2    CG321    SG301    SG311     9     0.000000     0.661072     3 ; from HGA2 CG321 SG301 SG301, penalty= 2 CSS
    HGA2    CG321    SG301    SG3O1     9     0.000000     0.837637     3 ; CSU, by ac_aa
   CG2D1    CG321    SG311   CG2R64     9   180.000000     5.439200     1 ; GAU, yxu, RNA
   CG2D1    CG321    SG311   CG2R64     9     0.000000     4.184000     2 ; GAU, yxu, RNA
   CG2D1    CG321    SG311   CG2R64     9     0.000000     0.836800     3 ; GAU, yxu, RNA
   CG2O1    CG321    SG311    CG321     9     0.000000     5.033770     2 ; CYF, by ac_aa
   CG2O1    CG321    SG311    CG321     9     0.000000     3.363936     3 ; CYF, by ac_aa
   CG2O1    CG321    SG311    CG331     9   180.000000     2.343040     1 ; YCM, by ac_aa
   CG2O1    CG321    SG311    CG331     9     0.000000     2.296179     2 ; YCM, by ac_aa
   CG2O1    CG321    SG311    CG331     9     0.000000     3.121682     3 ; YCM, by ac_aa
   CG2O3    CG321    SG311    CG321     9   180.000000    17.164860     1 ; from CG2O3 CG321 SG311 CG331, CCS
   CG2O3    CG321    SG311    CG321     9   180.000000     4.924986     2 ; from CG2O3 CG321 SG311 CG331, CCS
   CG2O3    CG321    SG311    CG321     9     0.000000     4.332950     3 ; from CG2O3 CG321 SG311 CG331, CCS
   CG2O3    CG321    SG311    CG331     9   180.000000    17.164860     1 ; CCS, by ac_aa
   CG2O3    CG321    SG311    CG331     9   180.000000     4.924986     2 ; CCS, by ac_aa
   CG2O3    CG321    SG311    CG331     9     0.000000     4.332950     3 ; CCS, by ac_aa
   CG2O5    CG321    SG311    CG321     9   180.000000     0.663164     1 ; CYD, by ac_aa
   CG2O5    CG321    SG311    CG321     9     0.000000     3.046789     3 ; CYD, by ac_aa
   CG2O5    CG321    SG311    CG331     9   180.000000     2.730060     1 ; CSA, by ac_aa
   CG2O5    CG321    SG311    CG331     9     0.000000     2.879010     3 ; CSA, by ac_aa
  CG2R61    CG321    SG311    CG321     9   180.000000     4.568091     1 ; from CG2R61 CG321 SG311 CG331, BCS
  CG2R61    CG321    SG311    CG321     9     0.000000     3.158502     3 ; from CG2R61 CG321 SG311 CG331, BCS
  CG2R61    CG321    SG311    CG331     9   180.000000     4.568091     1 ; BCS, by ac_aa
  CG2R61    CG321    SG311    CG331     9     0.000000     3.158502     3 ; BCS, by ac_aa
   CG311    CG321    SG311     HGP3     9     0.000000     1.004160     1 ; PROT methanethiol pure solvent, adm jr., 6/22/92
   CG311    CG321    SG311     HGP3     9     0.000000     0.627600     2 ; PROT methanethiol pure solvent, adm jr., 6/22/92
   CG311    CG321    SG311     HGP3     9     0.000000     1.129680     3 ; PROT methanethiol pure solvent, adm jr., 6/22/92
   CG314    CG321    SG311     HGP3     9     0.000000     1.004160     1 ; PROT methanethiol pure solvent, adm jr., 6/22/92
   CG314    CG321    SG311     HGP3     9     0.000000     0.627600     2 ; PROT methanethiol pure solvent, adm jr., 6/22/92
   CG314    CG321    SG311     HGP3     9     0.000000     1.129680     3 ; PROT methanethiol pure solvent, adm jr., 6/22/92
   CG321    CG321    SG311    CG1N1     9   180.000000     2.197437     1 ; from CG1N1 SG311 CG321 CG331, 4CY
   CG321    CG321    SG311    CG1N1     9   180.000000     0.041422     3 ; from CG1N1 SG311 CG321 CG331, 4CY
   CG321    CG321    SG311    CG2N2     9   180.000000     1.004160     1 ; DH3T , from CG321 CG321 SG311 CG321, penalty= 69     no opt.
   CG321    CG321    SG311    CG2N2     9     0.000000     1.548080     3 ; DH3T , from CG321 CG321 SG311 CG321, penalty= 69     no opt.
   CG321    CG321    SG311    CG2O2     9   180.000000     2.259360     1 ; asbb, PC, 2020 , C10-C13-S15-C16
   CG321    CG321    SG311    CG2O2     9     0.000000     0.209200     3 ; asbb, PC, 2020 , C10-C13-S15-C16
   CG321    CG321    SG311    CG311     9   180.000000     1.004160     1 ; from CG321 CG321 SG311 CG321, PENALTY= 0.6 LYX
   CG321    CG321    SG311    CG311     9     0.000000     1.548080     3 ; from CG321 CG321 SG311 CG321, PENALTY= 0.6 LYX
   CG321    CG321    SG311    CG312     9   180.000000     3.254734     1 ; from CG312 SG311 CG321 CG331, 2FM
   CG321    CG321    SG311    CG312     9     0.000000     1.280304     3 ; from CG312 SG311 CG321 CG331, 2FM
   CG321    CG321    SG311    CG321     9   180.000000     1.004160     1 ; PROT expt. MeEtS,      3/26/92 (FL)
   CG321    CG321    SG311    CG321     9     0.000000     1.548080     3 ; PROT expt. MeEtS,      3/26/92 (FL)
   CG321    CG321    SG311    CG331     9   180.000000     1.004160     1 ; PROT expt. MeEtS,      3/26/92 (FL)
   CG321    CG321    SG311    CG331     9     0.000000     1.548080     3 ; PROT expt. MeEtS,      3/26/92 (FL)
   CG321    CG321    SG311     HGP3     9     0.000000     1.004160     1 ; PRSH, n-thiopropanol, kevo for gsk/ibm
   CG321    CG321    SG311     HGP3     9     0.000000     0.627600     2 ; PRSH, n-thiopropanol, kevo for gsk/ibm
   CG321    CG321    SG311     HGP3     9     0.000000     1.129680     3 ; PRSH, n-thiopropanol, kevo for gsk/ibm
   CG324    CG321    SG311    CG321     9     0.000000     0.815880     3 ; TMOR, thiomorpholine
   CG331    CG321    SG311    CG1N1     9   180.000000     2.197437     1 ; XCN, by ac_aa
   CG331    CG321    SG311    CG1N1     9   180.000000     0.041422     3 ; XCN, by ac_aa
   CG331    CG321    SG311    CG2O2     9   180.000000     0.867762     1 ; CYG, by ac_aa
   CG331    CG321    SG311    CG2O2     9     0.000000     2.129238     2 ; JJJ, by ac_aa
   CG331    CG321    SG311    CG2O6     9   180.000000     0.494967     1 ; QCS, by ac_aa
   CG331    CG321    SG311    CG2O6     9     0.000000     3.219170     2 ; QCS, by ac_aa
   CG331    CG321    SG311    CG2O6     9   180.000000     3.876476     3 ; QCS, by ac_aa
   CG331    CG321    SG311    CG301     9   180.000000     1.004160     1 ; from CG321 CG321 SG311 CG321, penalty= 2.7 QPA
   CG331    CG321    SG311    CG301     9     0.000000     1.548080     3 ; from CG321 CG321 SG311 CG321, penalty= 2.7 QPA
   CG331    CG321    SG311    CG311     9   180.000000     1.004160     1 ; from CG331 CG321 SG311 CG331, penalty= 1.5 CGV CML
   CG331    CG321    SG311    CG311     9     0.000000     1.548080     3 ; from CG331 CG321 SG311 CG331, penalty= 1.5 CGV CML
   CG331    CG321    SG311    CG312     9   180.000000     3.254734     1 ; 2FM, by ac_aa
   CG331    CG321    SG311    CG312     9     0.000000     1.280304     3 ; 2FM, by ac_aa
   CG331    CG321    SG311    CG321     9   180.000000     1.004160     1 ; from CG331 CG321 SG311 CG331, penalty= 0.9 CYD CYF CYQ
   CG331    CG321    SG311    CG321     9     0.000000     1.548080     3 ; from CG331 CG321 SG311 CG331, penalty= 0.9 CYD CYF CYQ
   CG331    CG321    SG311    CG331     9   180.000000     1.004160     1 ; PROT expt. MeEtS,      3/26/92 (FL)
   CG331    CG321    SG311    CG331     9     0.000000     1.548080     3 ; PROT DTN 8/24/90
   CG331    CG321    SG311   CG3C51     9   180.000000     0.769856     1 ; 6V1, by ac_aa
   CG331    CG321    SG311   CG3C51     9     0.000000     1.058552     2 ; 143, by ac_aa
   CG331    CG321    SG311   CG3C51     9     0.000000     0.627600     3 ; 6V1, by ac_aa
   CG331    CG321    SG311    NG2D1     9   180.000000     0.210037     1 ; SNC, by ac_aa
   CG331    CG321    SG311    NG2D1     9     0.000000     2.845538     2 ; SNC, by ac_aa
   CG331    CG321    SG311     HGP3     9     0.000000     1.004160     1 ; PROT ethanethiol C-C-S-H surface, adm jr., 4/18/93
   CG331    CG321    SG311     HGP3     9     0.000000     0.627600     2 ; PROT ethanethiol C-C-S-H surface, adm jr., 4/18/93
   CG331    CG321    SG311     HGP3     9     0.000000     1.129680     3 ; PROT ethanethiol C-C-S-H surface, adm jr., 4/18/93
  CG3C51    CG321    SG311    CG321     9   180.000000     1.004160     1 ; PROT MeEtS reset by kevo
  CG3C51    CG321    SG311    CG321     9     0.000000     1.548080     3 ; PROT MeEtS reset by kevo
   OG311    CG321    SG311    CG321     9     0.000000     0.219242     1 ; M0H, by ac_aa
   OG311    CG321    SG311    CG321     9     0.000000     5.529156     2 ; M0H, by ac_aa
   OG311    CG321    SG311    CG321     9     0.000000     2.585712     3 ; M0H, by ac_aa
     PG1    CG321    SG311    CG321     9   180.000000    20.781510     1 ; CYQP, by ac_aa
     PG1    CG321    SG311    CG321     9     0.000000     4.339645     3 ; CYQP, by ac_aa
     PG2    CG321    SG311    CG321     9   180.000000    26.257110     1 ; CYQ, by ac_aa
     PG2    CG321    SG311    CG321     9   180.000000     4.354707     2 ; CYQ, by ac_aa
     PG2    CG321    SG311    CG321     9     0.000000     0.919643     3 ; CYQ, by ac_aa
     PG2    CG321    SG311    CG321     9   180.000000     1.301224     4 ; CYQ, by ac_aa
   SG311    CG321    SG311    CG321     9     0.000000     5.439200     3 ; TRIT, trithiane
    HGA2    CG321    SG311    CG1N1     9     0.000000     1.524231     3 ; XCN, by ac_aa
    HGA2    CG321    SG311    CG2N2     9     0.000000     1.506240     3 ; DH3T , from HGA3 CG331 SG311 CG2O6, penalty= 19.5    no opt.
    HGA2    CG321    SG311    CG2O2     9   180.000000     0.216731     3 ; CYG, by ac_aa
    HGA2    CG321    SG311    CG2O6     9     0.000000     1.506240     3 ; from HGA3 CG331 SG311 CG2O6, PENALTY= 6 QCS
    HGA2    CG321    SG311   CG2R64     9     0.000000     0.836800     3 ; GAU, yxu, RNA
    HGA2    CG321    SG311    CG301     9     0.000000     1.171520     3 ; from HGA2 CG321 SG311 CG321, PENALTY= 1.8 QPA
    HGA2    CG321    SG311    CG311     9     0.000000     1.171520     3 ; from HGA2 CG321 SG311 CG321, penalty= 0.6 CGV CML HTI
    HGA2    CG321    SG311    CG312     9     0.000000     0.011715     3 ; 2FM, by ac_aa
    HGA2    CG321    SG311    CG314     9     0.000000     0.507101     3 ; from CG314 SG311 CG331 HGA3, AGT
    HGA2    CG321    SG311    CG321     9     0.000000     1.171520     3 ; PROT DTN 8/24/90
    HGA2    CG321    SG311    CG331     9     0.000000     1.171520     3 ; PROT DTN 8/24/90
    HGA2    CG321    SG311   CG3C51     9     0.000000     1.171520     3 ; from HGA2 CG321 SG311 CG321, PENALTY= 10 143 5CS 6V1
    HGA2    CG321    SG311    NG2D1     9   180.000000     1.202482     3 ; SNC, by ac_aa
    HGA2    CG321    SG311     HGP3     9     0.000000     0.836800     3 ; PROT methanethiol pure solvent, adm jr., 6/22/92
   CG321    CG321    SG3O1    OG2P1     9     0.000000     0.962320     3 ; PSNA, propyl sulfonate, xhe
   CG324    CG321    SG3O1    OG2P1     9     0.000000     0.920480     3 ; 5TU, yxu, RNA
   CG331    CG321    SG3O1    OG2P1     9     0.000000     1.087840     3 ; ESNA, ethyl sulfonate, xhe
    HGA2    CG321    SG3O1    OG2P1     9     0.000000     0.794960     3 ; ESNA, ethyl sulfonate, xhe
  CG2R61    CG321    SG3O2    OG2P1     9     0.000000     0.621742     3 ; SEB, by ac_aa
  CG2R61    CG321    SG3O2    OG303     9     0.000000     1.718369     1 ; SEB, by ac_aa
  CG2R61    CG321    SG3O2    OG303     9     0.000000     1.830918     2 ; SEB, by ac_aa
  CG2R61    CG321    SG3O2    OG303     9     0.000000     0.389949     3 ; SEB, by ac_aa
   CG321    CG321    SG3O2    CG331     9     0.000000     3.765600     1 ; from CG331 CG321 SG3O2 CG331, PENALTY= 0.9 OMT
   CG321    CG321    SG3O2    CG331     9     0.000000     1.464400     2 ; from CG331 CG321 SG3O2 CG331, PENALTY= 0.9 OMT
   CG321    CG321    SG3O2    CG331     9     0.000000     0.523000     3 ; from CG331 CG321 SG3O2 CG331, PENALTY= 0.9 OMT
   CG321    CG321    SG3O2    OG2P1     9     0.000000     0.753120     3 ; from CG331 CG321 SG3O2 OG2P1, PENALTY= 0.9 OMT
   CG331    CG321    SG3O2    CG331     9     0.000000     3.765600     1 ; MESN, methyl ethyl sulfone, xhe & kevo
   CG331    CG321    SG3O2    CG331     9     0.000000     1.464400     2 ; MESN, methyl ethyl sulfone, xhe & kevo
   CG331    CG321    SG3O2    CG331     9     0.000000     0.523000     3 ; MESN, methyl ethyl sulfone, xhe & kevo
   CG331    CG321    SG3O2    NG311     9     0.000000     0.418400     1 ; EESM, N-ethylethanesulfonamide, xxwy
   CG331    CG321    SG3O2    NG311     9     0.000000     1.673600     2 ; EESM, N-ethylethanesulfonamide, xxwy
   CG331    CG321    SG3O2    NG311     9     0.000000     1.506240     3 ; EESM, N-ethylethanesulfonamide, xxwy
   CG331    CG321    SG3O2    OG2P1     9     0.000000     0.753120     3 ; EESM, N-ethylethanesulfonamide; MESN, methyl ethyl sulfone; xxwy & xhe
    HGA2    CG321    SG3O2    CG331     9     0.000000     0.523000     3 ; MESN, methyl ethyl sulfone, xhe
    HGA2    CG321    SG3O2    NG311     9     0.000000     0.669440     3 ; EESM, N-ethylethanesulfonamide, xxwy
    HGA2    CG321    SG3O2    OG2P1     9     0.000000     0.669440     3 ; EESM, N-ethylethanesulfonamide; MESN, methyl ethyl sulfone; xxwy & xhe
    HGA2    CG321    SG3O2    OG303     9     0.000000     0.000000     3 ; from HGA3 CG331 SG3O2 OG303, PENALTY= 6 SEB
   CG301    CG321    SG3O3    CG331     9   180.000000     0.753120     1 ; from CG331 CG321 SG3O3 CG331, PENALTY= 2.7 M2S
   CG301    CG321    SG3O3    CG331     9     0.000000     2.384880     3 ; from CG331 CG321 SG3O3 CG331, PENALTY= 2.7 M2S
   CG301    CG321    SG3O3    OG2P1     9   180.000000     6.694400     1 ; from CG331 CG321 SG3O3 OG2P1, PENALTY= 2.7 M2S
   CG301    CG321    SG3O3    OG2P1     9   180.000000     1.004160     2 ; from CG331 CG321 SG3O3 OG2P1, PENALTY= 2.7 M2S
   CG301    CG321    SG3O3    OG2P1     9   180.000000     0.125520     3 ; from CG331 CG321 SG3O3 OG2P1, PENALTY= 2.7 M2S
   CG321    CG321    SG3O3    CG331     9   180.000000     0.753120     1 ; from CG331 CG321 SG3O3 CG331, PENALTY= 0.9 MHO SME
   CG321    CG321    SG3O3    CG331     9     0.000000     2.384880     3 ; from CG331 CG321 SG3O3 CG331, PENALTY= 0.9 MHO SME
   CG321    CG321    SG3O3    OG2P1     9   180.000000     6.694400     1 ; from CG331 CG321 SG3O3 OG2P1, PENALTY= 0.9 MHO SME
   CG321    CG321    SG3O3    OG2P1     9   180.000000     1.004160     2 ; from CG331 CG321 SG3O3 OG2P1, PENALTY= 0.9 MHO SME
   CG321    CG321    SG3O3    OG2P1     9   180.000000     0.125520     3 ; from CG331 CG321 SG3O3 OG2P1, PENALTY= 0.9 MHO SME
   CG331    CG321    SG3O3    CG331     9   180.000000     0.753120     1 ; MESO, methylethylsulfoxide, kevo
   CG331    CG321    SG3O3    CG331     9     0.000000     2.384880     3 ; MESO, methylethylsulfoxide, kevo
   CG331    CG321    SG3O3    OG2P1     9   180.000000     6.694400     1 ; MESO, methylethylsulfoxide, kevo
   CG331    CG321    SG3O3    OG2P1     9   180.000000     1.004160     2 ; MESO, methylethylsulfoxide, kevo
   CG331    CG321    SG3O3    OG2P1     9   180.000000     0.125520     3 ; MESO, methylethylsulfoxide, kevo
    HGA2    CG321    SG3O3    CG331     9     0.000000     0.836800     3 ; MESO, methylethylsulfoxide; from DMSO, dimethylsulfoxide; mnoon
    HGA2    CG321    SG3O3    OG2P1     9     0.000000     0.836800     3 ; MESO, methylethylsulfoxide; from DMSO, dimethylsulfoxide; mnoon
   CG331    CG321    BG201    OG2D2     9     0.000000     1.643475     2 ; BONE,BNNE Boronic acid, sr
   CG331    CG321    BG201    OG2D2     9     0.000000     1.371097     4 ; BONE,BNNE Boronic acid, sr
   CG331    CG321    BG201    OG2D2     9     0.000000     1.256037     6 ; BONE,BNNE Boronic acid, sr
   CG331    CG321    BG201    OG311     9   180.000000     1.550590     2 ; BORE,BONE Boronic acid, sr
   CG331    CG321    BG201    OG311     9   180.000000     0.055229     4 ; BORE,BONE Boronic acid, sr
   CG331    CG321    BG201    OG311     9   180.000000     0.089119     6 ; BORE,BONE Boronic acid, sr
    HGA2    CG321    BG201    OG2D2     9     0.000000     0.000000     3 ; BONE Boronic acid, sr
    HGA2    CG321    BG201    OG311     9   180.000000     0.000000     3 ; BORE,BONE Boronic acid, sr
   CG331    CG322    CG331     HGA3     9     0.000000     0.768601     3 ; FVAL, by ac_aa
    FGA1    CG322    CG331     HGA3     9     0.000000     0.774040     3 ; FLUROALK fluoro_alkanes
    HGA6    CG322    CG331     HGA3     9     0.000000     0.774040     3 ; FLUROALK fluoro_alkanes
   SG302    CG323    CG331     HGA3     9     0.000000     0.627600     3 ; PROT ethylthiolate, adm jr., 6/1/92
    HGA2    CG323    CG331     HGA3     9     0.000000     0.669440     3 ; PROT ethylthiolate, adm jr., 6/1/92
   NG2P1    CG324    CG331     HGA3     9     0.000000     0.815880     3 ; from HGA2 CG321 CG324 NG2P1, PENALTY= 6 KPI
   NG3P0    CG324    CG331     HGA3     9     0.000000     0.669440     3 ; PROT rotation barrier in Ethane (SF)
   NG3P2    CG324    CG331     HGA3     9     0.000000     0.836800     3 ; from NG3P3 CG324 CG331 HGA3, penalty= 0.9 5CT IAM
   NG3P3    CG324    CG331     HGA3     9     0.000000     0.836800     3 ; PROT alkane update, adm jr., 3/2/92
    HGA2    CG324    CG331     HGA3     9     0.000000     0.669440     3 ; PROT rotation barrier in Ethane (SF)
    HGP5    CG324    CG331     HGA3     9     0.000000     0.669440     3 ; PROT rotation barrier in Ethane (SF)
   NG3P3    CG324   CG3C31   CG3C31     9     0.000000     0.815880     3 ; AMCP, aminomethyl cyclopropane; from PROT alkane update, adm jr., 3/2/92; jhs
   NG3P3    CG324   CG3C31     HGA1     9     0.000000     0.836800     3 ; AMCP, aminomethyl cyclopropane; from PROT alkane update, adm jr., 3/2/92; jhs
    HGA2    CG324   CG3C31   CG3C31     9     0.000000     0.815880     3 ; AMCP, aminomethyl cyclopropane; from FLAVOP PIP1,2,3; jhs
    HGA2    CG324   CG3C31     HGA1     9     0.000000     0.815880     3 ; AMCP, aminomethyl cyclopropane; from FLAVOP PIP1,2,3; jhs
   CG321    CG324    NG2O1    OG2N1     9   180.000000     0.351456     2 ; NIPR, nitropropane, kevo & abar
   CG321    CG324    NG2O1    OG2N1     9     0.000000     0.138072     4 ; NIPR, nitropropane, kevo & abar
   CG321    CG324    NG2O1    OG2N1     9     0.000000     0.101253     6 ; NIPR, nitropropane, kevo & abar ! we'll tolerate the slight dihedral strain for the sake of transferability - Kenno
    HGA2    CG324    NG2O1    OG2N1     9   180.000000     0.062760     6 ; NIPR, nitropropane, abar
   CG311    CG324    NG2P1    CG2N1     9   180.000000     0.000000     6 ; from CG321 CG324 NG2P1 CG2N1, PENALTY= 0.6 ARO
   CG311    CG324    NG2P1     HGP2     9   180.000000     0.000000     6 ; from CG321 CG324 NG2P1 HGP2, PENALTY= 0.6 ARO
   CG321    CG324    NG2P1    CG2N1     9   180.000000     0.000000     6 ; PROT methylguanidinium, adm jr., 3/26/92
   CG321    CG324    NG2P1   CG2R64     9     0.000000     0.418400     3 ; K2C, yxu, RNA
   CG321    CG324    NG2P1     HGP2     9   180.000000     0.000000     6 ; PROT methylguanidinium, adm jr., 3/26/92
   CG331    CG324    NG2P1     HGP2     9   180.000000     0.000000     6 ; from CG321 CG324 NG2P1 HGP2, PENALTY= 0.9 KPI
    HGA2    CG324    NG2P1   CG2DC1     9   180.000000     0.627600     3 ; from HGA3 CG334 NG2P1 CG2DC1, PENALTY= 6 KPI
    HGA2    CG324    NG2P1   CG2DC2     9   180.000000     0.627600     3 ; from HGA3 CG334 NG2P1 CG2DC1, PENALTY= 6 KPI
    HGA2    CG324    NG2P1    CG2N1     9   180.000000     0.000000     6 ; PROT methylguanidinium, adm jr., 3/26/92
    HGA2    CG324    NG2P1   CG2R64     9     0.000000     0.000000     3 ; K2C, yxu, RNA
    HGA2    CG324    NG2P1     HGP2     9   180.000000     0.000000     6 ; PROT methylguanidinium, adm jr., 3/26/92
   CG321    CG324    NG3P0    CG334     9     0.000000     1.087840     3 ; LIPID tetramethylammonium
   CG331    CG324    NG3P0    CG324     9     0.000000     1.087840     3 ; LIPID tetramethylammonium
   CG331    CG324    NG3P0    CG334     9     0.000000     1.087840     3 ; LIPID tetramethylammonium
    HGP5    CG324    NG3P0    CG324     9     0.000000     1.087840     3 ; LIPID tetramethylammonium
    HGP5    CG324    NG3P0    CG334     9     0.000000     1.087840     3 ; LIPID tetramethylammonium
  CG2R61    CG324    NG3P1    CG324     9   180.000000     7.112800     1 ; BPIP, N-Benzyl PIP, cacha
  CG2R61    CG324    NG3P1    CG324     9   180.000000     3.347200     2 ; BPIP, N-Benzyl PIP, cacha
  CG2R61    CG324    NG3P1    CG324     9     0.000000     2.426720     3 ; BPIP, N-Benzyl PIP, cacha
  CG2R61    CG324    NG3P1     HGP2     9     0.000000     0.167360     3 ; BPIP, N-Benzyl PIP, cacha
   CG311    CG324    NG3P1    CG324     9     0.000000     0.418400     3 ; FLAVOP PIP1,2,3; PEI polymers, kevo
   CG311    CG324    NG3P1    CG334     9     0.000000     0.418400     3 ; FLAVOP PIP1,2,3; PEI polymers, kevo
   CG311    CG324    NG3P1     HGP2     9     0.000000     0.418400     3 ; FLAVOP PIP1,2,3
   CG321    CG324    NG3P1    CG324     9     0.000000     0.418400     3 ; FLAVOP PIP1,2,3; PEI polymers, kevo
   CG321    CG324    NG3P1    CG334     9     0.000000     0.418400     3 ; FLAVOP PIP1,2,3; PEI polymers, kevo
   CG321    CG324    NG3P1     HGP2     9     0.000000     0.418400     3 ; FLAVOP PIP1,2,3
    HGA2    CG324    NG3P1    CG324     9     0.000000     0.418400     3 ; FLAVOP PIP1,2,3; PEI polymers, kevo
    HGA2    CG324    NG3P1    CG334     9     0.000000     0.418400     3 ; FLAVOP PIP1,2,3; PEI polymers, kevo
    HGA2    CG324    NG3P1     HGP2     9     0.000000     0.418400     3 ; FLAVOP PIP1,2,3
   CG2D1    CG324    NG3P2    CG324     9   180.000000     2.928800     1 ; IAU, from nmba, yxu, RNA
   CG2D1    CG324    NG3P2    CG324     9     0.000000     3.347200     3 ; IAU, from nmba, yxu, RNA
   CG2D1    CG324    NG3P2    CG334     9   180.000000     2.928800     1 ; nmba, yxu, RNA
   CG2D1    CG324    NG3P2    CG334     9     0.000000     3.347200     3 ; nmba, yxu, RNA
   CG2D1    CG324    NG3P2     HGP2     9     0.000000     0.209200     3 ; IAU, yxu, RNA
   CG2O3    CG324    NG3P2    CG324     9   180.000000     4.184000     1 ; 5DU, from nmgi, yxu, RNA
   CG2O3    CG324    NG3P2    CG324     9     0.000000     2.928800     2 ; 5DU, from nmgi, yxu, RNA
   CG2O3    CG324    NG3P2    CG334     9   180.000000     4.184000     1 ; nmgi, yxu, RNA
   CG2O3    CG324    NG3P2    CG334     9     0.000000     2.928800     2 ; nmgi, yxu, RNA
   CG2O3    CG324    NG3P2     HGP2     9   180.000000     0.167360     3 ; 5DU, yxu, RNA
  CG2R51    CG324    NG3P2   CG3C53     9   180.000000     7.531200     1 ; QUG, yxu, RNA
  CG2R51    CG324    NG3P2   CG3C53     9   180.000000     2.092000     2 ; QUG, yxu, RNA
  CG2R51    CG324    NG3P2   CG3C53     9     0.000000     0.418400     3 ; QUG, yxu, RNA
  CG2R51    CG324    NG3P2     HGP2     9     0.000000     0.418400     3 ; QUG, yxu, RNA
  CG2R61    CG324    NG3P2    CG314     9   180.000000     7.112800     1 ; from CG2R61 CG324 NG3P1 CG324, PENALTY= 10.6 IAM
  CG2R61    CG324    NG3P2    CG314     9   180.000000     3.347200     2 ; from CG2R61 CG324 NG3P1 CG324, PENALTY= 10.6 IAM
  CG2R61    CG324    NG3P2    CG314     9     0.000000     2.426720     3 ; from CG2R61 CG324 NG3P1 CG324, PENALTY= 10.6 IAM
  CG2R61    CG324    NG3P2    CG334     9   180.000000     2.719600     1 ; bzma, yxu, RNA
  CG2R61    CG324    NG3P2    CG334     9     0.000000     3.263520     3 ; bzma, yxu, RNA
  CG2R61    CG324    NG3P2     HGP2     9     0.000000     0.418400     3 ; bzma, yxu, RNA
  CG2R62    CG324    NG3P2    CG324     9   180.000000     2.719600     1 ; 5DU, from 5AU, yxu, RNA
  CG2R62    CG324    NG3P2    CG324     9     0.000000     3.263520     3 ; 5DU, from 5AU, yxu, RNA
  CG2R62    CG324    NG3P2    CG334     9   180.000000     2.719600     1 ; 5AU, from bzma, yxu, RNA
  CG2R62    CG324    NG3P2    CG334     9     0.000000     3.263520     3 ; 5AU, from bzma, yxu, RNA
  CG2R62    CG324    NG3P2     HGP2     9     0.000000     0.418400     3 ; 5AU, from bzma, yxu, RNA
   CG311    CG324    NG3P2    CG324     9     0.000000     1.673600     1 ; *** Developmental params for PEI polymers and PIP. Will be tweaked, then applied to existing PIP derivatives *** kevo
   CG311    CG324    NG3P2    CG324     9     0.000000     1.046000     2 ; *** Developmental params for PEI polymers and PIP. Will be tweaked, then applied to existing PIP derivatives *** kevo
   CG311    CG324    NG3P2    CG324     9     0.000000     2.510400     3 ; *** Developmental params for PEI polymers and PIP. Will be tweaked, then applied to existing PIP derivatives *** kevo
   CG311    CG324    NG3P2     HGP2     9     0.000000     0.418400     3 ; G3P(R/S), Gamma-3-Piperidine Glu Acid CDCA Amide, cacha
   CG321    CG324    NG3P2    CG314     9     0.000000     1.673600     1 ; *** Developmental params for PEI polymers and PIP. Will be tweaked, then applied to existing PIP derivatives *** kevo
   CG321    CG324    NG3P2    CG314     9     0.000000     1.046000     2 ; *** Developmental params for PEI polymers and PIP. Will be tweaked, then applied to existing PIP derivatives *** kevo
   CG321    CG324    NG3P2    CG314     9     0.000000     2.510400     3 ; *** Developmental params for PEI polymers and PIP. Will be tweaked, then applied to existing PIP derivatives *** kevo
   CG321    CG324    NG3P2    CG324     9     0.000000     1.673600     1 ; *** Developmental params for PEI polymers and PIP. Will be tweaked, then applied to existing PIP derivatives *** kevo
   CG321    CG324    NG3P2    CG324     9     0.000000     1.046000     2 ; *** Developmental params for PEI polymers and PIP. Will be tweaked, then applied to existing PIP derivatives *** kevo
   CG321    CG324    NG3P2    CG324     9     0.000000     2.510400     3 ; *** Developmental params for PEI polymers and PIP. Will be tweaked, then applied to existing PIP derivatives *** kevo
   CG321    CG324    NG3P2    CG334     9     0.000000     1.673600     1 ; maes, from CG321 CG324 NG3P2 CG324, yxu, RNA
   CG321    CG324    NG3P2    CG334     9     0.000000     1.046000     2 ; maes, from CG321 CG324 NG3P2 CG324, yxu, RNA
   CG321    CG324    NG3P2    CG334     9     0.000000     2.510400     3 ; maes, from CG321 CG324 NG3P2 CG324, yxu, RNA
   CG321    CG324    NG3P2     HGP2     9     0.000000     0.418400     3 ; PIP, piperidine
   CG331    CG324    NG3P2    CG314     9     0.000000     1.673600     1 ; from CG321 CG324 NG3P2 CG314, penalty= 0.9 IAM
   CG331    CG324    NG3P2    CG314     9     0.000000     1.046000     2 ; from CG321 CG324 NG3P2 CG314, penalty= 0.9 IAM
   CG331    CG324    NG3P2    CG314     9     0.000000     2.510400     3 ; from CG321 CG324 NG3P2 CG314, penalty= 0.9 IAM
   CG331    CG324    NG3P2    CG324     9     0.000000     1.673600     1 ; from CG321 CG324 NG3P2 CG324, penalty= 0.9 5CT
   CG331    CG324    NG3P2    CG324     9     0.000000     1.046000     2 ; from CG321 CG324 NG3P2 CG324, penalty= 0.9 5CT
   CG331    CG324    NG3P2    CG324     9     0.000000     2.510400     3 ; from CG321 CG324 NG3P2 CG324, penalty= 0.9 5CT
   CG331    CG324    NG3P2     HGP2     9     0.000000     0.418400     3 ; from CG321 CG324 NG3P2 HGP2, penalty= 0.9 5CT IAM
    HGA2    CG324    NG3P2    CG314     9     0.000000     0.418400     3 ; 3MRB, Gamma-3 methyl piperidine, alpha-benzyl GA CDCA amide, cacha; PEI polymers, kevo
    HGA2    CG324    NG3P2    CG324     9     0.000000     0.418400     3 ; PIP, piperidine; PEI polymers, kevo
    HGA2    CG324    NG3P2    CG334     9     0.000000     0.418400     3 ; 5AU, from HGA2 CG324 NG3P2 CG324, yxu, RNA
    HGA2    CG324    NG3P2   CG3C53     9     0.000000     0.418400     3 ; QUG, yxu, RNA
    HGA2    CG324    NG3P2     HGP2     9     0.000000     0.418400     3 ; PIP, piperidine
   CG2O1    CG324    NG3P3     HGP2     9     0.000000     0.418400     3 ; PROT 0.715->0.10 METHYLAMMONIUM (KK)
   CG2O3    CG324    NG3P3     HGP2     9     0.000000     0.418400     3 ; PROT 0.715->0.10 METHYLAMMONIUM (KK)
  CG2R51    CG324    NG3P3     HGP2     9     0.000000     3.347200     3 ; prf, ashalini
  CG2R61    CG324    NG3P3     HGP2     9     0.000000     0.167360     3 ; 4FBA, bzam; from CG2R61 CG324 NG3P1 HGP2; pram & yxu, RNA
  CG2R62    CG324    NG3P3     HGP2     9     0.000000     0.167360     3 ; SAU, from CG2R61 CG324 NG3P1 HGP2, yxu, RNA
   CG311    CG324    NG3P3     HGP2     9     0.000000     0.418400     3 ; from CG321 CG324 NG3P3 HGP2, PENALTY= 0.6 LYZ
   CG321    CG324    NG3P3     HGP2     9     0.000000     0.418400     3 ; PROT 0.715->0.10 METHYLAMMONIUM (KK)
   CG331    CG324    NG3P3     HGP2     9     0.000000     0.418400     3 ; PROT 0.715->0.10 METHYLAMMONIUM (KK)
  CG3C31    CG324    NG3P3     HGP2     9     0.000000     0.418400     3 ; AMCP, aminomethyl cyclopropane; from PROT 0.715->0.10 METHYLAMMONIUM (KK); jhs
    HGA2    CG324    NG3P3     HGP2     9     0.000000     0.418400     3 ; PROT 0.715->0.10 METHYLAMMONIUM (KK)
    HGA3    CG331    CG331     HGA3     9     0.000000     0.648520     3 ; PROT alkane update, adm jr., 3/2/92
    HGA3    CG331   CG3C50   CG2R51     9     0.000000     0.000000     3 ; from HGA2 CG321 CG3C50 CG2R53, PENALTY= 9 R1A
    HGA3    CG331   CG3C50    CG331     9     0.000000     0.000000     3 ; from HGA2 CG321 CG3C50 CG321, PENALTY= 6.9 R1A
    HGA3    CG331   CG3C50   NG3C51     9     0.000000     1.837613     3 ; R1A, by ac_aa
    HGA3    CG331   CG3C51   CG3C51     9     0.000000     0.669440     3 ; alkane, 4/98, yin and mackerell, tf2m viv
    HGA3    CG331   CG3C51   CG3C52     9     0.000000     0.669440     3 ; alkane, 4/98, yin and mackerell, tf2m viv
    HGA3    CG331   CG3C51   CG3RC1     9     0.000000     0.669440     3 ; alkane, 4/98, yin and mackerell, tf2m viv
    HGA3    CG331   CG3C51   OG3C51     9     0.000000     0.669440     3 ; alkane, 4/98, yin and mackerell, tf2m viv
    HGA3    CG331   CG3C51     HGA1     9     0.000000     0.669440     3 ; alkane, 4/98, yin and mackerell, tf2m viv
    HGA3    CG331   CG3RC1    CG311     9   180.000000     0.627600     3 ; CA, Cholic Acid, cacha, 02/08
    HGA3    CG331   CG3RC1    CG321     9     0.000000     0.669440     3 ; BAM1, bile acid steroidal C-D ring, cacha, 02/08
    HGA3    CG331   CG3RC1   CG3C51     9   180.000000     0.627600     3 ; BAM1, bile acid steroidal C-D ring, cacha, 02/08
    HGA3    CG331   CG3RC1   CG3RC1     9   180.000000     0.627600     3 ; BAM1, bile acid steroidal C-D ring, cacha, 02/08
    HGA3    CG331    NG2D1    CG2D1     9     0.000000     0.418400     3 ; RETINOL SCH1, Schiff's base, deprotonated
    HGA3    CG331    NG2D1   CG2D1O     9     0.000000     0.418400     3 ; from HGA3 CG331 NG2D1 CG2D1, penalty= 3 FZN
    HGA3    CG331    NG2D1   CG2D2O     9     0.000000     0.418400     3 ; from HGA3 CG331 NG2D1 CG2D1, penalty= 3 FZN
    HGA3    CG331    NG2D1   CG2DC1     9     0.000000     0.418400     3 ; from HGA3 CG331 NG2D1 CG2D1, penalty= 0.5 LLPP
    HGA3    CG331    NG2D1   CG2DC2     9     0.000000     0.418400     3 ; from HGA3 CG331 NG2D1 CG2D1, penalty= 0.5 LLPP
    HGA3    CG331    NG2D1    CG2N1     9   180.000000     0.460240     3 ; MGU1, methylguanidine
    HGA3    CG331    NG2D1    CG2O1     9   180.000000     0.460240     3 ; ABMM, amide base, sr
    HGA3    CG331    NG2D1    CG2O7     9     0.000000     0.125520     3 ; MICY, methyl isocyanate, xxwy
    HGA3    CG331   NG2R51   CG2R51     9     0.000000     0.000000     3 ; INCA model for D3R, xxwy
    HGA3    CG331   NG2R51   CG2R53     9     0.000000     0.000000     3 ; NA 9-M-A
    HGA3    CG331   NG2R51   CG2RC0     9     0.000000     0.794960     3 ; NA 9-M-G
    HGA3    CG331   NG2R51   NG2R50     9     0.000000     0.000000     3 ; INCA model for D3R, xxwy
    HGA3    CG331   NG2R53   CG2R53     9     0.000000     0.418400     3 ; MSCH model for D3R, xxwy
    HGA3    CG331   NG2R53   CG2RC0     9     0.000000     0.418400     3 ; MSCH model for D3R, xxwy
    HGA3    CG331   NG2R61   CG2R61     9     0.000000     0.000000     3 ; 34c, yxu, RNA
    HGA3    CG331   NG2R61   CG2R62     9     0.000000     0.000000     3 ; NA 1-M-C
    HGA3    CG331   NG2R61   CG2R63     9     0.000000     0.794960     3 ; NA 1-M-C
    HGA3    CG331   NG2R61   CG2R64     9     0.000000     0.794960     3 ; 3MCn, from HGA3 CG331 NG2R61 CG2R63, yxu, RNA
    HGA3    CG331   NG2R61   CG2RC0     9     0.000000     0.000000     3 ; MWG, from HGA3 CG331 NG2R61 CG2R62, yxu, RNA
    HGA3    CG331    NG2S0    CG2O1     9     0.000000     0.000000     3 ; DMA, dimethylacetamide; from PROT, sp2-methyl, no torsion potential; xxwy & jhs
    HGA3    CG331    NG2S0    CG2O6     9     0.000000     0.000000     3 ; H2U, from HGA3 CG331 NG2S0 CG2O1, yxu, RNA
    HGA3    CG331    NG2S0   CG2R61     9     0.000000     0.000000     3 ; dmpu, from HGA3 CG331 NG2S0 CG2O1, yxu, RNA
    HGA3    CG331    NG2S0   CG2R64     9     0.000000     0.000000     3 ; 66A, from HGA3 CG331 NG2S0 CG2O1, yxu, RNA
    HGA3    CG331    NG2S0    CG311     9     0.000000     1.757280     3 ; from HGA3 CG331 NG2S0 CG331, PENALTY= 1.5 MAA
    HGA3    CG331    NG2S0    CG321     9     0.000000     1.757280     3 ; H2U, from HGA3 CG331 NG2S0 CG331, yxu, RNA
    HGA3    CG331    NG2S0    CG331     9     0.000000     1.757280     3 ; DMF, Dimethylformamide, xxwy
    HGA3    CG331    NG2S1    CG2O1     9     0.000000     0.000000     3 ; PROT, sp2-methyl, no torsion potential
    HGA3    CG331    NG2S1    CG2O6     9     0.000000     0.000000     3 ; DMCB, diethyl carbamate, kevo
    HGA3    CG331    NG2S1     HGP1     9     0.000000     0.000000     3 ; PROT, sp2-methyl, no torsion potential
    HGA3    CG331    NG2S3   CG2R64     9     0.000000     1.673600     3 ; HGA3   CG331  NG311  CG2R64 ! 4MC, yxu
    HGA3    CG331    NG2S3   CG2R64     9     0.000000     0.334720     6 ; HGA3   CG331  NG311  CG2R64 ! 4MC, yxu
    HGA3    CG331    NG2S3    CG331     9   180.000000     0.278236     2 ; SEN, by ac_aa
    HGA3    CG331    NG2S3    CG331     9     0.000000     0.520071     3 ; SUN, by ac_aa
    HGA3    CG331    NG2S3      PG0     9     0.000000     0.627600     3 ; from HGA3 CG331 NG2S3 PG1, PENALTY= 2 SUN
    HGA3    CG331    NG2S3      PG1     9     0.000000     0.627600     3 ; NABAKB phosphoramidates
    HGA3    CG331    NG2S3    SG3O1     9     0.000000     0.627600     3 ; NMSM, N-methyl-sulfamate; from HGA3 CG331 NG2S3 PG1; my
    HGA3    CG331    NG2S3     HGP1     9     0.000000     0.041840     3 ; NABAKB phosphoramidates
    HGA3    CG331    NG301   CG2R61     9     0.000000     1.799120     3 ; DMAN, N,N-dimethylaniline, kevo
    HGA3    CG331    NG301   CG2R64     9   180.000000     0.000000     3 ; TMC, from HGA3 CG331 NG311 CG2N1, yxu
    HGA3    CG331    NG301    CG331     9   180.000000     0.000000     3 ; TMC, from HGA3 CG331 NG311 CG2N1, yxu
    HGA3    CG331    NG311    CG2N1     9   180.000000     0.000000     3 ; MGU2, methylguanidine2 \ Taken together, these two params don't make much sense
    HGA3    CG331    NG311   CG2R64     9     0.000000     1.673600     3 ; 4MC, yxu     0.24, RNA
    HGA3    CG331    NG311   CG2R64     9     0.000000     0.334720     6 ; 4MC, yxu     0.12, RNA
    HGA3    CG331    NG311    CG314     9   180.000000     0.487854     3 ; AGT, by ac_aa
    HGA3    CG331    NG311    CG321     9     0.000000     2.092000     3 ; 5UNM, from HGA3 CG331 NG311 CG2N1, yxu, RNA
    HGA3    CG331    NG311   CG3C51     9   180.000000     0.000000     3 ; cona, from HGA2 CG321 NG311 CG2R61, yxu, RNA
    HGA3    CG331    NG311    SG3O2     9     0.000000     0.418400     3 ; MMSM, N-methylmethanesulfonamide; MBSM, N-methylbenzenesulfonamide; xxwy
    HGA3    CG331    NG311     HGP1     9     0.000000     0.209200     3 ; MMSM, N-methylmethanesulfonamide; MBSM, N-methylbenzenesulfonamide; xxwy
    HGA3    CG331    NG311   HGPAM1     9     0.000000     1.757280     3 ; MGU2, methylguanidine2 / Taken together, these two params don't make much sense
    HGA3    CG331   NG3C51   CG3C51     9     0.000000     0.639315     3 ; from CG3C51 NG3C51 CG321 HGA2, sm136
    HGA3    CG331   NG3C51   CG3C52     9     0.000000     0.869017     3 ; from CG3C52 NG3C51 CG321 HGA2, sm136
    HGA3    CG331    OG301   CG2D1O     9     0.000000     0.271960     3 ; MOET, Methoxyethene, xxwy
    HGA3    CG331    OG301   CG2D2O     9     0.000000     0.271960     3 ; MOET, Methoxyethene, xxwy
    HGA3    CG331    OG301   CG2R61     9     0.000000     0.355640     3 ; MEOB, Methoxybenzene, cacha
    HGA3    CG331    OG301   CG2R62     9     0.000000     0.355640     3 ; MOU, from HGA3 CG331 OG301 CG2R61, yxu, RNA
    HGA3    CG331    OG301    CG301     9     0.000000     1.188256     3 ; AMOL, alpha-methoxy-lactic acid, og
    HGA3    CG331    OG301    CG311     9     0.000000     1.188256     3 ; all34_ethers_1a og/gk (not affected by mistake)
    HGA3    CG331    OG301    CG321     9     0.000000     1.188256     3 ; diethylether, alex
    HGA3    CG331    OG301    CG331     9     0.000000     1.188256     3 ; diethylether, alex !from HCT2-CCT2-OCE-CG321  DME, viv
    HGA3    CG331    OG301   CG3C51     9   180.000000     0.836800     1 ; THF2, THF-2'OMe C2'-OM-CM-H, from Nucl. Acids, ed
    HGA3    CG331    OG301   CG3C51     9   180.000000     5.020800     2 ; THF2, THF-2'OMe C2'-OM-CM-H, from Nucl. Acids, ed
    HGA3    CG331    OG301    OG311     9     0.000000     0.836800     3 ; mhp from ppox, yxu, RNA
    HGA3    CG331    OG302    CG2O2     9     0.000000     0.000000     3 ; LIPID phosphate, new NA, 4/98, adm jr.
    HGA3    CG331    OG302    CG2O6     9     0.000000     0.000000     3 ; DMCB & DMCA, dimethyl carbamate & carbonate, kevo
    HGA3    CG331    OG303      PG0     9     0.000000     0.000000     3 ; NA dmp !Reorganization:MP_0 RE-OPTIMIZE!
    HGA3    CG331    OG303      PG1     9     0.000000     0.000000     3 ; NA dmp !Reorganization:MP_1
    HGA3    CG331    OG303      PG2     9     0.000000     0.000000     3 ; NA dmp !Reorganization:MP_2
    HGA3    CG331    OG303    SG3O1     9     0.000000     0.000000     3 ; LIPID methylsulfate
    HGA3    CG331    OG303    SG3O2     9     0.000000     0.000000     3 ; MMST, methyl methanesulfonate, xxwy
    HGA3    CG331    OG311     HGP1     9     0.000000     0.753120     3 ; og methanol
    HGA3    CG331      PG0    OG2P1     9     0.000000     0.376978     3 ; SVX, by ac_aa
    HGA3    CG331      PG0    OG303     9     0.000000     0.306269     3 ; SGB, by ac_aa
    HGA3    CG331      PG1    OG2P1     9     0.000000     0.418400     3 ; from HGA2 CG321 PG1 OG2P1, PENALTY= 6 SBG
    HGA3    CG331      PG1    OG303     9     0.000000     0.427605     3 ; SBG, by ac_aa
    HGA3    CG331    SG301    SG301     9     0.000000     0.661072     3 ; PROT expt. dimethyldisulfide,    3/26/92 (FL)
    HGA3    CG331    SG311   CG2D1O     9     0.000000     0.101671     3 ; FZN, by ac_aa
    HGA3    CG331    SG311   CG2D2O     9     0.000000     0.101671     3 ; FZN, by ac_aa
    HGA3    CG331    SG311    CG2N2     9     0.000000     1.506240     3 ; MT2A , from HGA3 CG331 SG311 CG2O6
    HGA3    CG331    SG311    CG2O2     9     0.000000     1.506240     3 ; from HGA3 CG331 SG311 CG2O6, penalty= 4.5 CYG
    HGA3    CG331    SG311    CG2O6     9     0.000000     1.506240     3 ; DMTT, dimethyl trithiocarbonate, kevo
    HGA3    CG331    SG311   CG2R64     9   180.000000     0.627600     3 ; 2SMPYR, 2-(methylthio)-pyrimidine; from HGA3 CG331 SG311 CG2O6; isg
    HGA3    CG331    SG311    CG311     9     0.000000     1.171520     3 ; from HGA3 CG331 SG311 CG321, penalty= 0.6 0TD HTI
    HGA3    CG331    SG311    CG314     9     0.000000     0.507101     3 ; AGT, by ac_aa
    HGA3    CG331    SG311    CG321     9     0.000000     1.171520     3 ; PROT DTN 8/24/90
    HGA3    CG331    SG311     HGP3     9     0.000000     0.836800     3 ; PROT methanethiol pure solvent, adm jr., 6/22/92
    HGA3    CG331    SG3O1    OG2P1     9     0.000000     0.962320     3 ; MSNA, methyl sulfonate, xhe
    HGA3    CG331    SG3O2    CG321     9     0.000000     0.355640     3 ; MESN, methyl ethyl sulfone, xhe
    HGA3    CG331    SG3O2    CG331     9     0.000000     0.481160     3 ; DMSN, dimethyl sulfone, xhe
    HGA3    CG331    SG3O2    NG311     9     0.000000     0.418400     3 ; MMSM, N-methylmethanesulfonamide; PMSM, N-phenylmethanesulfonamide; xxwy
    HGA3    CG331    SG3O2    NG321     9     0.000000     0.794960     3 ; MSAM, methanesulfonamide, xxwy
    HGA3    CG331    SG3O2    OG2P1     9     0.000000     0.753120     3 ; DMSN, dimethyl sulfone; MSAM, methanesulfonamide and other sulfonamides; xxwy & xhe
    HGA3    CG331    SG3O2    OG303     9     0.000000     0.000000     3 ; MMST, methyl methanesulfonate, xxwy
    HGA3    CG331    SG3O3    CG321     9     0.000000     0.836800     3 ; MESO, methylethylsulfoxide; from DMSO, dimethylsulfoxide; mnoon
    HGA3    CG331    SG3O3    CG331     9     0.000000     0.836800     3 ; DMSO, dimethylsulfoxide (ML Strader, et al.JPC2002_A106_1074), sz
    HGA3    CG331    SG3O3    OG2P1     9     0.000000     0.836800     3 ; DMSO, dimethylsulfoxide (ML Strader, et al.JPC2002_A106_1074), sz
    HGA3    CG331    BG201    OG2D2     9   180.000000     0.000000     3 ; BONN, Boronic acid, sr
    HGA3    CG331    BG201    OG311     9   180.000000     0.000000     3 ; BORO, Boronic acid, sr
   SG311    CG331     HGA3   CG2R64     9     0.000000     1.380720     3 ; SMA, yxu, RNA
    HGA3    CG334    NG2O1    OG2N1     9     0.000000     0.004184     6 ; NIME, nitromethane, abar
    HGA3    CG334    NG2P1    CG2D1     9   180.000000     0.627600     3 ; RETINOL SCH2, Schiff's base, protonated
    HGA3    CG334    NG2P1   CG2DC1     9   180.000000     0.627600     3 ; RETINOL SCH2, Schiff's base, protonated
    HGA3    CG334    NG2P1   CG2DC2     9   180.000000     0.627600     3 ; RETINOL SCH2, Schiff's base, protonated
    HGA3    CG334    NG2P1    CG2N1     9   180.000000     0.000000     6 ; PROT methylguanidinium, adm jr., 3/26/92
    HGA3    CG334    NG2P1   CG2R61     9     0.000000     0.000000     3 ; ncyp, not optimized, yxu, RNA
    HGA3    CG334    NG2P1   CG2R63     9   180.000000     0.000000     6 ; 3MC, from HGA3 CG334 NG2P1 CG2N1, yxu, RNA
    HGA3    CG334    NG2P1   CG2R64     9   180.000000     0.000000     6 ; 3MC, from HGA3 CG334 NG2P1 CG2N1, yxu, RNA
    HGA3    CG334    NG2P1    CG334     9     0.000000     0.079496     3 ; DA2, by ac_aa
    HGA3    CG334    NG2P1     HGP2     9   180.000000     0.000000     6 ; PROT methylguanidinium, adm jr., 3/26/92
    HGA3    CG334   NG2R52   CG2R51     9   180.000000     0.223426     3 ; MHSP, by ac_aa
    HGA3    CG334   NG2R52   CG2R53     9   180.000000     0.627600     3 ; 7MG, from HGA3 CG334 NG2P1 CG2D1, yxu, RNA
    HGA3    CG334   NG2R52   CG2RC0     9   180.000000     0.000000     6 ; 7MG, from HGA3 CG334 NG2P1 CG2N1, yxu, RNA
    HGP5    CG334    NG3P0    CG314     9     0.000000     1.087840     3 ; from HGP5 CG334 NG3P0 CG324, PENALTY= 0.6 DDE DDEP
    HGP5    CG334    NG3P0    CG324     9     0.000000     1.087840     3 ; LIPID tetramethylammonium
    HGP5    CG334    NG3P0    CG334     9     0.000000     1.087840     3 ; LIPID tetramethylammonium
    HGP5    CG334    NG3P0    OG311     9     0.000000     0.418400     3 ; TMAOP, Hydroxy(trimethyl)Ammonium, xxwy
    HGP5    CG334    NG3P0    OG312     9     0.000000     1.464400     3 ; TMAO, xxwy & ejd
    HGA3    CG334    NG3P1    CG324     9     0.000000     0.418400     3 ; FLAVOP PIP1,2,3
    HGA3    CG334    NG3P1    CG334     9     0.000000     0.418400     3 ; nc3 fylin
    HGA3    CG334    NG3P1     HGP2     9     0.000000     3.765600     3 ; FLAVOP PIP1,2,3
    HGA3    CG334    NG3P2    CG324     9     0.000000     0.418400     3 ; 5AU, from HGA2 CG324 NG3P2 CG324, yxu, RNA
    HGA3    CG334    NG3P2    CG334     9     0.000000     0.418400     3 ; nc2 fylin
    HGA3    CG334    NG3P2   CG3C53     9     0.000000     0.418400     3 ; ponm, from HGA2 CG324 NG3P2 CG314, not optimized, yxu, RNA
    HGA3    CG334    NG3P2     HGP2     9     0.000000     0.418400     3 ; nc2 fylin
    HGA3    CG334    NG3P3     HGP2     9     0.000000     0.376560     3 ; PROT fine-tuned to ab initio; METHYLAMMONIUM, KK 03/10/92
  HGAAM0   CG3AM0    NG301   CG3AM0     9     0.000000     1.317960     3 ; AMINE aliphatic amines
  HGAAM1   CG3AM1    NG311   CG3AM1     9     0.000000     0.334720     3 ; AMINE aliphatic amines
  HGAAM1   CG3AM1    NG311   HGPAM1     9     0.000000     1.757280     3 ; AMINE aliphatic amines
  HGAAM2   CG3AM2    NG321   HGPAM2     9     0.000000     0.669440     3 ; AMINE aliphatic amines
   CG321   CG3C31   CG3C31   OG3C31     9   180.000000     0.460240     6 ; 1BOX, 1-butene oxide; from OG3C31 CG3C31 CG3C31 HGA2 from 1EOX, 1-ethylene oxide; kevo
   CG321   CG3C31   CG3C31     HGA2     9   180.000000     0.836800     5 ; 1BOX, 1-butene oxide; from CG324 CG3C31 CG3C31 HGA2 from PROTMOD hf/cyclopropane; sc
   CG324   CG3C31   CG3C31   CG3C31     9     0.000000     0.418400     6 ; AMCP, aminomethyl cyclopropane; from PROTMOD hf/cyclopropane; jhs
   CG324   CG3C31   CG3C31     HGA2     9   180.000000     0.836800     5 ; AMCP, aminomethyl cyclopropane; from PROTMOD hf/cyclopropane; jhs
  CG3C31   CG3C31   CG3C31     HGA1     9     0.000000     0.418400     6 ; AMCP, aminomethyl cyclopropane; from PROTMOD hf/cyclopropane; jhs
  CG3C31   CG3C31   CG3C31     HGA2     9     0.000000     0.418400     6 ; PROTMOD hf/cyclopropane
  OG3C31   CG3C31   CG3C31     HGA1     9   180.000000     0.460240     6 ; 1BOX, 1-butene oxide; from OG3C31 CG3C31 CG3C31 HGA2 from 1EOX, 1-ethylene oxide; kevo
  OG3C31   CG3C31   CG3C31     HGA2     9   180.000000     0.460240     6 ; 1EOX, 1-ethylene oxide, kevo
    HGA1   CG3C31   CG3C31     HGA2     9   180.000000     0.836800     5 ; AMCP, aminomethyl cyclopropane; from PROTMOD hf/cyclopropane; jhs
    HGA2   CG3C31   CG3C31     HGA2     9   180.000000     0.836800     5 ; PROTMOD hf/cyclopropane
  CG3RC1   CG3C31   CG3RC1    CG321     9     0.000000     0.627600     3 ; CARBOCY carbocyclic sugars
  CG3RC1   CG3C31   CG3RC1   CG3C51     9     0.000000     0.627600     3 ; CARBOCY carbocyclic sugars
  CG3RC1   CG3C31   CG3RC1   CG3C52     9     0.000000     0.627600     3 ; CARBOCY carbocyclic sugars
  CG3RC1   CG3C31   CG3RC1   NG2R51     9     0.000000     0.627600     3 ; CARBOCY carbocyclic sugars
  CG3RC1   CG3C31   CG3RC1   NG2R61     9     0.000000     2.928800     3 ; CARBOCY carbocyclic sugars
  CG3RC1   CG3C31   CG3RC1     HGA1     9     0.000000     0.627600     3 ; CARBOCY carbocyclic sugars
    HGA2   CG3C31   CG3RC1    CG321     9     0.000000     0.815880     3 ; CARBOCY carbocyclic sugars
    HGA2   CG3C31   CG3RC1   CG3C51     9     0.000000     0.815880     3 ; CARBOCY carbocyclic sugars
    HGA2   CG3C31   CG3RC1   CG3C52     9     0.000000     0.815880     3 ; CARBOCY carbocyclic sugars
    HGA2   CG3C31   CG3RC1   CG3RC1     9     0.000000     0.627600     3 ; CARBOCY carbocyclic sugars
    HGA2   CG3C31   CG3RC1   NG2R51     9     0.000000     0.627600     3 ; CARBOCY carbocyclic sugars
    HGA2   CG3C31   CG3RC1   NG2R61     9     0.000000     0.627600     3 ; CARBOCY carbocyclic sugars
    HGA2   CG3C31   CG3RC1     HGA1     9     0.000000     0.627600     3 ; CARBOCY carbocyclic sugars
   CG321   CG3C31   OG3C31   CG3C31     9     0.000000     2.677760     5 ; 1BOX, 1-butene oxide; from HGA2 CG3C31 OG3C31 CG3C31 from 1EOX, 1-ethylene oxide; kevo
   CG321   CG3C31   OG3C31   CG3C31     9   180.000000     3.389040     6 ; 1BOX, 1-butene oxide; from HGA2 CG3C31 OG3C31 CG3C31 from 1EOX, 1-ethylene oxide; kevo
    HGA1   CG3C31   OG3C31   CG3C31     9     0.000000     2.677760     5 ; 1BOX, 1-butene oxide; from HGA2 CG3C31 OG3C31 CG3C31 from 1EOX, 1-ethylene oxide; kevo
    HGA1   CG3C31   OG3C31   CG3C31     9   180.000000     3.389040     6 ; 1BOX, 1-butene oxide; from HGA2 CG3C31 OG3C31 CG3C31 from 1EOX, 1-ethylene oxide; kevo
    HGA2   CG3C31   OG3C31   CG3C31     9     0.000000     2.677760     5 ; 1EOX, 1-ethylene oxide, kevo
    HGA2   CG3C31   OG3C31   CG3C31     9   180.000000     3.389040     6 ; 1EOX, 1-ethylene oxide, kevo
   CG2O4   CG3C41   CG3C41   OG3C51     9   180.000000     0.602914     3 ; 2OXT, ozyo, 04/19
   CG2O4   CG3C41   CG3C41     HGA2     9   180.000000     0.729271     3 ; 2OXT, ozyo, 04/19
  CG2R53   CG3C41   CG3C41   NG2R43     9     0.000000    12.552000     3 ; AZDO, 2-azetidinone, kevo
  CG2R53   CG3C41   CG3C41     HGA2     9     0.000000     2.384880     3 ; AZDO, 2-azetidinone; lsk & kevo
  CG3C41   CG3C41   CG3C41   CG3C41     9     0.000000     5.983120     3 ; CBU, cyclobutane; QM by Nikolay Simakov; lsk
  CG3C41   CG3C41   CG3C41   OG3C51     9     0.000000     0.000000     3 ; OXTN, oxetane, gmu
  CG3C41   CG3C41   CG3C41     HGA2     9     0.000000     2.384880     3 ; CBU, cyclobutane; QM by Nikolay Simakov; lsk
  NG2R43   CG3C41   CG3C41     HGA2     9     0.000000     2.384880     3 ; AZDO, 2-azetidinone; lsk & kevo
  OG3C51   CG3C41   CG3C41     HGA2     9     0.000000     0.794960     3 ; OXTN, oxetane, gmu
    HGA2   CG3C41   CG3C41     HGA2     9     0.000000     0.000000     3 ; CBU, cyclobutane, kevo
  CG3C41   CG3C41   NG2R43   CG2R53     9     0.000000    12.552000     3 ; AZDO, 2-azetidinone, kevo
  CG3C41   CG3C41   NG2R43     HGP1     9   180.000000     0.836800     3 ; AZDO, 2-azetidinone, kevo
    HGA2   CG3C41   NG2R43   CG2R53     9     0.000000     2.384880     3 ; AZDO, 2-azetidinone; lsk & kevo
    HGA2   CG3C41   NG2R43     HGP1     9     0.000000     0.000000     3 ; AZDO, 2-azetidinone, lsk & kevo
   CG2O4   CG3C41   OG3C51   CG3C41     9     0.000000     0.124265     2 ; 3OXT, ozyo
  CG3C41   CG3C41   OG3C51    CG2O4     9   180.000000     0.916714     2 ; 2OXT, ozyo, 04/19
  CG3C41   CG3C41   OG3C51   CG3C41     9     0.000000     2.092000     3 ; OXTN, oxetane, gmu (CG3C52 CG3C52 OG3C51 CG3C52)
    HGA2   CG3C41   OG3C51    CG2O4     9   180.000000     1.415447     3 ; 2OXT, ozyo, 04/19
    HGA2   CG3C41   OG3C51   CG3C41     9     0.000000     1.255200     3 ; OXTN, oxetane, gmu
   CG2O1   CG3C50   CG3C52   CG3C52     9     0.000000     0.585760     3 ; from CG2O1 CG3C51 CG3C52 CG3C52, PENALTY= 6 PXU
   CG2O1   CG3C50   CG3C52     HGA2     9     0.000000     0.585760     3 ; from CG2O1 CG3C51 CG3C52 HGA2, PENALTY= 6 PXU
   NG2S0   CG3C50   CG3C52   CG3C52     9     0.000000     0.585760     3 ; from NG2S0 CG3C51 CG3C52 CG3C52, PENALTY= 6 PXU
   NG2S0   CG3C50   CG3C52     HGA2     9     0.000000     0.585760     3 ; from NG2S0 CG3C51 CG3C52 HGA2, PENALTY= 6 PXU
   OG311   CG3C50   CG3C52   CG3C52     9   180.000000     2.092000     1 ; from OG311 CG3C51 CG3C52 CG3C52, PENALTY= 6 PXU
   OG311   CG3C50   CG3C52   CG3C52     9     0.000000     2.928800     2 ; from OG311 CG3C51 CG3C52 CG3C52, PENALTY= 6 PXU
   OG311   CG3C50   CG3C52   CG3C52     9     0.000000     1.673600     3 ; from OG311 CG3C51 CG3C52 CG3C52, PENALTY= 6 PXU
   OG311   CG3C50   CG3C52   CG3C52     9     0.000000     1.673600     5 ; from OG311 CG3C51 CG3C52 CG3C52, PENALTY= 6 PXU
   OG311   CG3C50   CG3C52     HGA2     9   180.000000     0.815880     3 ; from OG311 CG3C51 CG3C52 HGA2, PENALTY= 6 PXU
   CG2O1   CG3C50    NG2S0    CG2O1     9     0.000000     3.347200     3 ; from CG2O1 CG3C51 NG2S0 CG2O1, penalty= 6, sm239
   CG2O1   CG3C50    NG2S0   CG3C52     9     0.000000     0.418400     3 ; from CG2O1 CG3C51 NG2S0 CG3C52, PENALTY= 6 PXU
  CG3C52   CG3C50    NG2S0    CG2O1     9     0.000000     3.347200     3 ; from CG3C52 CG3C51 NG2S0 CG2O1, penalty= 6, sm239
  CG3C52   CG3C50    NG2S0   CG3C52     9     0.000000     0.418400     3 ; from CG3C52 CG3C51 NG2S0 CG3C52, PENALTY= 6 PXU
   OG311   CG3C50    NG2S0    CG2O1     9     0.000000     0.234722     3 ; PXU, by ac_aa
   OG311   CG3C50    NG2S0   CG3C52     9     0.000000    12.454931     3 ; PXU, by ac_aa
  CG2R51   CG3C50   NG3C51   CG3C50     9     0.000000     5.716181     3 ; R1A, by ac_aa
  CG2R51   CG3C50   NG3C51    OG312     9   180.000000    15.152774     3 ; R1A, by ac_aa
   CG331   CG3C50   NG3C51   CG3C50     9     0.000000    13.072908     3 ; R1A, by ac_aa
   CG331   CG3C50   NG3C51    OG312     9     0.000000     1.862717     3 ; R1A, by ac_aa
   CG2O1   CG3C50    OG311     HGP1     9     0.000000     0.122173     1 ; PXU, by ac_aa
   CG2O1   CG3C50    OG311     HGP1     9     0.000000     5.716599     2 ; PXU, by ac_aa
   CG2O1   CG3C50    OG311     HGP1     9     0.000000     2.151831     3 ; PXU, by ac_aa
  CG3C52   CG3C50    OG311     HGP1     9     0.000000     1.213360     1 ; from CG3C52 CG3C51 OG311 HGP1, PENALTY= 6 PXU
  CG3C52   CG3C50    OG311     HGP1     9     0.000000     2.594080     2 ; from CG3C52 CG3C51 OG311 HGP1, PENALTY= 6 PXU
  CG3C52   CG3C50    OG311     HGP1     9     0.000000     0.209200     3 ; from CG3C52 CG3C51 OG311 HGP1, PENALTY= 6 PXU
   NG2S0   CG3C50    OG311     HGP1     9     0.000000     0.804165     1 ; PXU, by ac_aa
   NG2S0   CG3C50    OG311     HGP1     9     0.000000     4.540477     2 ; PXU, by ac_aa
   NG2S0   CG3C50    OG311     HGP1     9     0.000000     2.720437     3 ; PXU, by ac_aa
  CG2R51   CG3C51   CG3C51   CG3C51     9   180.000000     1.422560     3 ; 7GNM, from cpea, yxu, RNA
  CG2R51   CG3C51   CG3C51   CG3C53     9   180.000000     1.422560     3 ; QUG, from cpea, yxu, RNA
  CG2R51   CG3C51   CG3C51    OG301     9     0.000000     0.585760     3 ; MQG, from QUG, yxu, RNA
  CG2R51   CG3C51   CG3C51    OG311     9     0.000000     0.585760     3 ; QUG, from cpea, yxu, RNA
  CG2R51   CG3C51   CG3C51     HGA1     9     0.000000     0.794960     3 ; QUG, from cpea, yxu, RNA
   CG321   CG3C51   CG3C51   CG3C51     9     0.000000     0.794960     3 ; alkane, 4/98, yin and mackerell, thf, viv
   CG321   CG3C51   CG3C51   CG3C52     9     0.000000     0.794960     3 ; alkane, 4/98, yin and mackerell, thf, viv
   CG321   CG3C51   CG3C51    NG2S3     9   180.000000     2.092000     2 ; NABAKB phosphoramidates
   CG321   CG3C51   CG3C51    NG321     9   180.000000     1.255200     3 ; amines
   CG321   CG3C51   CG3C51    OG303     9   180.000000     3.347200     3 ; NA, sugar
   CG321   CG3C51   CG3C51    OG303     9     0.000000     0.836800     4 ; NA, sugar
   CG321   CG3C51   CG3C51    OG311     9     0.000000     0.585760     3 ; PROT, hydroxyl wild card
   CG321   CG3C51   CG3C51     HGA1     9     0.000000     0.794960     3 ; alkane, 4/98, yin and mackerell, thf, viv
   CG331   CG3C51   CG3C51   CG3C51     9     0.000000     0.794960     3 ; alkane, 4/98, yin and mackerell, thf, viv
   CG331   CG3C51   CG3C51   CG3C52     9     0.000000     0.794960     3 ; alkane, 4/98, yin and mackerell, thf, viv
   CG331   CG3C51   CG3C51    OG303     9   180.000000     3.347200     3 ; NA, sugar
   CG331   CG3C51   CG3C51    OG311     9     0.000000     0.585760     3 ; PROT, hydroxyl wild card
   CG331   CG3C51   CG3C51     HGA1     9     0.000000     0.794960     3 ; alkane, 4/98, yin and mackerell, thf, viv
  CG3C51   CG3C51   CG3C51   CG3C51     9   180.000000     1.715440     3 ; cpen, cyclopentane, viv 10/4/05
  CG3C51   CG3C51   CG3C51   CG3C52     9   180.000000     1.715440     3 ; cpen, cyclopentane, viv 10/4/05
  CG3C51   CG3C51   CG3C51   CG3C53     9     0.000000     1.673600     6 ; NA bkb
  CG3C51   CG3C51   CG3C51   CG3RC1     9     0.000000     0.627600     3 ; 7GNM, from CG3C52 CG3C51 CG3C51 CG3RC1, yxu, RNA
  CG3C51   CG3C51   CG3C51   NG2R51     9     0.000000     0.000000     3 ; NA, glycosyl linkage
  CG3C51   CG3C51   CG3C51   NG2R61     9     0.000000     0.000000     3 ; NA, glycosyl linkage
  CG3C51   CG3C51   CG3C51    NG301     9     0.000000     0.000000     3 ; NADH, NDPH; Kenno: reverted to uncommented parameter from par_all27_na.prm
  CG3C51   CG3C51   CG3C51    NG311     9     0.000000     0.000000     3 ; 7GNM, from CG3C51 CG3C51 CG3C51 NG301, yxu, RNA
  CG3C51   CG3C51   CG3C51    OG303     9   180.000000     8.368000     3 ; NA, sugar
  CG3C51   CG3C51   CG3C51    OG303     9     0.000000     1.673600     5 ; NA, sugar
  CG3C51   CG3C51   CG3C51    OG303     9     0.000000     3.347200     6 ; NA, sugar
  CG3C51   CG3C51   CG3C51    OG311     9     0.000000     0.836800     3 ; par22, X   CT1 CT2 X; erh 3/08
  CG3C51   CG3C51   CG3C51   OG3C51     9     0.000000     0.000000     3 ; THF, 05/30/06, viv
  CG3C51   CG3C51   CG3C51    SG311     9     0.000000     0.372794     3 ; FZN, by ac_aa
  CG3C51   CG3C51   CG3C51     FGA1     9     0.000000     0.836800     3 ; PROT alkane update, adm jr., 3/2/92
  CG3C51   CG3C51   CG3C51     HGA1     9     0.000000     0.794960     3 ; alkane, 4/98, yin and mackerell, thf, viv
  CG3C51   CG3C51   CG3C51     HGA6     9     0.000000     0.794960     3 ; alkane, 4/98, yin and mackerell, thf, viv
  CG3C52   CG3C51   CG3C51   CG3C52     9   180.000000     1.715440     3 ; cpen, cyclopentane, viv 10/4/05
  CG3C52   CG3C51   CG3C51   CG3RC1     9     0.000000     0.627600     3 ; CARBOCY carbocyclic sugars
  CG3C52   CG3C51   CG3C51   NG2R51     9     0.000000     0.000000     3 ; NA, glycosyl linkage
  CG3C52   CG3C51   CG3C51    OG303     9   180.000000     3.347200     3 ; NA, sugar
  CG3C52   CG3C51   CG3C51    OG303     9     0.000000     0.836800     4 ; NA, sugar
  CG3C52   CG3C51   CG3C51    OG311     9     0.000000     0.836800     3 ; par22, X   CT1 CT2 X; erh 3/08
  CG3C52   CG3C51   CG3C51   OG3C51     9     0.000000     0.000000     3 ; THF, 05/30/06, viv
  CG3C52   CG3C51   CG3C51     FGA1     9     0.000000     0.836800     3 ; PROT alkane update, adm jr., 3/2/92
  CG3C52   CG3C51   CG3C51     HGA1     9     0.000000     0.794960     3 ; alkane, 4/98, yin and mackerell, thf, viv
  CG3C52   CG3C51   CG3C51     HGA6     9     0.000000     0.794960     3 ; alkane, 4/98, yin and mackerell, thf, viv
  CG3C53   CG3C51   CG3C51   CG3RC1     9     0.000000     1.673600     6 ; EQG, from CG3C51 CG3C51 CG3C51 CG3C53, yxu, RNA
  CG3C53   CG3C51   CG3C51    OG311     9     0.000000     0.585760     3 ; PROT, hydroxyl wild card
  CG3C53   CG3C51   CG3C51     HGA1     9     0.000000     0.815880     3 ; NA, sugar
  CG3RC1   CG3C51   CG3C51    OG311     9     0.000000     2.510400     1 ; CARBOCY carbocyclic sugars
  CG3RC1   CG3C51   CG3C51    OG311     9     0.000000     2.928800     3 ; CARBOCY carbocyclic sugars
  CG3RC1   CG3C51   CG3C51     HGA1     9     0.000000     0.627600     3 ; CARBOCY carbocyclic sugar
  NG2R51   CG3C51   CG3C51    OG303     9     0.000000     0.000000     3 ; NA nadp/nadph
  NG2R51   CG3C51   CG3C51    OG311     9     0.000000     0.000000     3 ; NA Guanine and uracil
  NG2R51   CG3C51   CG3C51     HGA1     9     0.000000     0.000000     3 ; NA, glycosyl linkage
  NG2R61   CG3C51   CG3C51    OG311     9     0.000000     0.000000     3 ; NA Adenine and cytosine
  NG2R61   CG3C51   CG3C51     HGA1     9     0.000000     0.815880     3 ; NA nadp/nadph
   NG2S3   CG3C51   CG3C51   OG3C51     9     0.000000     0.836800     3 ; NABAKB tphc phosphoramidates
   NG2S3   CG3C51   CG3C51     HGA1     9     0.000000     0.815880     3 ; NABAKB tphc phosphoramidates
   NG301   CG3C51   CG3C51    OG311     9     0.000000     0.000000     3 ; NADH, NDPH; Kenno: reverted to "Adenine and cytosine" from par_all27_na.prm
   NG301   CG3C51   CG3C51     HGA1     9     0.000000     0.815880     3 ; NADH, NDPH; Kenno: reverted to uncommented parameter from par_all27_na.prm
   NG311   CG3C51   CG3C51    OG301     9     0.000000     0.000000     3 ; 7GNM, from NG301 CG3C51 CG3C51 OG311, yxu, RNA
   NG311   CG3C51   CG3C51    OG311     9     0.000000     0.000000     3 ; 7GNM, from NG301 CG3C51 CG3C51 OG311, yxu, RNA
   NG311   CG3C51   CG3C51     HGA1     9     0.000000     0.815880     3 ; 7GNM, from NG301 CG3C51 CG3C51 HGA1, yxu, RNA
   NG321   CG3C51   CG3C51   OG3C51     9     0.000000     0.836800     3 ; NABAKB tphc phosphoramidates
   NG321   CG3C51   CG3C51     HGA1     9     0.000000     0.815880     3 ; NABAKB tphc phosphoramidates
   OG301   CG3C51   CG3C51    OG311     9     0.000000     0.000000     3 ; MQG, from OG303 CG3C51 CG3C51 OG311, yxu, RNA
   OG301   CG3C51   CG3C51     HGA1     9     0.000000     0.815880     3 ; MQG, from OG303 CG3C51 CG3C51 HGA1, yxu, RNA
   OG303   CG3C51   CG3C51    OG311     9     0.000000     0.000000     3 ; NA bkb
   OG303   CG3C51   CG3C51   OG3C51     9     0.000000     0.836800     3 ; NA bkb
   OG303   CG3C51   CG3C51   OG3C51     9   180.000000     2.510400     4 ; NA bkb
   OG303   CG3C51   CG3C51   OG3C51     9     0.000000     1.255200     5 ; NA bkb
   OG303   CG3C51   CG3C51   OG3C51     9     0.000000     2.092000     6 ; NA bkb
   OG303   CG3C51   CG3C51     FGA1     9     0.000000     0.836800     3 ; PROT alkane update, adm jr., 3/2/92
   OG303   CG3C51   CG3C51     HGA1     9     0.000000     0.815880     3 ; NA, sugar
   OG303   CG3C51   CG3C51     HGA6     9     0.000000     0.815880     3 ; NA, sugar
   OG311   CG3C51   CG3C51    OG311     9     0.000000     0.000000     3 ; NA bkb
   OG311   CG3C51   CG3C51   OG3C51     9     0.000000     0.836800     3 ; NA, sugar
   OG311   CG3C51   CG3C51   OG3C51     9   180.000000     2.510400     4 ; NA, sugar
   OG311   CG3C51   CG3C51   OG3C51     9     0.000000     1.255200     5 ; NA, sugar
   OG311   CG3C51   CG3C51   OG3C51     9     0.000000     2.092000     6 ; NA, sugar
   OG311   CG3C51   CG3C51    SG311     9   180.000000     3.083190     3 ; FZN, by ac_aa
   OG311   CG3C51   CG3C51     HGA1     9     0.000000     0.815880     3 ; NA, sugar
  OG3C51   CG3C51   CG3C51     HGA1     9     0.000000     0.794960     3 ; alkane, 4/98, yin and mackerell, thf viv
   SG311   CG3C51   CG3C51     HGA1     9   180.000000     8.796442     3 ; FZN, by ac_aa
    FGA1   CG3C51   CG3C51     HGA1     9     0.000000     0.774040     3 ; FLUROALK fluoro_alkanes
    HGA1   CG3C51   CG3C51     HGA1     9     0.000000     0.794960     3 ; alkane, 4/98, yin and mackerell, thf, viv
    HGA1   CG3C51   CG3C51     HGA6     9     0.000000     0.794960     3 ; alkane, 4/98, yin and mackerell, thf, viv
   CG2O1   CG3C51   CG3C52   CG3C51     9     0.000000     0.585760     3 ; from CG2O1 CG3C51 CG3C52 CG3C52, PENALTY= 0.4 MP8 4FB HZP HYP FP9
   CG2O1   CG3C51   CG3C52   CG3C52     9     0.000000     0.585760     3 ; PROT AcProNH2, ProNH2, AcProNHCH3 RLD 4/23/93
   CG2O1   CG3C51   CG3C52    SG311     9     0.000000     0.587015     3 ; PRS, by ac_aa
   CG2O1   CG3C51   CG3C52     HGA2     9     0.000000     0.585760     3 ; PROT AcProNH2, ProNH2, AcProNHCH3 RLD 4/23/93
   CG2O3   CG3C51   CG3C52   CG3C52     9     0.000000     0.585760     3 ; PROT AcProNH2, ProNH2, AcProNHCH3 RLD 4/23/93
   CG2O3   CG3C51   CG3C52     HGA2     9     0.000000     0.585760     3 ; PROT AcProNH2, ProNH2, AcProNHCH3 RLD 4/23/93
  CG2R51   CG3C51   CG3C52   CG3C52     9   180.000000     1.422560     3 ; cena, from CG2R53 CG3C52 CG3C52 CG3C52, yxu, RNA
  CG2R51   CG3C51   CG3C52   CG3C53     9   180.000000     1.422560     3 ; cpea, yxu, RNA
  CG2R51   CG3C51   CG3C52     HGA2     9     0.000000     0.585760     3 ; cpea, from CG2R51 CG3C52 CG3C52 HGA2, yxu, RNA
  CG2R53   CG3C51   CG3C52   CG2R53     9     0.000000     0.031380     3 ; 6V1, by ac_aa
  CG2R53   CG3C51   CG3C52     HGA2     9     0.000000     0.000000     3 ; from CG2R53 CG3C52 CG3C52 HGA2, penalty= 4 6V1 SUI
   CG311   CG3C51   CG3C52   CG3C52     9     0.000000     0.794960     3 ; alkane, 4/98, yin and mackerell, thf, viv
   CG311   CG3C51   CG3C52     HGA2     9     0.000000     0.794960     3 ; alkane, 4/98, yin and mackerell, thf, viv
   CG314   CG3C51   CG3C52   CG3C51     9     0.000000     0.426768     3 ; 5CS, by ac_aa
   CG314   CG3C51   CG3C52     HGA2     9     0.000000     0.076567     3 ; 5CS, by ac_aa
   CG321   CG3C51   CG3C52   CG3C52     9     0.000000     0.794960     3 ; alkane, 4/98, yin and mackerell, thf, viv
   CG321   CG3C51   CG3C52   NG3C51     9     0.000000     0.000000     3 ; 3POMP, 3-phenoxymethylpyrrolidine; from PRLD etc; kevo
   CG321   CG3C51   CG3C52     HGA2     9     0.000000     0.794960     3 ; alkane, 4/98, yin and mackerell, thf, viv
   CG331   CG3C51   CG3C52   CG2RC0     9     0.000000     1.764393     3 ; IGL, by ac_aa
   CG331   CG3C51   CG3C52   CG2RC0     9   180.000000     2.474836     4 ; IGL, by ac_aa
   CG331   CG3C51   CG3C52   CG2RC0     9   180.000000     0.962738     6 ; IGL, by ac_aa
   CG331   CG3C51   CG3C52   CG3C51     9     0.000000     0.794960     3 ; from CG331 CG3C51 CG3C52 CG3C52, PENALTY= 0.4 MP8
   CG331   CG3C51   CG3C52   CG3C52     9     0.000000     0.794960     3 ; alkane, 4/98, yin and mackerell, thf, viv
   CG331   CG3C51   CG3C52    NG2S0     9   180.000000     2.092000     2 ; from CG321 CG3C51 CG3C51 NG2S3, MP8
   CG331   CG3C51   CG3C52     HGA2     9     0.000000     0.794960     3 ; alkane, 4/98, yin and mackerell, thf, viv
  CG3C51   CG3C51   CG3C52   CG3C51     9   180.000000     1.715440     3 ; cpen, cyclopentane, viv 10/4/05
  CG3C51   CG3C51   CG3C52   CG3C52     9   180.000000     1.715440     3 ; cpen, cyclopentane, viv 10/4/05
  CG3C51   CG3C51   CG3C52   CG3RC1     9     0.000000     0.627600     3 ; CARBOCY carbocyclic sugars
  CG3C51   CG3C51   CG3C52   OG3C51     9     0.000000     0.000000     3 ; THF, 05/30/06, viv
  CG3C51   CG3C51   CG3C52     HGA2     9     0.000000     0.794960     3 ; alkane, 4/98, yin and mackerell, thf, viv
  CG3C52   CG3C51   CG3C52   CG2R51     9   180.000000     1.422560     3 ; pepr, from CG2R53 CG3C52 CG3C52 CG3C52, not optimized, yxu, RNA
  CG3C52   CG3C51   CG3C52   CG2RC0     9   180.000000    15.480800     3 ; from CG2R51 CG3C52 CG3C52 CG3C52, PENALTY= 5 IGL
  CG3C52   CG3C51   CG3C52   CG2RC0     9     0.000000     9.414000     4 ; from CG2R51 CG3C52 CG3C52 CG3C52, PENALTY= 5 IGL
  CG3C52   CG3C51   CG3C52   CG2RC0     9   180.000000     0.962320     6 ; from CG2R51 CG3C52 CG3C52 CG3C52, PENALTY= 5 IGL
  CG3C52   CG3C51   CG3C52   CG3C51     9   180.000000     1.715440     3 ; from CG3C52 CG3C51 CG3C52 CG3C52, PENALTY= 0.4 MP8 4FB HZP HYP FP9
  CG3C52   CG3C51   CG3C52   CG3C52     9   180.000000     1.715440     3 ; cpen, cyclopentane, viv 10/4/05
  CG3C52   CG3C51   CG3C52   CG3RC1     9     0.000000     0.627600     3 ; CARBOCY carbocyclic sugars
  CG3C52   CG3C51   CG3C52    NG2S0     9     0.000000     0.585760     3 ; from CG3C52 CG3C52 CG3C52 NG2S0, PENALTY= 4 MP8 4FB HZP HYP FP9
  CG3C52   CG3C51   CG3C52   NG3C51     9     0.000000     2.886960     3 ; 3POMP, 3-phenoxymethylpyrrolidine; from PRLD etc; kevo
  CG3C52   CG3C51   CG3C52   OG3C51     9     0.000000     0.000000     3 ; THF, 05/30/06, viv
  CG3C52   CG3C51   CG3C52     HGA2     9     0.000000     0.794960     3 ; alkane, 4/98, yin and mackerell, thf, viv
  CG3RC1   CG3C51   CG3C52   CG3C52     9     0.000000     0.627600     3 ; CARBOCY carbocyclic sugars
  CG3RC1   CG3C51   CG3C52   OG3C51     9     0.000000     0.000000     3 ; RSRF, 4,6-dioxabicyclo[3.3.0]octan-8-ol; from THF; xxwy
  CG3RC1   CG3C51   CG3C52     HGA2     9     0.000000     0.627600     3 ; CARBOCY carbocyclic sugars
  NG2R51   CG3C51   CG3C52   CG3C51     9     0.000000     0.000000     3 ; NA, glycosyl linkage
  NG2R51   CG3C51   CG3C52   CG3C52     9     0.000000     0.000000     3 ; NA, glycosyl linkage
  NG2R51   CG3C51   CG3C52     HGA2     9     0.000000     0.000000     3 ; NA, glycosyl linkage
  NG2R61   CG3C51   CG3C52   CG3C51     9     0.000000     0.000000     3 ; NA, glycosyl linkage
  NG2R61   CG3C51   CG3C52   CG3C52     9     0.000000     0.000000     3 ; NA, glycosyl linkage
  NG2R61   CG3C51   CG3C52     HGA2     9     0.000000     0.000000     3 ; NA, glycosyl linkage
   NG2S0   CG3C51   CG3C52   CG3C51     9     0.000000     0.585760     3 ; from NG2S0 CG3C51 CG3C52 CG3C52, PENALTY= 0.4 MP8 4FB HZP HYP FP9
   NG2S0   CG3C51   CG3C52   CG3C52     9     0.000000     0.585760     3 ; PROT AcProNH2, ProNH2, AcProNHCH3 RLD 4/23/93
   NG2S0   CG3C51   CG3C52    SG311     9   180.000000     3.409123     2 ; PRS, by ac_aa
   NG2S0   CG3C51   CG3C52     HGA2     9     0.000000     0.585760     3 ; PROT AcProNH2, ProNH2, AcProNHCH3 RLD 4/23/93
   NG2S1   CG3C51   CG3C52   CG2R53     9     0.000000    14.425595     3 ; SUI, by ac_aa
   NG2S1   CG3C51   CG3C52     HGA2     9     0.000000     0.585760     3 ; from NG2S0 CG3C51 CG3C52 HGA2, penalty= 2 SUI
   NG2S3   CG3C51   CG3C52   CG3C51     9   180.000000     5.648400     1 ; NABAKB phosphoramidates
   NG2S3   CG3C51   CG3C52   CG3C51     9     0.000000     4.184000     2 ; NABAKB phosphoramidates
   NG2S3   CG3C51   CG3C52   CG3C51     9   180.000000     0.836800     3 ; NABAKB phosphoramidates
   NG2S3   CG3C51   CG3C52   CG3C52     9   180.000000     5.648400     1 ; NABAKB phosphoramidates
   NG2S3   CG3C51   CG3C52   CG3C52     9     0.000000     4.184000     2 ; NABAKB phosphoramidates
   NG2S3   CG3C51   CG3C52   CG3C52     9   180.000000     0.836800     3 ; NABAKB phosphoramidates
   NG2S3   CG3C51   CG3C52   OG3C51     9     0.000000     0.836800     3 ; NABAKB tphc phosphoramidates
   NG2S3   CG3C51   CG3C52     HGA2     9     0.000000     0.815880     3 ; NABAKB tphc phosphoramidates
   NG311   CG3C51   CG3C52   CG3C52     9   180.000000     1.255200     3 ; cena, from NG321 CG3C51 CG3C52 CG3C51, yxu, RNA
   NG311   CG3C51   CG3C52     HGA2     9   180.000000     0.627600     3 ; cena, from NG321 CG3C51 CG3C52 HGA2, yxu, RNA
   NG321   CG3C51   CG3C52   CG3C51     9   180.000000     1.255200     3 ; amines
   NG321   CG3C51   CG3C52     HGA2     9   180.000000     0.627600     3 ; amines
  NG3C51   CG3C51   CG3C52   CG3C51     9     0.000000     2.886960     3 ; from CG3C51 CG3C52 CG3C52 NG3C51, penalty= 4 5CS
  NG3C51   CG3C51   CG3C52   CG3C52     9     0.000000     2.886960     3 ; from CG3C52 CG3C52 CG3C52 NG3C51, PENALTY= 4 PR4
  NG3C51   CG3C51   CG3C52     HGA2     9     0.000000     0.000000     3 ; from NG3C51 CG3C52 CG3C52 HGA2, PENALTY= 4 PR4 5CS
   OG301   CG3C51   CG3C52   CG2R51     9     0.000000     0.585760     3 ; pepr, from QUG, yxu, RNA
   OG301   CG3C51   CG3C52   CG3C52     9   180.000000     8.368000     3 ; THF2, THF-2'OMe from NA, sugar, ed Kenno: was 1.0 - reset to 2.0
   OG301   CG3C51   CG3C52   CG3C52     9     0.000000     1.673600     5 ; THF2, THF-2'OMe from NA, sugar, ed
   OG301   CG3C51   CG3C52   CG3C52     9     0.000000     3.347200     6 ; THF2, THF-2'OMe from NA, sugar, ed
   OG301   CG3C51   CG3C52   OG3C51     9     0.000000     0.836800     3 ; THF2, THF-2'OMe, standard parameter, ed
   OG301   CG3C51   CG3C52     HGA2     9   180.000000     0.815880     3 ; THF2, THF-2'OMe from NA, sugar, ed. Kenno: was 1.395 - problematic when substituting away hydrogens.
   OG303   CG3C51   CG3C52   CG3C51     9   180.000000     8.368000     3 ; NA, sugar
   OG303   CG3C51   CG3C52   CG3C51     9     0.000000     1.673600     5 ; NA, sugar
   OG303   CG3C51   CG3C52   CG3C51     9     0.000000     3.347200     6 ; NA, sugar
   OG303   CG3C51   CG3C52   CG3C52     9   180.000000     2.092000     1 ; NA
   OG303   CG3C51   CG3C52   CG3C52     9     0.000000     2.928800     2 ; NA
   OG303   CG3C51   CG3C52   CG3C52     9     0.000000     1.673600     3 ; NA
   OG303   CG3C51   CG3C52   CG3C52     9     0.000000     1.673600     5 ; NA
   OG303   CG3C51   CG3C52   CG3RC1     9     0.000000     7.949600     2 ; CARBOCY carbocyclic sugars
   OG303   CG3C51   CG3C52   OG3C51     9     0.000000     0.836800     3 ; NA, sugar
   OG303   CG3C51   CG3C52   OG3C51     9   180.000000     2.510400     4 ; NA, sugar
   OG303   CG3C51   CG3C52   OG3C51     9     0.000000     1.255200     5 ; NA, sugar
   OG303   CG3C51   CG3C52   OG3C51     9     0.000000     2.092000     6 ; NA, sugar
   OG303   CG3C51   CG3C52     HGA2     9     0.000000     0.815880     3 ; NA, sugar
   OG311   CG3C51   CG3C52   CG3C51     9   180.000000     8.368000     3 ; NA, sugar
   OG311   CG3C51   CG3C52   CG3C51     9     0.000000     1.673600     5 ; NA, sugar
   OG311   CG3C51   CG3C52   CG3C51     9     0.000000     3.347200     6 ; NA, sugar
   OG311   CG3C51   CG3C52   CG3C52     9   180.000000     2.092000     1 ; NA elevates energy at 0 (c3'endo), adm
   OG311   CG3C51   CG3C52   CG3C52     9     0.000000     2.928800     2 ; NA elevates energy at 0 (c3'endo), adm
   OG311   CG3C51   CG3C52   CG3C52     9     0.000000     1.673600     3 ; NA abasic nucleoside
   OG311   CG3C51   CG3C52   CG3C52     9     0.000000     1.673600     5 ; NA abasic nucleoside
   OG311   CG3C51   CG3C52   CG3C53     9     0.000000     0.585760     3 ; cpea, yxu, RNA
   OG311   CG3C51   CG3C52   CG3RC1     9     0.000000     7.949600     2 ; CARBOCY carbocyclic sugars
   OG311   CG3C51   CG3C52    NG2S0     9     0.000000     0.000000     3 ; from NG2R61 CG3C51 CG3C51 OG311, PENALTY= 9 HZP HYP
   OG311   CG3C51   CG3C52   OG3C51     9     0.000000     0.836800     3 ; NA, sugar
   OG311   CG3C51   CG3C52   OG3C51     9   180.000000     2.510400     4 ; NA, sugar
   OG311   CG3C51   CG3C52   OG3C51     9     0.000000     1.255200     5 ; NA, sugar
   OG311   CG3C51   CG3C52   OG3C51     9     0.000000     2.092000     6 ; NA, sugar
   OG311   CG3C51   CG3C52     HGA2     9   180.000000     0.815880     3 ; NA, sugar
  OG3C51   CG3C51   CG3C52   CG3C51     9     0.000000     0.000000     3 ; THF, 05/30/06, viv
  OG3C51   CG3C51   CG3C52   CG3C52     9     0.000000     0.000000     3 ; THF, 05/30/06, viv
  OG3C51   CG3C51   CG3C52     HGA2     9     0.000000     0.794960     3 ; alkane, 4/98, yin and mackerell, thf viv
   SG311   CG3C51   CG3C52   CG2R53     9     0.000000     0.902070     3 ; 6V1, by ac_aa
   SG311   CG3C51   CG3C52   CG3C51     9   180.000000     1.240556     3 ; 5CS, by ac_aa
   SG311   CG3C51   CG3C52     HGA2     9     0.000000     3.986934     3 ; 6V1, by ac_aa
    FGA1   CG3C51   CG3C52   CG3C51     9     0.000000     0.836800     3 ; from CG3C51 CG3C51 CG3C51 FGA1, PENALTY= 4 4FB FP9
    FGA1   CG3C51   CG3C52    NG2S0     9     0.000000     1.993676     3 ; 4FB, by ac_aa
    FGA1   CG3C51   CG3C52   OG3C51     9     0.000000     0.836800     3 ; PROT alkane update, adm jr., 3/2/92
    FGA1   CG3C51   CG3C52     HGA2     9     0.000000     0.774040     3 ; FLUROALK fluoro_alkanes
    HGA1   CG3C51   CG3C52   CG2R51     9     0.000000     0.585760     3 ; pepr, from CG2R51 CG3C52 CG3C52 HGA2, not optimized, yxu, RNA
    HGA1   CG3C51   CG3C52   CG2R53     9     0.000000     0.000000     3 ; from CG2R53 CG3C52 CG3C52 HGA2, penalty= 4 6V1 SUI
    HGA1   CG3C51   CG3C52   CG2RC0     9     0.000000     0.000000     3 ; from CG2RC0 CG3C52 CG3C52 HGA2, PENALTY= 4 IGL
    HGA1   CG3C51   CG3C52   CG3C51     9     0.000000     0.794960     3 ; alkane, 4/98, yin and mackerell, thf, viv
    HGA1   CG3C51   CG3C52   CG3C52     9     0.000000     0.794960     3 ; alkane, 4/98, yin and mackerell, thf, viv
    HGA1   CG3C51   CG3C52   CG3C53     9     0.000000     0.794960     3 ; cpea, from CG3C53 CG3C51 CG3C51 HGA1, yxu, RNA
    HGA1   CG3C51   CG3C52   CG3RC1     9     0.000000     0.627600     3 ; CARBOCY carbocyclic sugars
    HGA1   CG3C51   CG3C52    NG2S0     9     0.000000     0.585760     3 ; from NG2S0 CG3C52 CG3C52 HGA2, PENALTY= 4 MP8 HZP HYP
    HGA1   CG3C51   CG3C52   NG3C51     9     0.000000     0.000000     3 ; 3POMP, 3-phenoxymethylpyrrolidine; from PRLD etc; kevo
    HGA1   CG3C51   CG3C52   OG3C51     9     0.000000     0.794960     3 ; alkane, 4/98, yin and mackerell, thf viv
    HGA1   CG3C51   CG3C52    SG311     9     0.000000     4.049275     3 ; PRS, by ac_aa
    HGA1   CG3C51   CG3C52     HGA2     9     0.000000     0.794960     3 ; alkane, 4/98, yin and mackerell, thf, viv
    HGA6   CG3C51   CG3C52   CG3C51     9     0.000000     0.794960     3 ; from CG3C51 CG3C51 CG3C51 HGA6, PENALTY= 4 4FB FP9
    HGA6   CG3C51   CG3C52    NG2S0     9     0.000000     0.585760     3 ; from NG2S0 CG3C52 CG3C52 HGA2, PENALTY= 9.1 4FB FP9
    HGA6   CG3C51   CG3C52   OG3C51     9     0.000000     0.794960     3 ; alkane, 4/98, yin and mackerell, thf viv
    HGA6   CG3C51   CG3C52     HGA2     9     0.000000     0.794960     3 ; alkane, 4/98, yin and mackerell, thf, viv
  CG3C51   CG3C51   CG3C53   CG2R51     9   180.000000     1.422560     3 ; QUG, from cpea, yxu, RNA
  CG3C51   CG3C51   CG3C53   CG3RC1     9     0.000000     0.627600     3 ; EQG, from CG3C52 CG3C51 CG3C51 CG3RC1, yxu, RNA
  CG3C51   CG3C51   CG3C53   NG2R61     9     0.000000     0.000000     3 ; NA, glycosyl linkage
  CG3C51   CG3C51   CG3C53    NG3P2     9     0.000000     0.585760     3 ; QUG, from cpea, yxu, RNA
  CG3C51   CG3C51   CG3C53   OG3C51     9     0.000000     2.510400     6 ; NA, sugar
  CG3C51   CG3C51   CG3C53     HGA1     9     0.000000     0.815880     3 ; NA, sugar
   OG301   CG3C51   CG3C53   CG2R51     9     0.000000     0.585760     3 ; MQG, from QUG, yxu, RNA
   OG301   CG3C51   CG3C53    NG3P2     9     0.000000     0.000000     3 ; MQG, from QUG, yxu, RNA
   OG301   CG3C51   CG3C53     HGA1     9     0.000000     0.815880     3 ; MQG, from OG303 CG3C51 CG3C51 HGA1, yxu, RNA
   OG311   CG3C51   CG3C53   CG2R51     9     0.000000     0.585760     3 ; QUG, from cpea, yxu, RNA
   OG311   CG3C51   CG3C53   CG3RC1     9     0.000000     2.510400     1 ; EQG, from CG3RC1 CG3C51 CG3C51 OG311, yxu, RNA
   OG311   CG3C51   CG3C53   CG3RC1     9     0.000000     2.928800     3 ; EQG, from CG3RC1 CG3C51 CG3C51 OG311, yxu, RNA
   OG311   CG3C51   CG3C53   NG2R61     9     0.000000     0.000000     3 ; NA Adenine and cytosine
   OG311   CG3C51   CG3C53    NG3P2     9     0.000000     0.000000     3 ; QUG, from NG301 CG3C51 CG3C51 OG311, yxu, RNA
   OG311   CG3C51   CG3C53   OG3C51     9     0.000000     0.836800     3 ; NA, sugar
   OG311   CG3C51   CG3C53   OG3C51     9   180.000000     2.510400     4 ; NA, sugar
   OG311   CG3C51   CG3C53   OG3C51     9     0.000000     1.255200     5 ; NA, sugar
   OG311   CG3C51   CG3C53   OG3C51     9     0.000000     2.092000     6 ; NA, sugar
   OG311   CG3C51   CG3C53     HGA1     9     0.000000     0.815880     3 ; NA, sugar
    HGA1   CG3C51   CG3C53   CG2R51     9     0.000000     0.585760     3 ; QUG, from cpea, yxu, RNA
    HGA1   CG3C51   CG3C53   CG3RC1     9     0.000000     0.627600     3 ; EQG, from CG3RC1 CG3C51 CG3C51 HGA1, yxu, RNA
    HGA1   CG3C51   CG3C53   NG2R61     9     0.000000     0.815880     3 ; NA nadp/nadph
    HGA1   CG3C51   CG3C53    NG3P2     9     0.000000     0.585760     3 ; QUG, from cpea, yxu, RNA
    HGA1   CG3C51   CG3C53   OG3C51     9     0.000000     0.815880     3 ; NA, sugar
    HGA1   CG3C51   CG3C53     HGA1     9     0.000000     0.815880     3 ; NA, sugar
   CG311   CG3C51   CG3RC1    CG311     9     0.000000     0.661072     3 ; CA, Cholic Acid, cacha, 02/08
   CG311   CG3C51   CG3RC1    CG321     9     0.000000     0.209200     3 ; BAM1, bile acid steroidal C-D ring, cacha, 02/08
   CG311   CG3C51   CG3RC1    CG331     9     0.000000     0.661072     3 ; BAM1, bile acid steroidal C-D ring, cacha, 02/08
   CG311   CG3C51   CG3RC1   CG3RC1     9     0.000000     0.661072     3 ; BAM1, bile acid steroidal C-D ring, cacha, 02/08
   CG321   CG3C51   CG3RC1   CG3C31     9   180.000000     9.204800     2 ; CARBOCY carbocyclic sugars
   CG321   CG3C51   CG3RC1   CG3C31     9     0.000000    16.736000     3 ; CARBOCY carbocyclic sugars
   CG321   CG3C51   CG3RC1   CG3C31     9   180.000000     2.301200     6 ; CARBOCY carbocyclic sugars
   CG321   CG3C51   CG3RC1   CG3RC1     9     0.000000     0.627600     3 ; CARBOCY carbocyclic sugars
   CG321   CG3C51   CG3RC1     HGA1     9     0.000000     0.627600     3 ; CARBOCY carbocyclic sugars
   CG331   CG3C51   CG3RC1    CG321     9     0.000000     0.836800     3 ; PROT alkane update, adm jr., 3/2/92
   CG331   CG3C51   CG3RC1    CG331     9     0.000000     0.836800     3 ; PROT alkane update, adm jr., 3/2/92
   CG331   CG3C51   CG3RC1   CG3RC1     9     0.000000     0.836800     3 ; PROT alkane update, adm jr., 3/2/92
  CG3C51   CG3C51   CG3RC1   CG3C31     9     0.000000     0.627600     3 ; CARBOCY carbocyclic sugars
  CG3C51   CG3C51   CG3RC1   CG3RC1     9     0.000000     0.627600     3 ; CARBOCY carbocyclic sugars
  CG3C51   CG3C51   CG3RC1   OG3C31     9     0.000000     2.510400     3 ; EQG, from cpoa, yxu, RNA
  CG3C51   CG3C51   CG3RC1   OG3C31     9     0.000000     2.092000     4 ; EQG, from cpoa, yxu, RNA
  CG3C51   CG3C51   CG3RC1     HGA1     9     0.000000     0.627600     3 ; CARBOCY carbocyclic sugars
  CG3C52   CG3C51   CG3RC1    CG311     9     0.000000     0.209200     3 ; CA, Cholic Acid, cacha, 02/08
  CG3C52   CG3C51   CG3RC1    CG321     9   180.000000     9.204800     2 ; CARBOCY carbocyclic sugars
  CG3C52   CG3C51   CG3RC1    CG321     9     0.000000    16.736000     3 ; CARBOCY carbocyclic sugars
  CG3C52   CG3C51   CG3RC1    CG321     9   180.000000     2.301200     6 ; CARBOCY carbocyclic sugars
  CG3C52   CG3C51   CG3RC1    CG331     9     0.000000     0.209200     3 ; BAM1, bile acid steroidal C-D ring, cacha, 02/08
  CG3C52   CG3C51   CG3RC1   CG3C31     9   180.000000     9.204800     2 ; CARBOCY carbocyclic sugars
  CG3C52   CG3C51   CG3RC1   CG3C31     9     0.000000    16.736000     3 ; CARBOCY carbocyclic sugars
  CG3C52   CG3C51   CG3RC1   CG3C31     9   180.000000     2.301200     6 ; CARBOCY carbocyclic sugars
  CG3C52   CG3C51   CG3RC1   CG3C52     9     0.000000     0.000000     3 ; RSRF, 4,6-dioxabicyclo[3.3.0]octan-8-ol; xxwy
  CG3C52   CG3C51   CG3RC1   CG3RC1     9     0.000000     0.627600     3 ; CARBOCY carbocyclic sugars
  CG3C52   CG3C51   CG3RC1   OG3C31     9     0.000000     2.510400     3 ; cona, from cpoa, yxu, RNA
  CG3C52   CG3C51   CG3RC1   OG3C31     9     0.000000     2.092000     4 ; cona, from cpoa, yxu, RNA
  CG3C52   CG3C51   CG3RC1     HGA1     9     0.000000     0.627600     3 ; CARBOCY carbocyclic sugars
  NG2R51   CG3C51   CG3RC1   CG3C31     9     0.000000     0.627600     3 ; CARBOCY carbocyclic sugars
  NG2R51   CG3C51   CG3RC1   CG3RC1     9     0.000000     0.627600     3 ; CARBOCY carbocyclic sugars
  NG2R51   CG3C51   CG3RC1     HGA1     9     0.000000     0.627600     3 ; CARBOCY carbocyclic sugars
  NG2R61   CG3C51   CG3RC1   CG3C31     9     0.000000     0.627600     3 ; CARBOCY carbocyclic sugars
  NG2R61   CG3C51   CG3RC1   CG3RC1     9     0.000000     0.627600     3 ; CARBOCY carbocyclic sugars
  NG2R61   CG3C51   CG3RC1     HGA1     9     0.000000     0.627600     3 ; CARBOCY carbocyclic sugars
   NG311   CG3C51   CG3RC1   CG3RC1     9   180.000000     3.347200     4 ; 7GNM, yxu, RNA
   NG311   CG3C51   CG3RC1   CG3RC1     9     0.000000     2.092000     6 ; 7GNM, yxu, RNA
   NG311   CG3C51   CG3RC1   OG3C31     9   180.000000     3.347200     4 ; 7GNM, yxu, RNA
   NG311   CG3C51   CG3RC1   OG3C31     9     0.000000     2.092000     6 ; 7GNM, yxu, RNA
   NG311   CG3C51   CG3RC1     HGA1     9     0.000000     0.815880     3 ; 7GNM, yxu, RNA
   OG303   CG3C51   CG3RC1   CG3C31     9     0.000000     1.882800     2 ; CARBOCY carbocyclic sugars
   OG303   CG3C51   CG3RC1   CG3C31     9   180.000000     3.347200     3 ; CARBOCY carbocyclic sugars
   OG303   CG3C51   CG3RC1   CG3C31     9     0.000000     0.836800     4 ; CARBOCY carbocyclic sugars
   OG303   CG3C51   CG3RC1   CG3RC1     9     0.000000     1.882800     2 ; CARBOCY carbocyclic sugars
   OG303   CG3C51   CG3RC1   CG3RC1     9     0.000000     3.765600     6 ; CARBOCY carbocyclic sugars
   OG303   CG3C51   CG3RC1     HGA1     9     0.000000     0.627600     3 ; CARBOCY carbocyclic sugars
   OG311   CG3C51   CG3RC1    CG321     9     0.000000     1.882800     2 ; CARBOCY carbocyclic sugars
   OG311   CG3C51   CG3RC1    CG321     9   180.000000     3.347200     3 ; CARBOCY carbocyclic sugars
   OG311   CG3C51   CG3RC1    CG321     9     0.000000     0.836800     4 ; CARBOCY carbocyclic sugars
   OG311   CG3C51   CG3RC1   CG3C31     9     0.000000     1.882800     2 ; CARBOCY carbocyclic sugars
   OG311   CG3C51   CG3RC1   CG3C31     9   180.000000     3.347200     3 ; CARBOCY carbocyclic sugars
   OG311   CG3C51   CG3RC1   CG3C31     9     0.000000     0.836800     4 ; CARBOCY carbocyclic sugars
   OG311   CG3C51   CG3RC1   CG3C52     9     0.000000     1.882800     2 ; RSRF, 4,6-dioxabicyclo[3.3.0]octan-8-ol; from CARBOCY; xxwy
   OG311   CG3C51   CG3RC1   CG3RC1     9     0.000000     1.882800     2 ; CARBOCY carbocyclic sugars
   OG311   CG3C51   CG3RC1   OG3C31     9     0.000000     0.000000     4 ; EQG, yxu, RNA
   OG311   CG3C51   CG3RC1     HGA1     9     0.000000     0.627600     3 ; RSRF, 4,6-dioxabicyclo[3.3.0]octan-8-ol; from CARBOCY; xxwy
    HGA1   CG3C51   CG3RC1    CG311     9     0.000000     0.209200     3 ; CA, Cholic Acid, cacha, 02/08
    HGA1   CG3C51   CG3RC1    CG321     9     0.000000     0.815880     3 ; CARBOCY carbocyclic sugars
    HGA1   CG3C51   CG3RC1    CG331     9     0.000000     0.209200     3 ; BAM1, bile acid steroidal C-D ring, cacha, 02/08
    HGA1   CG3C51   CG3RC1   CG3C31     9     0.000000     0.815880     3 ; CARBOCY carbocyclic sugars
    HGA1   CG3C51   CG3RC1   CG3C52     9     0.000000     0.627600     3 ; RSRF, 4,6-dioxabicyclo[3.3.0]octan-8-ol; from CARBOCY; xxwy
    HGA1   CG3C51   CG3RC1   CG3RC1     9     0.000000     0.627600     3 ; CARBOCY carbocyclic sugars
    HGA1   CG3C51   CG3RC1   OG3C31     9     0.000000     1.506240     3 ; EQG, from cpoa, yxu, RNA
    HGA1   CG3C51   CG3RC1     HGA1     9     0.000000     0.627600     3 ; CARBOCY carbocyclic sugars
  CG3C51   CG3C51   NG2R51   CG2R51     9     0.000000     0.836800     4 ; NA, glycosyl linkage
  CG3C51   CG3C51   NG2R51   CG2R53     9   180.000000     0.000000     3 ; NA, glycosyl linkage
  CG3C51   CG3C51   NG2R51   CG2RC0     9     0.000000     0.000000     3 ; NA, glycosyl linkage
  CG3C52   CG3C51   NG2R51   CG2R51     9     0.000000     0.836800     4 ; NA, glycosyl linkage
  CG3C52   CG3C51   NG2R51   CG2R53     9   180.000000     0.000000     3 ; NA, glycosyl linkage
  CG3C52   CG3C51   NG2R51   CG2RC0     9     0.000000     0.000000     3 ; NA, glycosyl linkage
  CG3RC1   CG3C51   NG2R51   CG2R53     9   180.000000     2.092000     1 ; CARBOCY carbocyclic sugars
  CG3RC1   CG3C51   NG2R51   CG2RC0     9   180.000000     4.602400     1 ; CARBOCY carbocyclic sugars
  OG3C51   CG3C51   NG2R51   CG2R51     9   180.000000     2.510400     1 ; NA, glycosyl linkage 0.5 2 -70 removed by kevo
  OG3C51   CG3C51   NG2R51   CG2R51     9     0.000000     0.836800     3 ; NA, glycosyl linkage 0.5 2 -70 removed by kevo
  OG3C51   CG3C51   NG2R51   CG2R53     9     0.000000     4.602400     1 ; NA, glycosyl linkage
  OG3C51   CG3C51   NG2R51   CG2RC0     9   180.000000     4.602400     1 ; NA, glycosyl linkage
  OG3C51   CG3C51   NG2R51   CG2RC0     9     0.000000     0.836800     3 ; NA, glycosyl linkage
    HGA1   CG3C51   NG2R51   CG2R51     9   180.000000     1.046000     2 ; NA, glycosyl linkage 0.25 2 180 to compensate for removal of OG3C51 CG3C51 NG2R51 CG2R51 0.5 2 -70
    HGA1   CG3C51   NG2R51   CG2R53     9   180.000000     1.046000     2 ; NA, glycosyl linkage 0.25 2 180 to compensate for removal of OG3C51 CG3C51 NG2R51 CG2R51 0.5 2 -70
    HGA1   CG3C51   NG2R51   CG2R53     9     0.000000     0.815880     3 ; NA, glycosyl linkage
    HGA1   CG3C51   NG2R51   CG2RC0     9   180.000000     1.046000     2 ; NA, glycosyl linkage 0.25 2 180 to compensate for removal of OG3C51 CG3C51 NG2R51 CG2R51 0.5 2 -70
  CG3C51   CG3C51   NG2R61   CG2R62     9   180.000000     0.000000     3 ; NA, glycosyl linkage
  CG3C51   CG3C51   NG2R61   CG2R63     9     0.000000     4.184000     3 ; NA, glycosyl linkage
  CG3C52   CG3C51   NG2R61   CG2R62     9   180.000000     0.000000     3 ; NA, glycosyl linkage
  CG3C52   CG3C51   NG2R61   CG2R63     9     0.000000     4.184000     3 ; NA, glycosyl linkage
  CG3RC1   CG3C51   NG2R61   CG2R62     9     0.000000     1.673600     4 ; CARBOCY carbocyclic sugars
  CG3RC1   CG3C51   NG2R61   CG2R63     9     0.000000     4.184000     3 ; CARBOCY carbocyclic sugars
  OG3C51   CG3C51   NG2R61   CG2R62     9     0.000000     4.184000     1 ; NA, glycosyl linkage
  OG3C51   CG3C51   NG2R61   CG2R63     9     0.000000     0.000000     3 ; NA, glycosyl linkage
    HGA1   CG3C51   NG2R61   CG2R62     9     0.000000     0.815880     3 ; NA, glycosyl linkage
    HGA1   CG3C51   NG2R61   CG2R63     9     0.000000     0.815880     3 ; NA, glycosyl linkage
   CG2O1   CG3C51    NG2S0    CG2O1     9     0.000000     3.347200     3 ; PROT AcProNH2, ProNH2, AcProNHCH3 RLD 4/23/93
   CG2O1   CG3C51    NG2S0   CG3C52     9     0.000000     0.418400     3 ; PROT AcProNH2, ProNH2, AcProNHCH3 RLD 4/23/93
   CG2O3   CG3C51    NG2S0    CG2O1     9     0.000000     3.347200     3 ; PROT AcProNH2, ProNH2, AcProNHCH3 RLD 4/23/93
   CG2O3   CG3C51    NG2S0   CG3C52     9     0.000000     0.418400     3 ; PROT AcProNH2, ProNH2, AcProNHCH3 RLD 4/23/93
  CG2R51   CG3C51    NG2S0    CG2O1     9     0.000000     0.021757     3 ; 8LJ, by ac_aa
  CG2R51   CG3C51    NG2S0   CG3C52     9     0.000000     7.313214     3 ; 8LJ, by ac_aa
  CG3C52   CG3C51    NG2S0    CG2O1     9     0.000000     3.347200     3 ; PROT AcProNH2, ProNH2, AcProNHCH3 RLD 4/23/93
  CG3C52   CG3C51    NG2S0   CG3C52     9     0.000000     0.418400     3 ; PROT AcProNH2, ProNH2, AcProNHCH3 RLD 4/23/93
    HGA1   CG3C51    NG2S0    CG2O1     9     0.000000     3.347200     3 ; PROT AcProNH2, ProNH2, AcProNHCH3 RLD 4/23/93
    HGA1   CG3C51    NG2S0   CG3C52     9     0.000000     0.418400     3 ; PROT AcProNH2, ProNH2, AcProNHCH3 RLD 4/23/93
  CG2R53   CG3C51    NG2S1    CG2O1     9     0.000000     3.491966     3 ; SUI, by ac_aa
  CG2R53   CG3C51    NG2S1     HGP1     9     0.000000     3.671042     1 ; SUI, by ac_aa
  CG3C52   CG3C51    NG2S1    CG2O1     9     0.000000     6.837493     3 ; SUI, by ac_aa
  CG3C52   CG3C51    NG2S1     HGP1     9     0.000000     2.577344     1 ; SUI, by ac_aa
    HGA1   CG3C51    NG2S1    CG2O1     9   180.000000     8.529921     3 ; SUI, by ac_aa
    HGA1   CG3C51    NG2S1     HGP1     9     0.000000     1.140140     3 ; SUI, by ac_aa
  CG3C51   CG3C51    NG2S3      PG1     9   180.000000     6.276000     1 ; Questionable THNP parameters ignored
  CG3C51   CG3C51    NG2S3      PG1     9   180.000000     2.719600     2 ; Questionable THNP parameters ignored
  CG3C51   CG3C51    NG2S3      PG1     9     0.000000     4.184000     3 ; Questionable THNP parameters ignored
  CG3C51   CG3C51    NG2S3     HGP1     9     0.000000     1.255200     1 ; NABAKB TPHC phosphoramidates
  CG3C52   CG3C51    NG2S3      PG1     9   180.000000     6.276000     1 ; Questionable TPHC parameters ignored
  CG3C52   CG3C51    NG2S3      PG1     9   180.000000     2.719600     2 ; Questionable TPHC parameters ignored
  CG3C52   CG3C51    NG2S3      PG1     9     0.000000     4.184000     3 ; Questionable TPHC parameters ignored
  CG3C52   CG3C51    NG2S3     HGP1     9     0.000000     1.255200     1 ; NABAKB TPHC phosphoramidates
    HGA1   CG3C51    NG2S3      PG1     9     0.000000     0.627600     3 ; NABAKB TPHC phosphoramidates
    HGA1   CG3C51    NG2S3     HGP1     9     0.000000     0.041840     3 ; NABAKB TPHC phosphoramidates
  CG3C51   CG3C51    NG301   CG2D1O     9     0.000000     0.000000     3 ; NADH, NDPH; Kenno: reverted to uncommented parameter from par_all27_na.prm
  CG3C51   CG3C51    NG301   CG2D2O     9     0.000000     0.000000     3 ; NADH, NDPH; Kenno: reverted to uncommented parameter from par_all27_na.prm
  OG3C51   CG3C51    NG301   CG2D1O     9     0.000000     0.000000     3 ; NADH, NDPH; Kenno: reverted to "for NADPH" from par_all27_na.prm
  OG3C51   CG3C51    NG301   CG2D2O     9     0.000000     0.000000     3 ; NADH, NDPH; Kenno: reverted to "for NADPH" from par_all27_na.prm
    HGA1   CG3C51    NG301   CG2D1O     9     0.000000     0.815880     3 ; NADH, NDPH; Kenno: reverted to uncommented parameter from par_all27_na.prm
    HGA1   CG3C51    NG301   CG2D2O     9     0.000000     0.815880     3 ; NADH, NDPH; Kenno: reverted to uncommented parameter from par_all27_na.prm
  CG2R51   CG3C51    NG311    CG321     9   180.000000     8.368000     1 ; 7GNM, yxu, RNA
  CG2R51   CG3C51    NG311    CG321     9     0.000000     2.928800     3 ; 7GNM, yxu, RNA
  CG2R51   CG3C51    NG311   HGPAM1     9     0.000000     0.836800     2 ; 7GNM, yxu, RNA
  CG3C51   CG3C51    NG311    CG321     9   180.000000     8.368000     1 ; 7GNM, from cena, yxu, RNA
  CG3C51   CG3C51    NG311    CG321     9     0.000000     2.928800     3 ; 7GNM, from cena, yxu, RNA
  CG3C51   CG3C51    NG311   HGPAM1     9     0.000000     0.836800     2 ; 7GNM, from cena, yxu, RNA
  CG3C52   CG3C51    NG311    CG321     9   180.000000     8.368000     1 ; cena, yxu, RNA
  CG3C52   CG3C51    NG311    CG321     9     0.000000     2.928800     3 ; cena, yxu, RNA
  CG3C52   CG3C51    NG311    CG331     9   180.000000     8.368000     1 ; cona, yxu, RNA
  CG3C52   CG3C51    NG311    CG331     9     0.000000     2.928800     3 ; cona, yxu, RNA
  CG3C52   CG3C51    NG311   HGPAM1     9     0.000000     0.836800     2 ; cena, yxu, RNA
  CG3RC1   CG3C51    NG311    CG321     9     0.000000     0.000000     3 ; 7GNM, from cona, yxu, RNA
  CG3RC1   CG3C51    NG311    CG331     9   180.000000     2.092000     1 ; cona, yxu, RNA
  CG3RC1   CG3C51    NG311    CG331     9     0.000000     2.928800     3 ; cona, yxu, RNA
  CG3RC1   CG3C51    NG311   HGPAM1     9     0.000000     0.836800     2 ; 7GNM, yxu, RNA
    HGA1   CG3C51    NG311    CG321     9     0.000000     0.815880     3 ; 7GNM, yxu, RNA
    HGA1   CG3C51    NG311    CG331     9     0.000000     0.815880     3 ; cona, yxu, RNA
    HGA1   CG3C51    NG311   HGPAM1     9     0.000000     0.041840     3 ; 7GNM, yxu, RNA
  CG3C51   CG3C51    NG321   HGPAM2     9   180.000000     1.255200     3 ; amines
  CG3C52   CG3C51    NG321   HGPAM2     9   180.000000     1.255200     3 ; amines
    HGA1   CG3C51    NG321   HGPAM2     9     0.000000     0.041840     3 ; amines
   CG2O1   CG3C51   NG3C51    CG321     9   180.000000     0.274052     3 ; PR4, by ac_aa
   CG2O1   CG3C51   NG3C51    CG331     9   180.000000     0.274052     3 ; from CG2O1 CG3C51 NG3C51 CG321, sm136
   CG2O1   CG3C51   NG3C51   CG3C52     9   180.000000     1.565653     3 ; PR4, by ac_aa
  CG2R51   CG3C51   NG3C51   OG3C51     9   180.000000     8.495612     3 ; 143, by ac_aa
  CG2R51   CG3C51   NG3C51     HGP1     9   180.000000     7.405680     1 ; from CG2R51 CG3C52 NG3C51 HGP1, PENALTY= 4 143
  CG2R51   CG3C51   NG3C51     HGP1     9     0.000000     2.928800     3 ; from CG2R51 CG3C52 NG3C51 HGP1, PENALTY= 4 143
  CG3C52   CG3C51   NG3C51    CG321     9     0.000000     5.833333     3 ; PR4, by ac_aa
  CG3C52   CG3C51   NG3C51    CG331     9     0.000000     5.833333     3 ; from CG3C52 CG3C51 NG3C51 CG321, sm136
  CG3C52   CG3C51   NG3C51   CG3C52     9     0.000000     0.753120     3 ; from CG3C52 CG3C52 NG3C51 CG3C52, PENALTY= 4 PR4
  CG3C52   CG3C51   NG3C51   OG3C51     9     0.000000     4.613278     3 ; 5CS, by ac_aa
  CG3C52   CG3C51   NG3C51     HGP1     9     0.000000     2.301200     1 ; from CG3C52 CG3C52 NG3C51 HGP1, penalty= 4 5CS
  CG3C52   CG3C51   NG3C51     HGP1     9     0.000000     3.556400     3 ; from CG3C52 CG3C52 NG3C51 HGP1, penalty= 4 5CS
   SG311   CG3C51   NG3C51   OG3C51     9     0.000000     8.521134     3 ; 143, by ac_aa
   SG311   CG3C51   NG3C51     HGP1     9   180.000000    20.034666     1 ; 143, by ac_aa
   SG311   CG3C51   NG3C51     HGP1     9   180.000000    10.144526     3 ; 143, by ac_aa
    HGA1   CG3C51   NG3C51    CG321     9   180.000000     1.088677     3 ; PR4, by ac_aa
    HGA1   CG3C51   NG3C51    CG331     9   180.000000     1.088677     3 ; from HGA1 CG3C51 NG3C51 CG321, sm136
    HGA1   CG3C51   NG3C51   CG3C52     9     0.000000     0.000000     3 ; from HGA2 CG3C52 NG3C51 CG3C52, PENALTY= 4 PR4
    HGA1   CG3C51   NG3C51   OG3C51     9     0.000000     0.123428     3 ; 143, by ac_aa
    HGA1   CG3C51   NG3C51     HGP1     9     0.000000     0.000000     3 ; from HGA2 CG3C52 NG3C51 HGP1, penalty= 4 143 5CS
  CG3C52   CG3C51    OG301    CG311     9   180.000000     0.836800     1 ; pepr, yxu, RNA
  CG3C52   CG3C51    OG301    CG311     9     0.000000     1.255200     3 ; pepr, yxu, RNA
  CG3C52   CG3C51    OG301    CG331     9   180.000000     0.418400     1 ; THF2, THF-2'OMe c-C2'-OM-cm, from Nucl. Acids, ed
  CG3C52   CG3C51    OG301    CG331     9   180.000000     6.903600     2 ; THF2, THF-2'OMe c-C2'-OM-cm, from Nucl. Acids, ed
  CG3C52   CG3C51    OG301    CG331     9     0.000000     1.882800     3 ; THF2, THF-2'OMe c-C2'-OM-cm, from Nucl. Acids, ed
  CG3C52   CG3C51    OG301   CG3C51     9   180.000000     1.255200     1 ; rbrb, yxu, RNA
  CG3C52   CG3C51    OG301   CG3C51     9   180.000000     3.347200     2 ; rbrb, yxu, RNA
  OG3C51   CG3C51    OG301   CG3C51     9     0.000000     2.510400     2 ; rbrb, yxu, RNA
  OG3C51   CG3C51    OG301   CG3C51     9     0.000000     0.836800     3 ; rbrb, yxu, RNA
    HGA1   CG3C51    OG301    CG311     9     0.000000     2.092000     1 ; pepr, yxu, RNA
    HGA1   CG3C51    OG301    CG311     9   180.000000     2.510400     3 ; pepr, yxu, RNA
    HGA1   CG3C51    OG301    CG331     9     0.000000     2.510400     1 ; THF2, THF-2'OMe h-C2'-OM-cm, from Nucl. Acids, ed
    HGA1   CG3C51    OG301    CG331     9   180.000000     7.531200     2 ; THF2, THF-2'OMe h-C2'-OM-cm, from Nucl. Acids, ed
    HGA1   CG3C51    OG301    CG331     9     0.000000     2.008320     3 ; THF2, THF-2'OMe h-C2'-OM-cm, from Nucl. Acids, ed
    HGA1   CG3C51    OG301   CG3C51     9     0.000000     1.255200     1 ; rbrb, yxu, RNA
    HGA1   CG3C51    OG301   CG3C51     9   180.000000     3.347200     2 ; rbrb, yxu, RNA
  CG3C51   CG3C51    OG303      PG1     9   180.000000    10.460000     1 ; reverted to NA, sugar by kevo
  CG3C51   CG3C51    OG303      PG2     9   180.000000    10.460000     1 ; reverted to NA, sugar by kevo
  CG3C52   CG3C51    OG303      PG1     9   180.000000    10.460000     1 ; NA, sugar ! verified by kevo
  CG3C52   CG3C51    OG303      PG2     9   180.000000    10.460000     1 ; NA, sugar ! verified by kevo
  CG3RC1   CG3C51    OG303      PG1     9   180.000000    10.041600     1 ; CARBOCY carbocyclic sugars
  CG3RC1   CG3C51    OG303      PG1     9   180.000000     1.673600     2 ; CARBOCY carbocyclic sugars
  CG3RC1   CG3C51    OG303      PG1     9   180.000000     6.276000     3 ; CARBOCY carbocyclic sugars ! phase adjusted for CGenFF by kevo
    HGA1   CG3C51    OG303      PG1     9     0.000000     0.000000     3 ; NA, sugar ! verified by kevo
    HGA1   CG3C51    OG303      PG2     9     0.000000     0.000000     3 ; NA, sugar ! verified by kevo
  CG2R51   CG3C51    OG311     HGP1     9     0.000000     0.627600     1 ; QUG, yxu, RNA
  CG2R51   CG3C51    OG311     HGP1     9     0.000000     4.602400     2 ; QUG, yxu, RNA
  CG2R51   CG3C51    OG311     HGP1     9     0.000000     2.719600     3 ; QUG, yxu, RNA
  CG3C51   CG3C51    OG311     HGP1     9     0.000000     1.213360     1 ; Team sugar, CC3151 CC3152 OC311 HCP1
  CG3C51   CG3C51    OG311     HGP1     9     0.000000     2.594080     2 ; Team sugar, CC3151 CC3152 OC311 HCP1
  CG3C51   CG3C51    OG311     HGP1     9     0.000000     0.209200     3 ; Team sugar, CC3151 CC3152 OC311 HCP1
  CG3C52   CG3C51    OG311     HGP1     9     0.000000     1.213360     1 ; Team sugar, CC3251 CC3152 OC311 HCP1
  CG3C52   CG3C51    OG311     HGP1     9     0.000000     2.594080     2 ; Team sugar, CC3251 CC3152 OC311 HCP1
  CG3C52   CG3C51    OG311     HGP1     9     0.000000     0.209200     3 ; Team sugar, CC3251 CC3152 OC311 HCP1
  CG3C53   CG3C51    OG311     HGP1     9     0.000000     1.213360     1 ; Team sugar, CC3151 CC3152 OC311 HCP1
  CG3C53   CG3C51    OG311     HGP1     9     0.000000     2.594080     2 ; Team sugar, CC3151 CC3152 OC311 HCP1
  CG3C53   CG3C51    OG311     HGP1     9     0.000000     0.209200     3 ; Team sugar, CC3151 CC3152 OC311 HCP1
  CG3RC1   CG3C51    OG311     HGP1     9     0.000000     6.276000     1 ; CARBOCY carbocyclic sugars
  CG3RC1   CG3C51    OG311     HGP1     9   180.000000     1.255200     2 ; CARBOCY carbocyclic sugars
  CG3RC1   CG3C51    OG311     HGP1     9     0.000000     1.338880     3 ; CARBOCY carbocyclic sugars; Kenno: empirically corrected for HGA1 CG3C51 OG311 HGP1 from Team sugar ==> re-evaluate.
    HGA1   CG3C51    OG311     HGP1     9     0.000000     0.753120     3 ; Team sugar, HCP1 OC311 CC3151 HCA1
   CG314   CG3C51   OG3C51   NG3C51     9     0.000000     0.156900     3 ; 5CS, by ac_aa
   CG321   CG3C51   OG3C51   CG3C51     9     0.000000     1.255200     3 ; THF, 05/30/06, viv
   CG321   CG3C51   OG3C51   CG3C52     9     0.000000     1.255200     3 ; THF, 05/30/06, viv
   CG321   CG3C51   OG3C51   CG3C53     9     0.000000     3.347200     3 ; NA, sugar
   CG331   CG3C51   OG3C51   CG3C51     9     0.000000     1.255200     3 ; THF, 05/30/06, viv
   CG331   CG3C51   OG3C51   CG3C52     9     0.000000     1.255200     3 ; THF, 05/30/06, viv
  CG3C51   CG3C51   OG3C51   CG3C51     9     0.000000     2.092000     3 ; THF, 05/30/06, viv
  CG3C51   CG3C51   OG3C51   CG3C52     9     0.000000     2.092000     3 ; THF, 05/30/06, viv
  CG3C51   CG3C51   OG3C51   CG3C53     9     0.000000     0.000000     6 ; NA, sugar
  CG3C52   CG3C51   OG3C51   CG3C51     9     0.000000     2.092000     3 ; THF, 05/30/06, viv
  CG3C52   CG3C51   OG3C51   CG3C52     9     0.000000     2.092000     3 ; THF, 05/30/06, viv
  CG3C52   CG3C51   OG3C51   NG3C51     9     0.000000     0.149787     3 ; 5CS, by ac_aa
  NG2R51   CG3C51   OG3C51   CG3C51     9     0.000000     0.000000     3 ; NA, sugar
  NG2R51   CG3C51   OG3C51   CG3C52     9     0.000000     0.000000     3 ; NA, glycosyl linkage
  NG2R61   CG3C51   OG3C51   CG3C51     9     0.000000     0.000000     3 ; NA, glycosyl linkage
  NG2R61   CG3C51   OG3C51   CG3C52     9     0.000000     0.000000     3 ; NA, glycosyl linkage
   NG301   CG3C51   OG3C51   CG3C51     9     0.000000     0.000000     3 ; NADH, NDPH; Kenno: reverted to uncommented parameter from par_all27_na.prm
   OG301   CG3C51   OG3C51   CG3C51     9     0.000000    13.388800     2 ; rbrb, yxu, RNA
   OG301   CG3C51   OG3C51   CG3C51     9     0.000000     7.949600     3 ; rbrb, yxu, RNA
   OG301   CG3C51   OG3C51   CG3C51     9   180.000000     4.184000     4 ; rbrb, yxu, RNA
   OG301   CG3C51   OG3C51   CG3C52     9     0.000000    13.388800     2 ; rbrb, yxu, RNA
   OG301   CG3C51   OG3C51   CG3C52     9     0.000000     7.949600     3 ; rbrb, yxu, RNA
   OG301   CG3C51   OG3C51   CG3C52     9   180.000000     4.184000     4 ; rbrb, yxu, RNA
   SG311   CG3C51   OG3C51   CG3C51     9     0.000000     1.632597     3 ; FZN, by ac_aa
    HGA1   CG3C51   OG3C51   CG3C51     9     0.000000     1.255200     3 ; THF, 05/30/06, viv
    HGA1   CG3C51   OG3C51   CG3C52     9     0.000000     1.255200     3 ; THF, 05/30/06, viv
    HGA1   CG3C51   OG3C51   CG3C53     9     0.000000     0.815880     3 ; NA, sugar
    HGA1   CG3C51   OG3C51   NG3C51     9     0.000000     1.192440     3 ; 5CS, by ac_aa
  CG2R51   CG3C51    SG311    CG321     9   180.000000     4.140905     1 ; 143, by ac_aa
  CG2R51   CG3C51    SG311    CG321     9     0.000000     1.644730     3 ; 143, by ac_aa
  CG2R53   CG3C51    SG311    CG321     9   180.000000     2.004554     1 ; 6V1, by ac_aa
  CG2R53   CG3C51    SG311    CG321     9     0.000000     1.559795     3 ; 6V1, by ac_aa
  CG3C51   CG3C51    SG311   CG2D1O     9   180.000000     2.358939     1 ; FZN, by ac_aa
  CG3C51   CG3C51    SG311   CG2D1O     9     0.000000     1.459379     3 ; FZN, by ac_aa
  CG3C51   CG3C51    SG311   CG2D2O     9   180.000000     2.358939     1 ; FZN, by ac_aa
  CG3C51   CG3C51    SG311   CG2D2O     9     0.000000     1.459379     3 ; FZN, by ac_aa
  CG3C52   CG3C51    SG311    CG321     9     0.000000     0.725924     1 ; 6V1, by ac_aa
  CG3C52   CG3C51    SG311    CG321     9     0.000000     1.269844     3 ; 6V1, by ac_aa
  NG3C51   CG3C51    SG311    CG321     9   180.000000     5.066824     1 ; 143, by ac_aa
  NG3C51   CG3C51    SG311    CG321     9     0.000000     6.901090     2 ; 143, by ac_aa
  NG3C51   CG3C51    SG311    CG321     9   180.000000     3.673134     3 ; 143, by ac_aa
  OG3C51   CG3C51    SG311   CG2D1O     9     0.000000     0.930103     1 ; FZN, by ac_aa
  OG3C51   CG3C51    SG311   CG2D1O     9     0.000000     3.952206     3 ; FZN, by ac_aa
  OG3C51   CG3C51    SG311   CG2D2O     9     0.000000     0.930103     1 ; FZN, by ac_aa
  OG3C51   CG3C51    SG311   CG2D2O     9     0.000000     3.952206     3 ; FZN, by ac_aa
    HGA1   CG3C51    SG311   CG2D1O     9   180.000000     2.589059     3 ; FZN, by ac_aa
    HGA1   CG3C51    SG311   CG2D2O     9   180.000000     2.589059     3 ; FZN, by ac_aa
    HGA1   CG3C51    SG311    CG321     9     0.000000     2.518768     3 ; 6V1, by ac_aa
  CG2R51   CG3C52   CG3C52   CG3C51     9   180.000000     1.422560     3 ; cena, from CG2R53 CG3C52 CG3C52 CG3C52, yxu, RNA
  CG2R51   CG3C52   CG3C52   CG3C52     9   180.000000    15.480800     3 ; CYPE, cyclopentene, abar & rima
  CG2R51   CG3C52   CG3C52   CG3C52     9     0.000000     9.414000     4 ; CYPE, cyclopentene, abar & rima
  CG2R51   CG3C52   CG3C52   CG3C52     9   180.000000     0.962320     6 ; CYPE, cyclopentene, abar & rima
  CG2R51   CG3C52   CG3C52   CG3C53     9   180.000000     1.422560     3 ; cpea, from CG2R53 CG3C52 CG3C52 CG3C52, yxu, RNA
  CG2R51   CG3C52   CG3C52   NG3C51     9     0.000000     7.112800     3 ; 2PRL, 2-pyrroline, kevo
  CG2R51   CG3C52   CG3C52   OG3C51     9   180.000000     1.046000     3 ; 2DHF, 2,3-dihydrofuran, kevo
  CG2R51   CG3C52   CG3C52     HGA2     9     0.000000     0.585760     3 ; 2PRL, 2-pyrroline, kevo
  CG2R52   CG3C52   CG3C52   NG3C51     9     0.000000     0.000000     3 ; 0 2PRZ, 2-pyrazoline, kevo
  CG2R52   CG3C52   CG3C52     HGA2     9     0.000000     4.184000     3 ; 2PRZ, 2-pyrazoline, kevo
  CG2R53   CG3C52   CG3C52   CG3C52     9   180.000000     1.422560     3 ; 2PDO, 2-pyrrolidinone, kevo
  CG2R53   CG3C52   CG3C52     HGA2     9     0.000000     0.000000     3 ; 2PDO, 2-pyrrolidinone, kevo
  CG2RC0   CG3C52   CG3C52   NG3C51     9     0.000000    10.376320     3 ; INDI, indoline, kevo
  CG2RC0   CG3C52   CG3C52     HGA2     9     0.000000     0.000000     3 ; INDI, indoline, kevo
  CG3C50   CG3C52   CG3C52   CG3C52     9   180.000000     1.715440     3 ; from CG3C51 CG3C52 CG3C52 CG3C52, PENALTY= 0.8 PXU
  CG3C50   CG3C52   CG3C52     HGA2     9     0.000000     0.794960     3 ; from CG3C51 CG3C52 CG3C52 HGA2, PENALTY= 0.8 PXU
  CG3C51   CG3C52   CG3C52   CG3C51     9   180.000000     1.715440     3 ; cpen, cyclopentane, viv 10/4/05
  CG3C51   CG3C52   CG3C52   CG3C52     9   180.000000     1.715440     3 ; cpen, cyclopentane, viv 10/4/05
  CG3C51   CG3C52   CG3C52   CG3RC1     9     0.000000     0.627600     3 ; CARBOCY carbocyclic sugars
  CG3C51   CG3C52   CG3C52   NG3C51     9     0.000000     2.886960     3 ; 3POMP, 3-phenoxymethylpyrrolidine; from PRLD etc; kevo
  CG3C51   CG3C52   CG3C52   OG3C51     9     0.000000     0.000000     3 ; THF, 05/30/06, viv
  CG3C51   CG3C52   CG3C52     HGA2     9     0.000000     0.794960     3 ; alkane, 4/98, yin and mackerell, thf, viv
  CG3C52   CG3C52   CG3C52   CG3C52     9   180.000000     1.715440     3 ; cpen, cyclopentane, viv 10/4/05
  CG3C52   CG3C52   CG3C52   CG3RC1     9     0.000000     0.627600     3 ; CARBOCY carbocyclic sugars
  CG3C52   CG3C52   CG3C52   NG2R53     9     0.000000     8.911920     3 ; 2PDO, 2-pyrrolidinone, kevo
  CG3C52   CG3C52   CG3C52    NG2S0     9     0.000000     0.585760     3 ; PROT AcProNH2, ProNH2, AcProNHCH3 RLD 4/23/93
  CG3C52   CG3C52   CG3C52   NG3C51     9     0.000000     2.886960     3 ; PRLD, pyrrolidine fit_dihedral run 31, kevo
  CG3C52   CG3C52   CG3C52   OG3C51     9     0.000000     0.000000     3 ; THF, 05/30/06, viv
  CG3C52   CG3C52   CG3C52     HGA2     9     0.000000     0.794960     3 ; alkane, 4/98, yin and mackerell, thf, viv
  CG3C53   CG3C52   CG3C52   CG3C54     9     0.000000     0.669440     3 ; PROT AcProNH2, ProNH2, AcProNHCH3 RLD 4/23/93
  CG3C53   CG3C52   CG3C52   CG3RC1     9     0.000000     1.673600     6 ; cpoa, from CG3C51 CG3C51 CG3C51 CG3C53, yxu, RNA
  CG3C53   CG3C52   CG3C52     HGA2     9     0.000000     0.669440     3 ; PROT AcProNH2, ProNH2, AcProNHCH3 RLD 4/23/93
  CG3C54   CG3C52   CG3C52   CG3C54     9   180.000000     1.548080     3 ; 0.8 3 180 ! 0.15 3 0 PRLP, pyrrolidine.H+, kevo
  CG3C54   CG3C52   CG3C52   CG3C54     9   180.000000     0.125520     6 ; 0.31 6 0  ! 0.10 6 0 PRLP, pyrrolidine.H+, kevo
  CG3C54   CG3C52   CG3C52   NG3C51     9     0.000000     0.167360     3 ; PRZP, Pyrazolidine.H+, fit_dihedral run 14, kevo
  CG3C54   CG3C52   CG3C52     HGA2     9     0.000000     0.669440     3 ; PROT AcProNH2, ProNH2, AcProNHCH3 RLD 4/23/93
  CG3RC1   CG3C52   CG3C52   CG3RC1     9   180.000000     0.878640     3 ; NORB, Norbornane, kevo
  CG3RC1   CG3C52   CG3C52   OG3C51     9     0.000000     0.000000     3 ; RSRF, 4,6-dioxabicyclo[3.3.0]octan-8-ol; from THF; xxwy
  CG3RC1   CG3C52   CG3C52     HGA2     9     0.000000     0.815880     3 ; LIPID alkanes
  NG2R50   CG3C52   CG3C52   NG3C51     9     0.000000     4.184000     3 ; 0 2IMI, 2-imidazoline ! 1a,1,NCCN+, kevo
  NG2R50   CG3C52   CG3C52     HGA2     9     0.000000     1.255200     3 ; 2IMI, 2-imidazoline, kevo
  NG2R53   CG3C52   CG3C52     HGA2     9   180.000000     0.000000     3 ; 2PDO, 2-pyrrolidinone, kevo
   NG2S0   CG3C52   CG3C52     HGA2     9     0.000000     0.585760     3 ; PROT AcProNH2, ProNH2, AcProNHCH3 RLD 4/23/93
  NG3C51   CG3C52   CG3C52     HGA2     9     0.000000     0.000000     3 ; 2PRL, 2-pyrroline; 2IMI, 2-imidazoline, kevo
  OG3C51   CG3C52   CG3C52   OG3C51     9     0.000000     1.087840     3 ; DIOL, 1,3-Dioxolane fit_dihedral, erh
  OG3C51   CG3C52   CG3C52     HGA2     9     0.000000     0.794960     3 ; alkane, 4/98, yin and mackerell, thf viv
    HGA2   CG3C52   CG3C52     HGA2     9     0.000000     0.794960     3 ; alkane, 4/98, yin and mackerell, thf, viv
  CG3C51   CG3C52   CG3C53   CG2R51     9   180.000000     1.422560     3 ; cpea, yxu, RNA
  CG3C51   CG3C52   CG3C53    NG3P3     9     0.000000     0.585760     3 ; cpea, yxu, RNA
  CG3C51   CG3C52   CG3C53     HGA1     9     0.000000     0.585760     3 ; cpea, from CG3C52 CG3C52 CG3C53 HGA1, yxu, RNA
  CG3C52   CG3C52   CG3C53    CG2O1     9     0.000000     0.585760     3 ; PROT AcProNH2, ProNH2, AcProNHCH3 RLD 4/23/93
  CG3C52   CG3C52   CG3C53    CG2O3     9     0.000000     0.585760     3 ; PROT AcProNH2, ProNH2, AcProNHCH3 RLD 4/23/93
  CG3C52   CG3C52   CG3C53   CG2R51     9   180.000000     1.422560     3 ; cpea, from CG2R53 CG3C52 CG3C52 CG3C52, yxu, RNA
  CG3C52   CG3C52   CG3C53   CG3RC1     9     0.000000     0.627600     3 ; cpoa, from CG3RC1 CG3C51 CG3C52 CG3C52, yxu, RNA
  CG3C52   CG3C52   CG3C53    NG3P2     9     0.000000     0.585760     3 ; PROT AcProNH2, ProNH2, AcProNHCH3 RLD 4/23/93
  CG3C52   CG3C52   CG3C53    NG3P3     9     0.000000     0.585760     3 ; cpoa, from CG3C52 CG3C52 CG3C53 NG3P2, yxu, RNA
  CG3C52   CG3C52   CG3C53     HGA1     9     0.000000     0.585760     3 ; PROT AcProNH2, ProNH2, AcProNHCH3 RLD 4/23/93
    HGA2   CG3C52   CG3C53    CG2O1     9     0.000000     0.585760     3 ; PROT AcProNH2, ProNH2, AcProNHCH3 RLD 4/23/93
    HGA2   CG3C52   CG3C53    CG2O3     9     0.000000     0.585760     3 ; PROT AcProNH2, ProNH2, AcProNHCH3 RLD 4/23/93
    HGA2   CG3C52   CG3C53   CG2R51     9     0.000000     0.585760     3 ; cpea, from from CG2R51 CG3C52 CG3C52 HGA2, yxu, RNA
    HGA2   CG3C52   CG3C53   CG3RC1     9     0.000000     0.627600     3 ; cpoa, from CG3RC1 CG3C51 CG3C52 HGA2, yxu, RNA
    HGA2   CG3C52   CG3C53    NG3P2     9     0.000000     0.585760     3 ; PROT AcProNH2, ProNH2, AcProNHCH3 RLD 4/23/93
    HGA2   CG3C52   CG3C53    NG3P3     9     0.000000     0.585760     3 ; cpea, from from HGA2 CG3C52 CG3C53 NG3P2, yxu, RNA
    HGA2   CG3C52   CG3C53     HGA1     9     0.000000     0.585760     3 ; PROT AcProNH2, ProNH2, AcProNHCH3 RLD 4/23/93
  CG2R51   CG3C52   CG3C54    NG3P2     9   180.000000     2.510400     3 ; 0.5 0.4 2PRP, 2-pyrroline.H+, kevo
  CG2R51   CG3C52   CG3C54     HGA2     9     0.000000     0.585760     3 ; 2PRL, 2-pyrroline, kevo
  CG3C52   CG3C52   CG3C54    NG3P2     9     0.000000     0.585760     3 ; PROT AcProNH2, ProNH2, AcProNHCH3 RLD 4/23/93
  CG3C52   CG3C52   CG3C54     HGA2     9     0.000000     0.585760     3 ; PROT AcProNH2, ProNH2, AcProNHCH3 RLD 4/23/93
  NG3C51   CG3C52   CG3C54    NG3P2     9     0.000000     2.050160     3 ; IMDP, imidazolidine fit_dihedral, erh
  NG3C51   CG3C52   CG3C54     HGA2     9   180.000000     1.548080     3 ; IMDP, imidazolidine fit_dihedral, erh
    HGA2   CG3C52   CG3C54    NG3P2     9     0.000000     0.585760     3 ; PROT AcProNH2, ProNH2, AcProNHCH3 RLD 4/23/93
    HGA2   CG3C52   CG3C54     HGA2     9     0.000000     0.585760     3 ; PROT AcProNH2, ProNH2, AcProNHCH3 RLD 4/23/93
  CG3C51   CG3C52   CG3RC1   CG3C31     9     0.000000    16.736000     3 ; CARBOCY carbocyclic sugars
  CG3C51   CG3C52   CG3RC1   CG3RC1     9     0.000000     7.322000     3 ; CARBOCY carbocyclic sugars
  CG3C51   CG3C52   CG3RC1     HGA1     9     0.000000     0.627600     3 ; CARBOCY carbocyclic sugars
  CG3C52   CG3C52   CG3RC1    CG311     9     0.000000     0.418400     3 ; CA, Cholic Acid, cacha, 02/08
  CG3C52   CG3C52   CG3RC1    CG311     9     0.000000     2.092000     4 ; CA, Cholic Acid, cacha, 02/08
  CG3C52   CG3C52   CG3RC1    CG321     9     0.000000     0.836800     3 ; BAM1, bile acid steroidal C-D ring, cacha, 02/08
  CG3C52   CG3C52   CG3RC1   CG3C31     9   180.000000     9.204800     2 ; CARBOCY carbocyclic sugars
  CG3C52   CG3C52   CG3RC1   CG3C31     9     0.000000    16.736000     3 ; CARBOCY carbocyclic sugars
  CG3C52   CG3C52   CG3RC1   CG3C31     9   180.000000     2.301200     6 ; CARBOCY carbocyclic sugars
  CG3C52   CG3C52   CG3RC1   CG3C51     9     0.000000     0.000000     3 ; RSRF, 4,6-dioxabicyclo[3.3.0]octan-8-ol; from NORB; xxwy
  CG3C52   CG3C52   CG3RC1   CG3C52     9     0.000000     0.000000     3 ; NORB, Norbornane, kevo
  CG3C52   CG3C52   CG3RC1   CG3RC1     9     0.000000     0.627600     3 ; CARBOCY carbocyclic sugars
  CG3C52   CG3C52   CG3RC1   NG2R51     9     0.000000     0.627600     3 ; CARBOCY carbocyclic sugars
  CG3C52   CG3C52   CG3RC1   NG2R61     9     0.000000     0.627600     3 ; CARBOCY carbocyclic sugars
  CG3C52   CG3C52   CG3RC1   OG3C31     9     0.000000     2.510400     3 ; cpoa, yxu, RNA
  CG3C52   CG3C52   CG3RC1   OG3C31     9     0.000000     2.092000     4 ; cpoa, yxu, RNA
  CG3C52   CG3C52   CG3RC1     HGA1     9     0.000000     0.627600     3 ; CARBOCY carbocyclic sugars
  CG3RC1   CG3C52   CG3RC1   CG3C52     9     0.000000     0.000000     3 ; NORB, Norbornane, kevo
  CG3RC1   CG3C52   CG3RC1     HGA1     9     0.000000     0.000000     3 ; NORB, Norbornane, kevo
    HGA2   CG3C52   CG3RC1    CG311     9     0.000000     0.815880     3 ; CA, Cholic Acid, cacha, 02/08
    HGA2   CG3C52   CG3RC1    CG321     9     0.000000     0.815880     1 ; BAM1, bile acid steroidal C-D ring, cacha, 02/08
    HGA2   CG3C52   CG3RC1   CG3C31     9     0.000000     0.815880     3 ; CARBOCY carbocyclic sugars
    HGA2   CG3C52   CG3RC1   CG3C51     9     0.000000     0.000000     3 ; RSRF, 4,6-dioxabicyclo[3.3.0]octan-8-ol; from NORB; xxwy
    HGA2   CG3C52   CG3RC1   CG3C52     9     0.000000     0.000000     3 ; NORB, Norbornane, kevo
    HGA2   CG3C52   CG3RC1   CG3RC1     9     0.000000     0.627600     3 ; CARBOCY carbocyclic sugars
    HGA2   CG3C52   CG3RC1   NG2R51     9     0.000000     0.627600     3 ; CARBOCY carbocyclic sugars
    HGA2   CG3C52   CG3RC1   NG2R61     9     0.000000     0.627600     3 ; CARBOCY carbocyclic sugars
    HGA2   CG3C52   CG3RC1   OG3C31     9     0.000000     1.506240     3 ; cpoa, yxu, RNA
    HGA2   CG3C52   CG3RC1     HGA1     9     0.000000     0.627600     3 ; CARBOCY carbocyclic sugars
  CG2R51   CG3C52   NG2R50   CG2R52     9   180.000000     8.368000     2 ; 2HPR, 2H-pyrrole !???, kevo
  CG3C52   CG3C52   NG2R50   CG2R53     9   180.000000     7.949600     3 ; 2.0 2IMI, 2-imidazoline -1a, kevo
    HGA2   CG3C52   NG2R50   CG2R52     9     0.000000     0.000000     3 ; x 2HPR, 2H-pyrrole !x, kevo
    HGA2   CG3C52   NG2R50   CG2R53     9     0.000000     2.510400     3 ; 2IMI, 2-imidazoline, kevo
  CG3C52   CG3C52   NG2R53   CG2R53     9   180.000000     9.665040     3 ; 2PDO, 2-pyrrolidinone, kevo
  CG3C52   CG3C52   NG2R53     HGP1     9     0.000000     3.179840     3 ; 2PDO, 2-pyrrolidinone, kevo
    HGA2   CG3C52   NG2R53   CG2R53     9     0.000000     0.000000     3 ; 2PDO, 2-pyrrolidinone, kevo
    HGA2   CG3C52   NG2R53     HGP1     9   180.000000     0.000000     3 ; = 2PDO, 2-pyrrolidinone, kevo
  CG2R51   CG3C52    NG2S0    CG2O1     9     0.000000     0.031798     3 ; 8LJ, by ac_aa
  CG2R51   CG3C52    NG2S0   CG3C51     9     0.000000     0.418400     3 ; 8LJ, by ac_aa
  CG3C51   CG3C52    NG2S0    CG2O1     9   180.000000     1.110015     3 ; 4FB, by ac_aa
  CG3C51   CG3C52    NG2S0   CG3C51     9     0.000000     0.418400     3 ; from CG3C52 CG3C52 NG2S0 CG3C51, PENALTY= 0.4 MP8 4FB HZP HYP FP9
  CG3C52   CG3C52    NG2S0    CG2O1     9   180.000000     0.000000     3 ; PROT AcProNH2, ProNH2, AcProNHCH3 RLD 4/23/93
  CG3C52   CG3C52    NG2S0   CG3C50     9     0.000000     0.418400     3 ; from CG3C52 CG3C52 NG2S0 CG3C51, PENALTY= 0.8 PXU
  CG3C52   CG3C52    NG2S0   CG3C51     9     0.000000     0.418400     3 ; PROT AcProNH2, ProNH2, AcProNHCH3 RLD 4/23/93
   SG311   CG3C52    NG2S0    CG2O1     9   180.000000     0.047279     3 ; PRS, by ac_aa
   SG311   CG3C52    NG2S0   CG3C51     9     0.000000     0.132633     3 ; PRS, by ac_aa
    HGA2   CG3C52    NG2S0    CG2O1     9   180.000000     0.000000     3 ; PROT AcProNH2, ProNH2, AcProNHCH3 RLD 4/23/93
    HGA2   CG3C52    NG2S0   CG3C50     9     0.000000     0.418400     3 ; from HGA2 CG3C52 NG2S0 CG3C51, PENALTY= 0.8 PXU
    HGA2   CG3C52    NG2S0   CG3C51     9     0.000000     0.418400     3 ; PROT AcProNH2, ProNH2, AcProNHCH3 RLD 4/23/93
  CG2R51   CG3C52   NG3C51   CG3C52     9   180.000000     8.577200     3 ; 2.05 2.02 2.05 1.4 1.38 3PRL, 3-pyrroline, kevo
  CG2R51   CG3C52   NG3C51    OG312     9   180.000000    15.152774     3 ; from CG2R51 CG3C50 NG3C51 OG312, R1A
  CG2R51   CG3C52   NG3C51   OG3C51     9   180.000000    33.799189     3 ; 143, by ac_aa
  CG2R51   CG3C52   NG3C51     HGP1     9   180.000000     7.405680     1 ; 1.77 1.60 1.0 *new* 3PRL, 3-pyrroline, kevo
  CG2R51   CG3C52   NG3C51     HGP1     9     0.000000     2.928800     3 ; 0.70 0.75 0.5 1.10 3PRL, 3-pyrroline, kevo
  CG3C51   CG3C52   NG3C51   CG3C52     9     0.000000     0.753120     3 ; 3POMP, 3-phenoxymethylpyrrolidine; from PRLD etc; kevo
  CG3C51   CG3C52   NG3C51     HGP1     9     0.000000     2.301200     1 ; 3POMP, 3-phenoxymethylpyrrolidine; from PRLD etc; kevo
  CG3C51   CG3C52   NG3C51     HGP1     9     0.000000     3.556400     3 ; 3POMP, 3-phenoxymethylpyrrolidine; from PRLD etc; kevo
  CG3C52   CG3C52   NG3C51   CG2R51     9   180.000000     0.209200     3 ; 2PRL, 2-pyrroline, kevo
  CG3C52   CG3C52   NG3C51   CG2R53     9   180.000000     7.949600     3 ; 1.6 ! 2.5 1.5 2IMI, 2-imidazoline -1a, kevo
  CG3C52   CG3C52   NG3C51   CG2RC0     9   180.000000     6.066800     3 ; INDI, indoline, kevo
  CG3C52   CG3C52   NG3C51    CG321     9     0.000000     4.265170     3 ; PR4, by ac_aa
  CG3C52   CG3C52   NG3C51    CG331     9     0.000000     4.265170     3 ; from CG3C52 CG3C52 NG3C51 CG321, sm136
  CG3C52   CG3C52   NG3C51   CG3C51     9     0.000000     0.753120     3 ; from CG3C52 CG3C52 NG3C51 CG3C52, PENALTY= 0.4 PR4
  CG3C52   CG3C52   NG3C51   CG3C52     9     0.000000     0.753120     3 ; PRLD, pyrrolidine fit_dihedral run 31, kevo
  CG3C52   CG3C52   NG3C51   NG2R50     9   180.000000    11.715200     3 ; 2.9 2PRZ, 2-pyrazoline, kevo
  CG3C52   CG3C52   NG3C51    NG3P2     9     0.000000     3.765600     3 ; PRZP, Pyrazolidine.H+, fit_dihedral run 14, kevo
  CG3C52   CG3C52   NG3C51     HGP1     9     0.000000     2.301200     1 ; PRLD, pyrrolidine fit_dihedral run 31, kevo
  CG3C52   CG3C52   NG3C51     HGP1     9     0.000000     3.556400     3 ; PRLD, pyrrolidine fit_dihedral run 31, kevo
  CG3C54   CG3C52   NG3C51   CG3C54     9   180.000000     6.610720     3 ; IMDP, imidazolidine fit_dihedral, erh
  CG3C54   CG3C52   NG3C51     HGP1     9     0.000000     6.903600     1 ; IMDP, imidazolidine fit_dihedral, erh
  CG3C54   CG3C52   NG3C51     HGP1     9     0.000000     3.096160     3 ; IMDP, imidazolidine fit_dihedral, erh
    HGA2   CG3C52   NG3C51   CG2R51     9     0.000000     0.000000     3 ; 2PRL, 2-pyrroline, kevo
    HGA2   CG3C52   NG3C51   CG2R53     9     0.000000     0.418400     3 ; 2IMI, 2-imidazoline, kevo
    HGA2   CG3C52   NG3C51   CG2RC0     9     0.000000     0.000000     3 ; INDI, indoline, kevo
    HGA2   CG3C52   NG3C51    CG321     9     0.000000     0.402919     3 ; PR4, by ac_aa
    HGA2   CG3C52   NG3C51    CG331     9     0.000000     0.402919     3 ; from HGA2 CG3C52 NG3C51 CG321, sm136
    HGA2   CG3C52   NG3C51   CG3C51     9     0.000000     0.000000     3 ; from HGA2 CG3C52 NG3C51 CG3C52, PENALTY= 0.4 PR4
    HGA2   CG3C52   NG3C51   CG3C52     9     0.000000     0.000000     3 ; 3PRL, 3-pyrroline, kevo
    HGA2   CG3C52   NG3C51   CG3C54     9     0.000000     2.008320     3 ; IMDP, imidazolidine fit_dihedral, erh
    HGA2   CG3C52   NG3C51   NG2R50     9     0.000000     1.255200     3 ; 2PRZ, 2-pyrazoline, kevo
    HGA2   CG3C52   NG3C51    NG3P2     9     0.000000     0.000000     3 ; PRZP, Pyrazolidine.H+, kevo
    HGA2   CG3C52   NG3C51    OG312     9     0.000000    15.002150     3 ; R1A, by ac_aa1
    HGA2   CG3C52   NG3C51   OG3C51     9     0.000000     8.885979     3 ; 143, by ac_aa
    HGA2   CG3C52   NG3C51     HGP1     9     0.000000     0.000000     3 ; 2PRL, 2-pyrroline, kevo
  CG2R51   CG3C52   OG3C51   CG2R53     9   180.000000     1.297040     1 ; B2FO, 5H-furan-2-one, ctsai
  CG2R51   CG3C52   OG3C51   CG2R53     9     0.000000     1.171520     6 ; B2FO, 5H-furan-2-one, ctsai
  CG2RC0   CG3C52   OG3C51    BG201     9   180.000000    10.444519     2 ; BICB,BINB Boronic acid, sr
  CG3C51   CG3C52   OG3C51   CG3C51     9     0.000000     2.092000     3 ; THF, 05/30/06, viv
  CG3C51   CG3C52   OG3C51   CG3C52     9     0.000000     2.092000     3 ; THF, 05/30/06, viv
  CG3C51   CG3C52   OG3C51   CG3RC1     9     0.000000     2.092000     3 ; RSRF, 4,6-dioxabicyclo[3.3.0]octan-8-ol; from THF; xxwy
  CG3C52   CG3C52   OG3C51   CG2R51     9     0.000000     3.054320     3 ; 2DHF, 2,3-dihydrofuran, kevo
  CG3C52   CG3C52   OG3C51   CG2R53     9     0.000000     9.288480     2 ; GBL, Gamma-butyrolactone, ctsai
  CG3C52   CG3C52   OG3C51   CG3C51     9     0.000000     2.092000     3 ; THF, 05/30/06, viv
  CG3C52   CG3C52   OG3C51   CG3C52     9     0.000000     2.092000     3 ; THF, 05/30/06, viv
  CG3C52   CG3C52   OG3C51   CG3RC1     9     0.000000     2.092000     3 ; RSRF, 4,6-dioxabicyclo[3.3.0]octan-8-ol; from THF; xxwy
  OG3C51   CG3C52   OG3C51   CG2RC0     9     0.000000     2.092000     3 ; 0.3 ZDOL, 1,3-benzodioxole; from THF, tetrahydofuran; kevo
  OG3C51   CG3C52   OG3C51   CG3C52     9   180.000000     6.903600     3 ; DIOL, 1,3-Dioxolane fit_dihedral, erh
    HGA2   CG3C52   OG3C51   CG2R51     9     0.000000     0.000000     3 ; 2DHF, 2,3-dihydrofuran, kevo
    HGA2   CG3C52   OG3C51   CG2R53     9     0.000000     0.000000     3 ; GBL, from HGA2 CG3C52 OG3C51 CG2R51, ctsai
    HGA2   CG3C52   OG3C51   CG2RC0     9     0.000000     1.255200     3 ; ZDOL, 1,3-benzodioxole; from THF, tetrahydofuran; kevo
    HGA2   CG3C52   OG3C51   CG3C51     9     0.000000     1.255200     3 ; THF, 05/30/06, viv
    HGA2   CG3C52   OG3C51   CG3C52     9     0.000000     1.255200     3 ; THF, 05/30/06, viv
    HGA2   CG3C52   OG3C51   CG3RC1     9     0.000000     1.255200     3 ; RSRF, 4,6-dioxabicyclo[3.3.0]octan-8-ol; from THF; xxwy
    HGA2   CG3C52   OG3C51    BG201     9   180.000000     1.463563     3 ; BICB,BINB Boronic acid, sr
  CG3C51   CG3C52    SG311   CG3C52     9   180.000000     0.718811     1 ; PRS, by ac_aa
  CG3C51   CG3C52    SG311   CG3C52     9     0.000000     1.548080     3 ; PRS, by ac_aa
   NG2S0   CG3C52    SG311   CG3C52     9   180.000000    14.782909     1 ; PRS, by ac_aa
   NG2S0   CG3C52    SG311   CG3C52     9     0.000000     2.704956     3 ; PRS, by ac_aa
    HGA2   CG3C52    SG311   CG3C52     9     0.000000     1.159386     3 ; PRS, by ac_aa
  CG3C51   CG3C53   CG3RC1   CG3RC1     9     0.000000     0.627600     3 ; EQG, from cpoa, yxu, RNA
  CG3C51   CG3C53   CG3RC1   OG3C31     9     0.000000     2.510400     3 ; EQG, from cpoa, yxu, RNA
  CG3C51   CG3C53   CG3RC1   OG3C31     9     0.000000     2.092000     4 ; EQG, from cpoa, yxu, RNA
  CG3C51   CG3C53   CG3RC1     HGA1     9     0.000000     0.627600     3 ; EQG, from cpoa, yxu, RNA
  CG3C52   CG3C53   CG3RC1   CG3RC1     9     0.000000     0.627600     3 ; cpoa, yxu, RNA
  CG3C52   CG3C53   CG3RC1   OG3C31     9     0.000000     2.510400     3 ; cpoa, yxu, RNA
  CG3C52   CG3C53   CG3RC1   OG3C31     9     0.000000     2.092000     4 ; cpoa, yxu, RNA
  CG3C52   CG3C53   CG3RC1     HGA1     9     0.000000     0.627600     3 ; cpoa, yxu, RNA
   NG3P2   CG3C53   CG3RC1   CG3RC1     9     0.000000     3.765600     2 ; EQG, from cpoa, yxu, RNA
   NG3P2   CG3C53   CG3RC1   CG3RC1     9     0.000000     2.928800     3 ; EQG, from cpoa, yxu, RNA
   NG3P2   CG3C53   CG3RC1   OG3C31     9   180.000000     2.092000     4 ; EQG, from cpoa, yxu, RNA
   NG3P2   CG3C53   CG3RC1     HGA1     9     0.000000     1.046000     3 ; EQG, from cpoa, yxu, RNA
   NG3P3   CG3C53   CG3RC1   CG3RC1     9     0.000000     3.765600     2 ; cpoa, yxu, RNA
   NG3P3   CG3C53   CG3RC1   CG3RC1     9     0.000000     2.928800     3 ; cpoa, yxu, RNA
   NG3P3   CG3C53   CG3RC1   OG3C31     9   180.000000     2.092000     4 ; cpoa, yxu, RNA
   NG3P3   CG3C53   CG3RC1     HGA1     9     0.000000     1.046000     3 ; cpoa, yxu, RNA
    HGA1   CG3C53   CG3RC1   CG3RC1     9     0.000000     0.627600     3 ; EQG, yxu, RNA
    HGA1   CG3C53   CG3RC1   OG3C31     9     0.000000     1.924640     3 ; EQG, yxu, RNA
    HGA1   CG3C53   CG3RC1     HGA1     9     0.000000     0.627600     3 ; EQG, yxu, RNA
  CG3C51   CG3C53   NG2R61   CG2R62     9   180.000000     0.000000     3 ; NA, glycosyl linkage
  OG3C51   CG3C53   NG2R61   CG2R62     9     0.000000     4.184000     1 ; NA, glycosyl linkage
    HGA1   CG3C53   NG2R61   CG2R62     9     0.000000     0.815880     3 ; NA, glycosyl linkage
   CG2O1   CG3C53    NG3P2   CG3C54     9     0.000000     0.334720     3 ; PROT AcProNH2, ProNH2, AcProNHCH3 RLD 4/23/93
   CG2O1   CG3C53    NG3P2     HGP2     9     0.000000     0.334720     3 ; PROT AcProNH2, ProNH2, AcProNHCH3 RLD 4/23/93
   CG2O3   CG3C53    NG3P2   CG3C54     9     0.000000     0.334720     3 ; PROT AcProNH2, ProNH2, AcProNHCH3 RLD 4/23/93
   CG2O3   CG3C53    NG3P2     HGP2     9     0.000000     0.334720     3 ; PROT AcProNH2, ProNH2, AcProNHCH3 RLD 4/23/93
  CG2R51   CG3C53    NG3P2    CG324     9   180.000000     5.020800     1 ; QUG, yxu, RNA
  CG2R51   CG3C53    NG3P2    CG324     9     0.000000     2.719600     3 ; QUG, yxu, RNA
  CG2R51   CG3C53    NG3P2     HGP2     9     0.000000     0.418400     3 ; QUG, yxu, RNA
  CG3C51   CG3C53    NG3P2    CG324     9   180.000000     3.347200     1 ; QUG, from pnpa, yxu, RNA
  CG3C51   CG3C53    NG3P2    CG324     9     0.000000     0.334720     3 ; QUG, from pnpa, yxu, RNA
  CG3C51   CG3C53    NG3P2     HGP2     9     0.000000     0.334720     3 ; QUG, from CG3C52 CG3C53 NG3P2 HGP2, yxu, RNA
  CG3C52   CG3C53    NG3P2    CG324     9   180.000000     3.347200     1 ; pnpa, yxu, RNA
  CG3C52   CG3C53    NG3P2    CG324     9     0.000000     0.334720     3 ; pnpa, yxu, RNA
  CG3C52   CG3C53    NG3P2    CG334     9   180.000000     5.020800     1 ; ponm, from pnpa, yxu, RNA
  CG3C52   CG3C53    NG3P2    CG334     9     0.000000     1.046000     3 ; ponm, from pnpa, yxu, RNA
  CG3C52   CG3C53    NG3P2   CG3C54     9     0.000000     0.334720     3 ; PROT AcProNH2, ProNH2, AcProNHCH3 RLD 4/23/93
  CG3C52   CG3C53    NG3P2     HGP2     9     0.000000     0.334720     3 ; PROT AcProNH2, ProNH2, AcProNHCH3 RLD 4/23/93
  CG3RC1   CG3C53    NG3P2    CG324     9   180.000000     1.673600     1 ; EQG, from ponm, yxu, RNA
  CG3RC1   CG3C53    NG3P2    CG324     9     0.000000     1.046000     2 ; EQG, from ponm, yxu, RNA
  CG3RC1   CG3C53    NG3P2    CG324     9     0.000000     2.677760     3 ; EQG, from ponm, yxu, RNA
  CG3RC1   CG3C53    NG3P2    CG334     9   180.000000     1.673600     1 ; ponm, yxu, RNA
  CG3RC1   CG3C53    NG3P2    CG334     9     0.000000     1.046000     2 ; ponm, yxu, RNA
  CG3RC1   CG3C53    NG3P2    CG334     9     0.000000     2.677760     3 ; ponm, yxu, RNA
  CG3RC1   CG3C53    NG3P2     HGP2     9     0.000000     0.334720     3 ; EQG, yxu, RNA
    HGA1   CG3C53    NG3P2    CG324     9     0.000000     0.209200     3 ; QUG, yxu, RNA
    HGA1   CG3C53    NG3P2    CG334     9     0.000000     0.209200     3 ; ponm, yxu, RNA
    HGA1   CG3C53    NG3P2   CG3C54     9     0.000000     0.334720     3 ; PROT AcProNH2, ProNH2, AcProNHCH3 RLD 4/23/93
    HGA1   CG3C53    NG3P2     HGP2     9     0.000000     0.334720     3 ; PROT AcProNH2, ProNH2, AcProNHCH3 RLD 4/23/93
  CG2R51   CG3C53    NG3P3     HGP2     9     0.000000     1.255200     3 ; cpea, from CG2R51 CG3C54 NG3P2 HGP2, yxu, RNA
  CG3C52   CG3C53    NG3P3     HGP2     9     0.000000     0.334720     3 ; cpoa, from CG3C52 CG3C53 NG3P2 HGP2, yxu, RNA
  CG3RC1   CG3C53    NG3P3     HGP2     9     0.000000     0.334720     3 ; cpoa, from CG3C52 CG3C53 NG3P2 HGP2, yxu, RNA
    HGA1   CG3C53    NG3P3     HGP2     9     0.000000     0.334720     3 ; cpoa, from HGA1 CG3C53 NG3P2 HGP2, yxu, RNA
  CG3C51   CG3C53   OG3C51   CG3C51     9     0.000000     0.000000     6 ; NA, sugar
  NG2R61   CG3C53   OG3C51   CG3C51     9     0.000000     0.000000     3 ; NA, glycosyl linkage
    HGA1   CG3C53   OG3C51   CG3C51     9     0.000000     0.815880     3 ; NA, sugar
  NG2R52   CG3C54   CG3C54   NG2R52     9     0.000000     0.292880     3 ; 0 2IMP, 2-imidazoline.H+, kevo
  NG2R52   CG3C54   CG3C54     HGA2     9     0.000000     1.255200     3 ; 2IMP, 2-imidazoline.H+, kevo
    HGA2   CG3C54   CG3C54     HGA2     9     0.000000     0.585760     3 ; 2IMP, 2-imidazoline.H+ ! RE-OPTIMIZE !!!, kevo
  CG2R51   CG3C54   NG2R52   CG2R52     9   180.000000    11.715200     2 ; 2.7 2.3 2HPP, 2H-pyrrole.H+ 1a, kevo
  CG2R51   CG3C54   NG2R52     HGP2     9   180.000000    11.296800     2 ; 2HPP, 2H-pyrrole.H+, kevo
  CG3C54   CG3C54   NG2R52   CG2R53     9   180.000000     1.046000     3 ; 0.21 2IMP, 2-imidazoline.H+, kevo
  CG3C54   CG3C54   NG2R52     HGP2     9     0.000000     2.510400     3 ; 2IMP, 2-imidazoline.H+, kevo
    HGA2   CG3C54   NG2R52   CG2R52     9   180.000000     0.000000     3 ; 2HPP, 2H-pyrrole.H+, kevo
    HGA2   CG3C54   NG2R52   CG2R53     9   180.000000     0.000000     3 ; 2IMP, 2-imidazoline.H+, kevo
    HGA2   CG3C54   NG2R52     HGP2     9     0.000000     0.000000     3 ; 2IMP, 2-imidazoline.H+; 2HPP, 2H-pyrrole.H+, kevo
   NG3P2   CG3C54   NG3C51   CG3C52     9     0.000000     7.405680     3 ; IMDP, imidazolidine fit_dihedral, erh
   NG3P2   CG3C54   NG3C51     HGP1     9   180.000000     7.698560     1 ; IMDP, imidazolidine fit_dihedral, erh
   NG3P2   CG3C54   NG3C51     HGP1     9   180.000000     4.016640     3 ; IMDP, imidazolidine fit_dihedral, erh
    HGA2   CG3C54   NG3C51   CG3C52     9     0.000000     2.008320     3 ; IMDP, imidazolidine fit_dihedral, erh
    HGA2   CG3C54   NG3C51     HGP1     9     0.000000     0.000000     3 ; IMDP, imidazolidine, erh and kevo
  CG2R51   CG3C54    NG3P2   CG3C54     9   180.000000     7.865920     3 ; 1.9 1.5 3PRP, 3-pyrroline.H+, kevo
  CG2R51   CG3C54    NG3P2     HGP2     9     0.000000     1.255200     3 ; 3PRP, 3-pyrroline.H+, kevo
  CG3C52   CG3C54    NG3P2   CG2R51     9   180.000000     2.928800     3 ; 0.7 2PRP, 2-pyrroline.H+, kevo
  CG3C52   CG3C54    NG3P2   CG3C53     9     0.000000     0.334720     3 ; PROT AcProNH2, ProNH2, AcProNHCH3 RLD 4/23/93
  CG3C52   CG3C54    NG3P2   CG3C54     9     0.000000     0.418400     3 ; PRLP, pyrrolidine.H+, kevo
  CG3C52   CG3C54    NG3P2   NG3C51     9     0.000000     0.167360     3 ; PRZP, Pyrazolidine.H+, fit_dihedral run 14, kevo
  CG3C52   CG3C54    NG3P2     HGP2     9     0.000000     0.334720     3 ; PROT AcProNH2, ProNH2, AcProNHCH3 RLD 4/23/93
  NG3C51   CG3C54    NG3P2   CG3C54     9   180.000000    11.464160     3 ; IMDP, imidazolidine fit_dihedral, erh
  NG3C51   CG3C54    NG3P2     HGP2     9   180.000000     0.669440     3 ; IMDP, imidazolidine fit_dihedral, erh
    HGA2   CG3C54    NG3P2   CG2R51     9     0.000000     0.836800     3 ; 2PRP, 2-pyrroline.H+, kevo
    HGA2   CG3C54    NG3P2   CG3C53     9     0.000000     0.334720     3 ; PROT AcProNH2, ProNH2, AcProNHCH3 RLD 4/23/93
    HGA2   CG3C54    NG3P2   CG3C54     9     0.000000     0.418400     3 ; PRLP, pyrrolidine.H+, kevo
    HGA2   CG3C54    NG3P2   NG3C51     9     0.000000     0.418400     3 ; PRZP, Pyrazolidine.H+, kevo
    HGA2   CG3C54    NG3P2     HGP2     9     0.000000     0.334720     3 ; PROT AcProNH2, ProNH2, AcProNHCH3 RLD 4/23/93
   CG311   CG3RC1   CG3RC1    CG311     9     0.000000     0.627600     3 ; CARBOCY carbocyclic sugars
   CG311   CG3RC1   CG3RC1    CG321     9     0.000000    16.736000     3 ; CARBOCY carbocyclic sugars
   CG311   CG3RC1   CG3RC1    CG331     9     0.000000     0.661072     3 ; CA, Cholic Acid, cacha, 02/08
   CG311   CG3RC1   CG3RC1   CG3C51     9     0.000000     0.627600     3 ; CA, Cholic Acid, cacha, 02/08
   CG311   CG3RC1   CG3RC1   CG3C52     9     0.000000     0.627600     3 ; CA, Cholic Acid, cacha, 02/08 corrected by kevo
   CG311   CG3RC1   CG3RC1     HGA1     9     0.000000     0.627600     3 ; CARBOCY carbocyclic sugars
   CG321   CG3RC1   CG3RC1    CG321     9     0.000000     0.627600     3 ; CARBOCY carbocyclic sugars
   CG321   CG3RC1   CG3RC1    CG331     9     0.000000     0.209200     3 ; BAM1, bile acid steroidal C-D ring, cacha, 02/08
   CG321   CG3RC1   CG3RC1   CG3C31     9     0.000000     0.627600     3 ; CARBOCY carbocyclic sugars
   CG321   CG3RC1   CG3RC1   CG3C51     9     0.000000     0.209200     3 ; BAM1, bile acid steroidal C-D ring, cacha, 02/08
   CG321   CG3RC1   CG3RC1   CG3C52     9     0.000000     0.627600     3 ; CARBOCY carbocyclic sugars
   CG321   CG3RC1   CG3RC1     HGA1     9     0.000000     0.627600     3 ; CARBOCY carbocyclic sugars
   CG331   CG3RC1   CG3RC1   CG3C52     9     0.000000     0.209200     3 ; BAM1, bile acid steroidal C-D ring, cacha, 02/08
   CG331   CG3RC1   CG3RC1     HGA1     9     0.000000     0.209200     3 ; BAM1, bile acid steroidal C-D ring, cacha, 02/08
  CG3C31   CG3RC1   CG3RC1   CG3C51     9     0.000000    16.736000     3 ; CARBOCY carbocyclic sugars
  CG3C31   CG3RC1   CG3RC1   CG3C52     9     0.000000     0.627600     3 ; CARBOCY carbocyclic sugars
  CG3C31   CG3RC1   CG3RC1   NG2R51     9     0.000000     0.627600     3 ; CARBOCY carbocyclic sugars
  CG3C31   CG3RC1   CG3RC1   NG2R61     9     0.000000     0.627600     3 ; CARBOCY carbocyclic sugars
  CG3C31   CG3RC1   CG3RC1     HGA1     9     0.000000     0.627600     3 ; CARBOCY carbocyclic sugars
  CG3C51   CG3RC1   CG3RC1   CG3C51     9     0.000000    16.736000     3 ; 7GNM, from CG3C51 CG3RC1 CG3RC1 CG3C52, yxu, RNA
  CG3C51   CG3RC1   CG3RC1   CG3C52     9     0.000000    16.736000     3 ; CARBOCY carbocyclic sugars
  CG3C51   CG3RC1   CG3RC1   CG3C53     9     0.000000     2.510400     3 ; EQG, from cpoa, yxu, RNA
  CG3C51   CG3RC1   CG3RC1   OG3C31     9     0.000000     2.092000     4 ; EQG, from cpoa, yxu, RNA
  CG3C51   CG3RC1   CG3RC1   OG3C51     9     0.000000     5.020800     3 ; RSRF, 4,6-dioxabicyclo[3.3.0]octan-8-ol; xxwy
  CG3C51   CG3RC1   CG3RC1     HGA1     9     0.000000     0.627600     3 ; CARBOCY carbocyclic sugars
  CG3C52   CG3RC1   CG3RC1   CG3C52     9     0.000000     0.627600     3 ; CARBOCY carbocyclic sugars
  CG3C52   CG3RC1   CG3RC1   CG3C53     9     0.000000     2.510400     3 ; cpoa, yxu, RNA
  CG3C52   CG3RC1   CG3RC1   NG2R51     9     0.000000     0.627600     3 ; CARBOCY carbocyclic sugars
  CG3C52   CG3RC1   CG3RC1   NG2R61     9     0.000000     0.627600     3 ; CARBOCY carbocyclic sugars
  CG3C52   CG3RC1   CG3RC1   OG3C31     9     0.000000     2.092000     4 ; cpoa, yxu, RNA
  CG3C52   CG3RC1   CG3RC1   OG3C51     9     0.000000     5.020800     3 ; RSRF, 4,6-dioxabicyclo[3.3.0]octan-8-ol; xxwy
  CG3C52   CG3RC1   CG3RC1     HGA1     9     0.000000     0.627600     3 ; CARBOCY carbocyclic sugars
  CG3C53   CG3RC1   CG3RC1   OG3C31     9     0.000000     2.092000     4 ; EQG, yxu, RNA
  CG3C53   CG3RC1   CG3RC1     HGA1     9     0.000000     1.255200     3 ; EQG, yxu, RNA
  NG2R51   CG3RC1   CG3RC1     HGA1     9     0.000000     0.627600     3 ; CARBOCY carbocyclic sugars
  NG2R53   CG3RC1   CG3RC1   NG2R53     9     0.000000     0.627600     3 ; CBHH, glycoluril, (CG3C52 CG3RC1 CG3RC1 NG2R51), jing
  NG2R53   CG3RC1   CG3RC1     HGA1     9     0.000000     0.627600     3 ; CBHH, glycoluril, (NG2R51 CG3RC1 CG3RC1 HGA1), jing
  NG2R61   CG3RC1   CG3RC1     HGA1     9     0.000000     0.627600     3 ; CARBOCY carbocyclic sugars
  OG3C31   CG3RC1   CG3RC1     HGA1     9     0.000000     1.255200     3 ; EQG, yxu, RNA
  OG3C51   CG3RC1   CG3RC1     HGA1     9     0.000000     0.627600     3 ; RSRF, 4,6-dioxabicyclo[3.3.0]octan-8-ol; from CARBOCY; xxwy
    HGA1   CG3RC1   CG3RC1     HGA1     9     0.000000     0.627600     3 ; CARBOCY carbocyclic sugars
  CG3C31   CG3RC1   NG2R51   CG2R53     9   180.000000     4.602400     1 ; CARBOCY carbocyclic sugars
  CG3C31   CG3RC1   NG2R51   CG2RC0     9     0.000000     1.255200     3 ; CARBOCY carbocyclic sugars
  CG3C52   CG3RC1   NG2R51   CG2R53     9     0.000000     0.418400     3 ; CARBOCY carbocyclic sugars
  CG3C52   CG3RC1   NG2R51   CG2RC0     9     0.000000     1.255200     3 ; CARBOCY carbocyclic sugars
  CG3RC1   CG3RC1   NG2R51   CG2R53     9   180.000000     4.602400     1 ; CARBOCY carbocyclic sugars
  CG3RC1   CG3RC1   NG2R51   CG2RC0     9   180.000000     4.602400     1 ; CARBOCY carbocyclic sugars
  CG3RC1   CG3RC1   NG2R53   CG2R53     9   180.000000     4.602400     1 ; CBHH, glycoluril, (CG3RC1 CG3RC1 NG2R51 CG2R53), jing
  CG3RC1   CG3RC1   NG2R53     HGP1     9     0.000000     3.179840     3 ; CBHH, glycoluril, (CG3C52 CG3C52 NG2R53 HGP1), jing
  NG2R53   CG3RC1   NG2R53   CG2R53     9   180.000000     9.665040     3 ; CBHH, glycoluril, (CG3C52 CG3C52 NG2R53 CG2R53), jing
  NG2R53   CG3RC1   NG2R53     HGP1     9     0.000000     3.179840     3 ; CBHH, glycoluril, (CG3C52 CG3C52 NG2R53 HGP1), jing
    HGA1   CG3RC1   NG2R53   CG2R53     9     0.000000     0.000000     3 ; CBHH, glycoluril, (HGA2   CG3C52 NG2R53 CG2R53), jing
    HGA1   CG3RC1   NG2R53     HGP1     9   180.000000     0.000000     3 ; CBHH, glycoluril, (HGA2   CG3C52 NG2R53 HGP1), jing
  CG3C31   CG3RC1   NG2R61   CG2R62     9   180.000000     0.000000     3 ; CARBOCY carbocyclic sugars
  CG3C31   CG3RC1   NG2R61   CG2R63     9     0.000000     1.255200     3 ; CARBOCY carbocyclic sugars
  CG3C52   CG3RC1   NG2R61   CG2R62     9   180.000000     0.000000     3 ; CARBOCY carbocyclic sugars
  CG3C52   CG3RC1   NG2R61   CG2R63     9     0.000000     1.255200     3 ; CARBOCY carbocyclic sugars
  CG3RC1   CG3RC1   NG2R61   CG2R62     9   180.000000     0.000000     3 ; CARBOCY carbocyclic sugars
  CG3RC1   CG3RC1   NG2R61   CG2R63     9   180.000000     0.836800     3 ; CARBOCY carbocyclic sugars
  CG3C51   CG3RC1   OG3C31   CG3RC1     9   180.000000    10.250800     3 ; EQG, from cpoa, yxu, RNA
  CG3C51   CG3RC1   OG3C31   CG3RC1     9     0.000000     4.184000     4 ; EQG, from cpoa, yxu, RNA
  CG3C52   CG3RC1   OG3C31   CG3RC1     9   180.000000    10.250800     3 ; cpoa, yxu, RNA
  CG3C52   CG3RC1   OG3C31   CG3RC1     9     0.000000     4.184000     4 ; cpoa, yxu, RNA
  CG3C53   CG3RC1   OG3C31   CG3RC1     9     0.000000    10.250800     3 ; EQG, yxu, RNA
  CG3C53   CG3RC1   OG3C31   CG3RC1     9     0.000000     4.184000     4 ; EQG, yxu, RNA
    HGA1   CG3RC1   OG3C31   CG3RC1     9   180.000000     5.020800     3 ; EQG, yxu, RNA
  CG3RC1   CG3RC1   OG3C51   CG3C52     9     0.000000     0.000000     3 ; RSRF, 4,6-dioxabicyclo[3.3.0]octan-8-ol; xxwy
  OG3C51   CG3RC1   OG3C51   CG3C52     9     0.000000     0.000000     3 ; RSRF, 4,6-dioxabicyclo[3.3.0]octan-8-ol; xxwy
    HGA1   CG3RC1   OG3C51   CG3C52     9     0.000000     1.255200     3 ; RSRF, 4,6-dioxabicyclo[3.3.0]octan-8-ol; from THF; xxwy
   CG321    NG1T1    NG1T1    NG1T1     9   180.000000     1.866064     2 ; AZDA, by ac_aa
  CG2R61    NG2D1    NG2D1   CG2R61     9   180.000000    63.596800     2 ; (E)-1,2-di-p-tolyldiazene (fdmab, trans), Klaja et al., 2020
  CG2R61    NG2D1    NG2D1   CG2R61     9     0.000000     2.092000     4 ; (E)-1,2-di-p-tolyldiazene (fdmab, trans), Klaja et al., 2020
   CG2D1    NG2D1    NG2S1    CG2O1     9   180.000000    14.225600     1 ; HDZ1, hydrazone model cmpd
   CG2D1    NG2D1    NG2S1    CG2O1     9   180.000000     5.439200     2 ; HDZ1, hydrazone model cmpd
   CG2D1    NG2D1    NG2S1     HGP1     9   180.000000    10.460000     2 ; HDZ1, hydrazone model cmpd
  CG2DC1    NG2D1    NG2S1    CG2O1     9   180.000000    14.225600     1 ; HDZ2, hydrazone model cmpd 2
  CG2DC1    NG2D1    NG2S1    CG2O1     9   180.000000     5.439200     2 ; HDZ2, hydrazone model cmpd 2
  CG2DC1    NG2D1    NG2S1     HGP1     9   180.000000    10.460000     2 ; HDZ2, hydrazone model cmpd 2
  CG2DC2    NG2D1    NG2S1    CG2O1     9   180.000000    14.225600     1 ; HDZ2, hydrazone model cmpd 2
  CG2DC2    NG2D1    NG2S1    CG2O1     9   180.000000     5.439200     2 ; HDZ2, hydrazone model cmpd 2
  CG2DC2    NG2D1    NG2S1     HGP1     9   180.000000    10.460000     2 ; HDZ2, hydrazone model cmpd 2
   CG2N1    NG2D1    OG301    CG321     9   180.000000     1.395364     1 ; GGB, by ac_aa
   CG2N1    NG2D1    OG301    CG321     9   180.000000     0.143093     2 ; GGB, by ac_aa
   OG2D1    NG2D1    SG311    CG321     9   180.000000     1.648496     1 ; SNC, by ac_aa
   OG2D1    NG2D1    SG311    CG321     9   180.000000    27.344532     2 ; SNC, by ac_aa
   OG2D1    NG2D1    SG311    CG321     9   180.000000     3.252223     3 ; SNC, by ac_aa
   OG2D1    NG2D1    SG311    CG321     9   180.000000     2.169404     4 ; SNC, by ac_aa
   OG2D1    NG2D1    SG311    CG321     9     0.000000     0.494549     6 ; SNC, by ac_aa
   CG2N1    NG2P1    OG301    CG321     9   180.000000     7.602328     1 ; GGBP, by ac_aa
   CG2N1    NG2P1    OG301    CG321     9     0.000000     4.133792     2 ; GGBP, by ac_aa
   CG2N1    NG2P1    OG301    CG321     9   180.000000     0.882824     3 ; GGBP, by ac_aa
    HGP2    NG2P1    OG301    CG321     9   180.000000     0.732200     6 ; GGBP, by ac_aa
  CG2R51   NG2R50   NG2R50   NG2R50     9   180.000000    58.576000     2 ; OXAD
  CG2R51   NG2R50   NG2R50   NG2R51     9   180.000000    58.576000     2 ; TRZ3, triazole123
  CG2R51   NG2R50   NG2R50   OG2R50     9   180.000000    58.576000     2 ; OXAD, oxadiazole123
  CG2R53   NG2R50   NG2R50   NG2R50     9   180.000000    64.852000     2 ; TEAZ , 1H-tetrazole, pchat
  CG2R53   NG2R50   NG2R50   NG2R51     9   180.000000    58.576000     2 ; from CG2R51 NG2R50 NG2R50 NG2R51, PENALTY= 2.5 TEZA
  NG2R50   NG2R50   NG2R50   NG2R51     9   180.000000    64.015200     2 ; TEAZ , 1H-tetrazole, pchat
  NG2R50   NG2R50   NG2R50     HGP1     9   180.000000    58.576000     2 ; HIS
  CG2R52   NG2R50   NG2R51   CG2R51     9   180.000000    50.208000     2 ; PYRZ, pyrazole
  CG2R52   NG2R50   NG2R51   CG2R61     9   180.000000     5.857600     2 ; D3R set1 scaffold 1, xxwy
  CG2R52   NG2R50   NG2R51   CG2R64     9   180.000000     0.836800     2 ; PIPA model for D3R, xxwy
  CG2R52   NG2R50   NG2R51   CG2RC0     9   180.000000    35.564000     2 ; INDA, 1H-indazole, kevo
  CG2R52   NG2R50   NG2R51    CG321     9   180.000000     5.857600     2 ; from CG2R52 NG2R50 NG2R51 CG331, PENALTY= 0.9 PYZ1
  CG2R52   NG2R50   NG2R51    CG331     9   180.000000     5.857600     2 ; INCA model for D3R, xxwy
  CG2R52   NG2R50   NG2R51   NG2R50     9   180.000000    39.748000     2 ; TRZ2, 2H-1,2,3-triazole, lf
  CG2R52   NG2R50   NG2R51     HGP1     9   180.000000     5.857600     2 ; PYRZ, pyrazole
  CG2R53   NG2R50   NG2R51   CG2R53     9   180.000000    41.840000     2 ; TRZ4, triazole124, xxwy
  CG2R53   NG2R50   NG2R51    CG321     9   180.000000     5.857600     2 ; from CG2R52 NG2R50 NG2R51 CG331, PENALTY= 1.9 TEZA TRZ4
  CG2R53   NG2R50   NG2R51    CG331     9   180.000000     5.857600     2 ; from CG2R52 NG2R50 NG2R51 CG331, penalty= 1 TEZA
  CG2R53   NG2R50   NG2R51   NG2R50     9   180.000000    39.748000     2 ; from CG2R52 NG2R50 NG2R51 NG2R50, PENALTY= 1 TEZA
  CG2R53   NG2R50   NG2R51     HGP1     9   180.000000     9.623200     2 ; TRZ4, triazole124, xxwy
  NG2R50   NG2R50   NG2R51   CG2R51     9   180.000000    35.564000     2 ; TRZ3, triazole123
  NG2R50   NG2R50   NG2R51   CG2R53     9   180.000000    35.564000     2 ; TEAZ , 1H-tetrazole, pchat
  NG2R50   NG2R50   NG2R51    CG321     9   180.000000    10.460000     2 ; ETRZ, 1-Ethyl-1,2,3-triazole, from NG2R50 NG2R50 NG2R51 HGP1, kevo
  NG2R50   NG2R50   NG2R51    CG331     9   180.000000    10.460000     2 ; from NG2R50 NG2R50 NG2R51 CG321, penalty= 0.9 TEZA
  NG2R50   NG2R50   NG2R51   NG2R50     9   180.000000    45.672126     2 ; TEZA, by ac_aa
  NG2R50   NG2R50   NG2R51     HGP1     9   180.000000    10.460000     2 ; TRZ3, triazole123
  CG2R52   NG2R50   NG3C51   CG3C52     9   180.000000     2.092000     2 ; 9 2PRZ, 2-pyrazoline, kevo
  CG2R52   NG2R50   NG3C51     HGP1     9     0.000000     1.046000     3 ; 0.7 1.3 2PRZ, 2-pyrazoline, kevo
  CG2R52   NG2R50   OG2R50   CG2R51     9   180.000000    50.208000     2 ; ISOX, isoxazole
  CG2R53   NG2R50   OG2R50   CG2R53     9   180.000000    37.656000     2 ; OXD4, oxadiazole124, xxwy
  NG2R50   NG2R50   OG2R50   CG2R51     9   180.000000    35.564000     2 ; OXAD, oxadiazole123
  CG2R52   NG2R50   SG2R50   CG2R51     9   180.000000    37.656000     2 ; ISOT, isothiazole
  CG2R51   NG2R51    OG301    OG311     9     0.000000     1.551009     1 ; TOX, by ac_aa
  CG2R51   NG2R51    OG301    OG311     9     0.000000     0.015062     2 ; TOX, by ac_aa
  CG2R51   NG2R51    OG301    OG311     9     0.000000     3.215404     3 ; TOX, by ac_aa
  CG2R51   NG2R51    OG301    OG311     9     0.000000     1.110434     4 ; TOX, by ac_aa
  CG2RC0   NG2R51    OG301    OG311     9     0.000000     0.001255     1 ; TOX, by ac_aa
  CG2RC0   NG2R51    OG301    OG311     9     0.000000    13.610552     2 ; TOX, by ac_aa
  CG2RC0   NG2R51    OG301    OG311     9     0.000000     6.333321     3 ; TOX, by ac_aa
  CG2RC0   NG2R51    OG301    OG311     9     0.000000     1.638036     4 ; TOX, by ac_aa
  CG2R51   NG2R51      PG2    OG2P1     9     0.000000     0.287441     3 ; NEP, by ac_aa
  CG2R51   NG2R51      PG2    OG2P1     9     0.000000     2.464794     4 ; NEP, by ac_aa
  CG2R53   NG2R51      PG2    OG2P1     9     0.000000     0.478231     3 ; NEP, by ac_aa
  CG2R53   NG2R51      PG2    OG2P1     9     0.000000     1.931753     4 ; NEP, by ac_aa
  CG2R51   NG2R57   NG2R57   CG2R51     9     0.000000     1.255200     2 ; 11BPO, 1,1-bipyrrole, lf
  CG2R61   NG2R62   NG2R62   CG2R61     9   180.000000     5.020800     2 ; PYRD, pyridazine
  CG2R61   NG2R62   NG2R62   CG2R64     9   180.000000     2.092000     2 ; TRIB, triazine124
   CG2O1    NG2S0    OG311     HGP1     9   180.000000     7.770525     1 ; FHO, by ac_aa
   CG2O1    NG2S0    OG311     HGP1     9   180.000000     1.534273     3 ; FHO, by ac_aa
   CG321    NG2S0    OG311     HGP1     9   180.000000     1.225494     3 ; FHO, by ac_aa
   CG2O1    NG2S1    OG311     HGP1     9     0.000000     8.773848     1 ; HGA, by ac_aa
   CG2O1    NG2S1    OG311     HGP1     9     0.000000     3.445524     2 ; HGA, by ac_aa
    HGP1    NG2S1    OG311     HGP1     9     0.000000     6.845024     1 ; HGA, by ac_aa
    HGP1    NG2S1    OG311     HGP1     9   180.000000     2.180701     2 ; HGA, by ac_aa
   CG331    NG2S3      PG0    OG2P1     9     0.000000     2.636338     3 ; SUN, by ac_aa
   CG331    NG2S3      PG0    OG303     9     0.000000     4.674365     2 ; SUN, by ac_aa
   CG331    NG2S3      PG0    OG303     9     0.000000     0.340996     3 ; SUN, by ac_aa
   CG321    NG2S3      PG1    OG2P1     9     0.000000     1.673600     3 ; from CG331 NG2S3 PG1 OG2P1, PENALTY= 0.9 APK GPL
   CG321    NG2S3      PG1    OG2P1     9     0.000000     2.092000     4 ; from CG331 NG2S3 PG1 OG2P1, PENALTY= 0.9 APK GPL
   CG321    NG2S3      PG1    OG303     9     0.000000     7.949600     2 ; from CG331 NG2S3 PG1 OG303, PENALTY= 0.9 APK GPL
   CG331    NG2S3      PG1    OG2P1     9     0.000000     1.673600     3 ; NABAKB phosphoramidates
   CG331    NG2S3      PG1    OG2P1     9     0.000000     2.092000     4 ; NABAKB phosphoramidates
   CG331    NG2S3      PG1    OG303     9     0.000000     7.949600     2 ; NABAKB phosphoramidates ! eliminated 0.8 2 120 for OG2P1 and compensated 1.5 -> 1.9 here
  CG3C51    NG2S3      PG1    OG2P1     9     0.000000     1.673600     3 ; NABAKB phosphoramidates
  CG3C51    NG2S3      PG1    OG2P1     9     0.000000     2.092000     4 ; NABAKB phosphoramidates
  CG3C51    NG2S3      PG1    OG303     9     0.000000     7.949600     2 ; NABAKB phosphoramidates ! eliminated 0.8 2 120 for OG2P1 and compensated 1.5 -> 1.9 here
    HGP1    NG2S3      PG1    OG2P1     9     0.000000     0.209200     3 ; NABAKB phosphoramidates
    HGP1    NG2S3      PG1    OG303     9     0.000000     0.209200     3 ; NABAKB phosphoramidates
   CG321    NG2S3    SG3O1    OG2P1     9     0.000000     2.309568     3 ; NESM, N-ethyl-sulfamate, my & kevo
   CG331    NG2S3    SG3O1    OG2P1     9     0.000000     2.246808     3 ; NMSM, N-methyl-sulfamate, my
    HGP1    NG2S3    SG3O1    OG2P1     9     0.000000     0.209200     3 ; NMSM, N-methyl-sulfamate; from HGP1 NG2S3 PG1 OG2P1; my
   CG321    NG301    SG3O2   CG2R51     9   180.000000     4.895280     1 ; TSPD model for D3R, xxwy
   CG321    NG301    SG3O2   CG2R51     9     0.000000     4.853440     2 ; TSPD model for D3R, xxwy
   CG321    NG301    SG3O2   CG2R51     9     0.000000     4.267680     3 ; TSPD model for D3R, xxwy
   CG321    NG301    SG3O2   CG2R61     9   180.000000     4.895280     1 ; D3R set1 scaffold 2, xxwy
   CG321    NG301    SG3O2   CG2R61     9     0.000000     4.853440     2 ; D3R set1 scaffold 2, xxwy
   CG321    NG301    SG3O2   CG2R61     9     0.000000     4.267680     3 ; D3R set1 scaffold 2, xxwy
   CG321    NG301    SG3O2    OG2P1     9     0.000000     0.836800     3 ; TSPD model for D3R, xxwy
  CG2R61    NG311    SG3O2   CG2R61     9   180.000000     5.020800     1 ; PBSM, N-phenylbenzenesulfonamide, xxwy
  CG2R61    NG311    SG3O2   CG2R61     9     0.000000     5.857600     2 ; PBSM, N-phenylbenzenesulfonamide, xxwy
  CG2R61    NG311    SG3O2    CG331     9     0.000000     9.204800     2 ; PMSM, N-phenylmethanesulfonamide, xxwy
  CG2R61    NG311    SG3O2    CG331     9     0.000000     0.836800     3 ; PMSM, N-phenylmethanesulfonamide, xxwy
  CG2R61    NG311    SG3O2    OG2P1     9     0.000000     0.836800     3 ; PMSM, N-phenylmethanesulfonamide; PBSM, N-phenylbenzenesulfonamide; xxwy
   CG321    NG311    SG3O2   CG2R61     9     0.000000     6.276000     2 ; OBTZ, sulfonamide heterocycle in drug HCTZ, xxwy
   CG321    NG311    SG3O2   CG2R61     9     0.000000     2.092000     3 ; OBTZ, sulfonamide heterocycle in drug HCTZ, xxwy
   CG321    NG311    SG3O2    CG321     9     0.000000     8.368000     2 ; EESM, N-ethylethanesulfonamide, xxwy
   CG321    NG311    SG3O2    CG321     9     0.000000     1.255200     3 ; EESM, N-ethylethanesulfonamide, xxwy
   CG321    NG311    SG3O2    CG331     9     0.000000     8.368000     2 ; AOBT, acyclic model introduced for OBTZ to optimize related dihedrals, xxwy
   CG321    NG311    SG3O2    CG331     9     0.000000     1.255200     3 ; AOBT, acyclic model introduced for OBTZ to optimize related dihedrals, xxwy
   CG321    NG311    SG3O2    NG311     9   180.000000     3.773968     1 ; MESI, N-methyl,N'-ethylsulfamide, rting
   CG321    NG311    SG3O2    NG311     9     0.000000     2.656840     2 ; MESI, N-methyl,N'-ethylsulfamide, rting
   CG321    NG311    SG3O2    NG311     9     0.000000     6.041696     3 ; MESI, N-methyl,N'-ethylsulfamide, rting
   CG321    NG311    SG3O2    NG311     9   180.000000     1.389088     4 ; MESI, N-methyl,N'-ethylsulfamide, rting
   CG321    NG311    SG3O2    OG2P1     9     0.000000     0.836800     3 ; EESM, N-ethylethanesulfonamide, xxwy
   CG331    NG311    SG3O2   CG2R61     9     0.000000     6.276000     2 ; MBSM, N-methylbenzenesulfonamide, xxwy
   CG331    NG311    SG3O2   CG2R61     9     0.000000     2.092000     3 ; MBSM, N-methylbenzenesulfonamide, xxwy
   CG331    NG311    SG3O2    CG331     9     0.000000     8.368000     2 ; MMSM, N-methylmethanesulfonamide, xxwy
   CG331    NG311    SG3O2    CG331     9     0.000000     0.836800     3 ; MMSM, N-methylmethanesulfonamide, xxwy
   CG331    NG311    SG3O2    NG311     9   180.000000     5.255104     1 ; MESI, N-methyl,N'-ethylsulfamide, rting
   CG331    NG311    SG3O2    NG311     9     0.000000     2.610816     2 ; MESI, N-methyl,N'-ethylsulfamide, rting
   CG331    NG311    SG3O2    NG311     9     0.000000     7.639984     3 ; MESI, N-methyl,N'-ethylsulfamide, rting
   CG331    NG311    SG3O2    NG311     9   180.000000     0.895376     4 ; MESI, N-methyl,N'-ethylsulfamide, rting
   CG331    NG311    SG3O2    NG311     9   180.000000     1.100392     6 ; MESI, N-methyl,N'-ethylsulfamide, rting
   CG331    NG311    SG3O2    OG2P1     9     0.000000     0.836800     3 ; MMSM, N-methylmethanesulfonamide; MBSM, N-methylbenzenesulfonamide; xxwy
    HGP1    NG311    SG3O2   CG2R61     9   180.000000     5.020800     1 ; MBSM, N-methylbenzenesulfonamide; PBSM, N-phenylbenzenesulfonamide; xxwy
    HGP1    NG311    SG3O2   CG2R61     9     0.000000     4.602400     2 ; MBSM, N-methylbenzenesulfonamide; PBSM, N-phenylbenzenesulfonamide; xxwy
    HGP1    NG311    SG3O2   CG2R61     9     0.000000     2.092000     3 ; MBSM, N-methylbenzenesulfonamide; PBSM, N-phenylbenzenesulfonamide; xxwy
    HGP1    NG311    SG3O2    CG321     9   180.000000     5.439200     1 ; EESM, N-ethylethanesulfonamide, xxwy
    HGP1    NG311    SG3O2    CG321     9     0.000000     5.020800     2 ; EESM, N-ethylethanesulfonamide, xxwy
    HGP1    NG311    SG3O2    CG321     9     0.000000     0.836800     3 ; EESM, N-ethylethanesulfonamide, xxwy
    HGP1    NG311    SG3O2    CG331     9   180.000000     4.184000     1 ; MMSM, N-methylmethanesulfonamide; PMSM, N-phenylmethanesulfonamide; xxwy
    HGP1    NG311    SG3O2    CG331     9     0.000000     4.602400     2 ; MMSM, N-methylmethanesulfonamide; PMSM, N-phenylmethanesulfonamide; xxwy
    HGP1    NG311    SG3O2    CG331     9     0.000000     0.836800     3 ; MMSM, N-methylmethanesulfonamide; PMSM, N-phenylmethanesulfonamide; xxwy
    HGP1    NG311    SG3O2    NG311     9   180.000000     2.405800     1 ; MESI, N-methyl,N'-ethylsulfamide, rting
    HGP1    NG311    SG3O2    NG311     9     0.000000     4.531272     2 ; MESI, N-methyl,N'-ethylsulfamide, rting
    HGP1    NG311    SG3O2    NG311     9   180.000000     4.012456     3 ; MESI, N-methyl,N'-ethylsulfamide, rting
    HGP1    NG311    SG3O2    NG311     9   180.000000     0.832616     4 ; MESI, N-methyl,N'-ethylsulfamide, rting
    HGP1    NG311    SG3O2    NG311     9     0.000000     0.995792     6 ; MESI, N-methyl,N'-ethylsulfamide, rting
    HGP1    NG311    SG3O2    OG2P1     9     0.000000     0.836800     3 ; MMSM, N-methylmethanesulfonamide and other sulfonamides, xxwy
    HGP1    NG321    OG301    CG321     9   180.000000     0.521745     3 ; CAN, by ac_aa
    HGP1    NG321    SG3O2   CG2R61     9   180.000000     6.276000     1 ; BSAM, benzenesulfonamide, xxwy
    HGP1    NG321    SG3O2   CG2R61     9     0.000000     5.020800     2 ; BSAM, benzenesulfonamide, xxwy
    HGP1    NG321    SG3O2   CG2R61     9     0.000000     0.418400     3 ; BSAM, benzenesulfonamide, xxwy
    HGP1    NG321    SG3O2    CG331     9   180.000000     3.765600     1 ; MSAM, methanesulfonamide, xxwy
    HGP1    NG321    SG3O2    CG331     9     0.000000     6.694400     2 ; MSAM, methanesulfonamide, xxwy
    HGP1    NG321    SG3O2    CG331     9     0.000000     0.418400     3 ; MSAM, methanesulfonamide, xxwy
    HGP1    NG321    SG3O2    OG2P1     9     0.000000     0.836800     3 ; MSAM, methanesulfonamide; BSAM, benzenesulfonamide; xxwy
    HGP1    NG321    SG3O2    OG303     9     0.000000     1.673600     3 ; MSMT, methyl sulfamate, PSMT, phenyl sulfamate, xxwy
  CG3C52   NG3C51    NG3P2   CG3C54     9     0.000000     4.267680     3 ; PRZP, Pyrazolidine.H+, fit_dihedral run 14, kevo
  CG3C52   NG3C51    NG3P2     HGP2     9     0.000000     0.334720     3 ; PRZP, Pyrazolidine.H+, kevo
    HGP1   NG3C51    NG3P2   CG3C54     9     0.000000    10.250800     1 ; PRZP, Pyrazolidine.H+, fit_dihedral run 14, kevo
    HGP1   NG3C51    NG3P2   CG3C54     9     0.000000     0.083680     3 ; PRZP, Pyrazolidine.H+, fit_dihedral run 14, kevo
    HGP1   NG3C51    NG3P2     HGP2     9     0.000000     0.000000     3 ; PRZP, Pyrazolidine.H+, kevo
  CG3C51   NG3C51   OG3C51   CG2R51     9     0.000000     3.607863     3 ; 143, by ac_aa
  CG3C51   NG3C51   OG3C51   CG3C51     9     0.000000     0.088701     3 ; 5CS, by ac_aa
  CG3C52   NG3C51   OG3C51   CG2R51     9     0.000000     1.412518     3 ; 143, by ac_aa
    HGP1   NG3C51   OG3C51   CG2R51     9     0.000000     9.480944     3 ; 143, by ac_aa
    HGP1   NG3C51   OG3C51   CG3C51     9     0.000000     0.028033     3 ; 5CS, by ac_aa
  CG2R61    NG3N1    NG3N1   CG2R61     9     0.000000    11.165004     2 ; TRW, by ac_aa
  CG2R61    NG3N1    NG3N1     HGP1     9   180.000000     6.694400     2 ; PHHZ, phenylhydrazine, ed
    HGP1    NG3N1    NG3N1     HGP1     9   180.000000     4.602400     1 ; HDZN, hydrazine, ed
    HGP1    NG3N1    NG3N1     HGP1     9     0.000000    18.828000     2 ; HDZN, hydrazine, ed
    HGP1    NG3N1    NG3N1     HGP1     9     0.000000     0.209200     3 ; HDZN, hydrazine, ed
   CG334    NG3P0    OG311     HGP1     9     0.000000     1.158968     3 ; TMAOP, Hydroxy(trimethyl)Ammonium, xxwy
   CG311    OG301    OG311     HGP1     9     0.000000     1.673600     1 ; PBG, yxu, RNA
   CG311    OG301    OG311     HGP1     9     0.000000     4.811600     2 ; PBG, yxu, RNA
   CG311    OG301    OG311     HGP1     9     0.000000     0.502080     3 ; PBG, yxu, RNA
   CG331    OG301    OG311     HGP1     9     0.000000     1.673600     1 ; mhp from ppox, yxu, RNA
   CG331    OG301    OG311     HGP1     9     0.000000     4.811600     2 ; mhp from ppox, yxu, RNA
   CG331    OG301    OG311     HGP1     9     0.000000     0.502080     3 ; mhp from ppox, yxu, RNA
  NG2R51    OG301    OG311     HGP1     9     0.000000     6.415327     1 ; TOX, by ac_aa
  NG2R51    OG301    OG311     HGP1     9     0.000000     6.283113     2 ; TOX, by ac_aa
  NG2R51    OG301    OG311     HGP1     9     0.000000     1.585318     3 ; TOX, by ac_aa
   SG301    OG301    OG311     HGP1     9     0.000000     2.155597     1 ; 2CO, by ac_aa
   SG301    OG301    OG311     HGP1     9     0.000000     3.584851     2 ; 2CO, by ac_aa
   SG301    OG301    OG311     HGP1     9     0.000000     0.820064     3 ; 2CO, by ac_aa
   OG311    OG301    SG301    CG321     9     0.000000     0.199577     1 ; 2CO, by ac_aa
   OG311    OG301    SG301    CG321     9     0.000000    15.581216     2 ; 2CO, by ac_aa
   OG311    OG301    SG301    CG321     9     0.000000     3.801582     3 ; 2CO, by ac_aa
   OG311    OG301    SG301    CG321     9   180.000000     0.791194     6 ; 2CO, by ac_aa
   CG311    OG303      PG0    CG331     9     0.000000     4.981052     2 ; FROM CG331 PG0 OG303 CG331, SGB
   CG311    OG303      PG0    CG331     9   180.000000     0.105018     3 ; FROM CG331 PG0 OG303 CG331, SGB
   CG311    OG303      PG0    OG2P1     9     0.000000     0.418400     3 ; from CG321 OG303 PG0 OG2P1, PENALTY= 0.6 SGB SVY
   CG311    OG303      PG0    OG303     9     0.000000     3.974800     2 ; from CG321 OG303 PG0 OG304, PENALTY= 2.6 SGB SVY
   CG311    OG303      PG0    OG303     9     0.000000     2.092000     3 ; from CG321 OG303 PG0 OG304, PENALTY= 2.6 SGB SVY
   CG321    OG303      PG0    CG331     9     0.000000     2.599101     2 ; from CG331 PG0 OG303 CG331, SVX
   CG321    OG303      PG0    CG331     9   180.000000     0.105018     3 ; from CG331 PG0 OG303 CG331, SVX
   CG321    OG303      PG0    NG2S3     9     0.000000     9.342454     1 ; from NG2S3 PG0 OG303 CG331, SUN
   CG321    OG303      PG0    NG2S3     9     0.000000     1.170683     2 ; from NG2S3 PG0 OG303 CG331, SUN
   CG321    OG303      PG0    NG2S3     9     0.000000     1.022988     3 ; from NG2S3 PG0 OG303 CG331, SUN
   CG321    OG303      PG0    OG2P1     9     0.000000     0.418400     3 ; mono-thio S-P bond
   CG321    OG303      PG0    OG303     9     0.000000     2.092000     3 ; from CG321 OG303 PG0 OG304, PENALTY= 2 SGB SVX SVY
   CG321    OG303      PG0    OG304     9     0.000000     3.974800     2 ; mono-thio S-P bond
   CG321    OG303      PG0    OG304     9     0.000000     2.092000     3 ; mono-thio S-P bond
   CG321    OG303      PG0    OG311     9     0.000000     3.974800     2 ; mono-thio S-P bond
   CG321    OG303      PG0    OG311     9     0.000000     2.092000     3 ; mono-thio S-P bond
   CG321    OG303      PG0    SG2P1     9     0.000000     0.418400     3 ; mono-thio S-P bond
   CG321    OG303      PG0    SG2P2     9     0.000000     0.418400     3 ; di-thio S-P bond
   CG331    OG303      PG0    CG331     9     0.000000     2.599101     2 ; SVX, by ac_aa
   CG331    OG303      PG0    CG331     9   180.000000     0.105018     3 ; SGB, by ac_aa
   CG331    OG303      PG0    NG2S3     9     0.000000     9.342454     1 ; SUN, by ac_aa
   CG331    OG303      PG0    NG2S3     9     0.000000     1.170683     2 ; SUN, by ac_aa
   CG331    OG303      PG0    NG2S3     9     0.000000     1.022988     3 ; SUN, by ac_aa
   CG331    OG303      PG0    OG2P1     9     0.000000     0.418400     3 ; NA dmp !Reorganization:MP_0 RE-OPTIMIZE!
   CG331    OG303      PG0    OG303     9     0.000000     3.974800     2 ; from CG321 OG303 PG0 OG304, penalty= 2.9 SGB SUN SVX
   CG331    OG303      PG0    OG303     9     0.000000     2.092000     3 ; from CG321 OG303 PG0 OG304, penalty= 2.9 SGB SUN SVX
   CG331    OG303      PG0    OG311     9     0.000000     3.974800     2 ; NA MP_1, adm jr. !Reorganization:MP_0 RE-OPTIMIZE!
   CG331    OG303      PG0    OG311     9     0.000000     2.092000     3 ; NA MP_1, adm jr. !Reorganization:MP_0 RE-OPTIMIZE!
   CG2O2    OG303      PG1    OG2P1     9     0.000000     1.286580     3 ; PHDP, by ac_aa
   CG2O2    OG303      PG1    OG311     9     0.000000     1.869830     2 ; PHDP, by ac_aa
   CG2O2    OG303      PG1    OG311     9     0.000000     1.956857     3 ; PHDP, by ac_aa
  CG2R61    OG303      PG1    OG2P1     9     0.000000     0.418400     3 ; PROTNA phenol phosphate, 6/94, adm jr.
  CG2R61    OG303      PG1    OG311     9     0.000000     3.974800     2 ; PROTNA phenol phosphate, 6/94, adm jr.
  CG2R61    OG303      PG1    OG311     9     0.000000     2.092000     3 ; PROTNA phenol phosphate, 6/94, adm jr.
   CG301    OG303      PG1    OG2P1     9     0.000000     0.418400     3 ; from CG321 OG303 PG1 OG2P1, PENALTY= 1.8 QPA
   CG301    OG303      PG1    OG311     9     0.000000     3.974800     2 ; from CG321 OG303 PG1 OG311, PENALTY= 1.8 QPA
   CG301    OG303      PG1    OG311     9     0.000000     2.092000     3 ; from CG321 OG303 PG1 OG311, PENALTY= 1.8 QPA
   CG321    OG303      PG1    CG331     9     0.000000     7.833285     1 ; SBG, by ac_aa
   CG321    OG303      PG1    CG331     9     0.000000     5.203641     2 ; SBG, by ac_aa
   CG321    OG303      PG1    CG331     9     0.000000     3.086537     3 ; SBG, by ac_aa
   CG321    OG303      PG1    NG2S3     9     0.000000     1.673600     1 ; from CG331 OG303 PG1 NG2S3, PENALTY= 0.9 APK SEN SVV
   CG321    OG303      PG1    NG2S3     9     0.000000     1.087840     2 ; from CG331 OG303 PG1 NG2S3, PENALTY= 0.9 APK SEN SVV
   CG321    OG303      PG1    NG2S3     9     0.000000     1.464400     3 ; from CG331 OG303 PG1 NG2S3, PENALTY= 0.9 APK SEN SVV
   CG321    OG303      PG1    OG2P1     9     0.000000     0.418400     3 ; NA dmp !Reorganization: PC and others
   CG321    OG303      PG1    OG303     9   180.000000     5.020800     1 ; NA 10/97, DMP, adm jr. !Reorganization: PC and others
   CG321    OG303      PG1    OG303     9   180.000000     0.418400     2 ; NA 10/97, DMP, adm jr. !Reorganization: PC and others
   CG321    OG303      PG1    OG303     9   180.000000     0.418400     3 ; NA 10/97, DMP, adm jr. !Reorganization: PC and others
   CG321    OG303      PG1    OG304     9   180.000000     5.020800     1 ; NA dmp !Reorganization:ADP
   CG321    OG303      PG1    OG304     9   180.000000     0.418400     2 ; NA dmp !Reorganization:ADP
   CG321    OG303      PG1    OG304     9   180.000000     0.418400     3 ; NA dmp !Reorganization:ADP
   CG321    OG303      PG1    OG311     9     0.000000     3.974800     2 ; NA MP_1, adm jr.
   CG321    OG303      PG1    OG311     9     0.000000     2.092000     3 ; NA MP_1, adm jr.
   CG331    OG303      PG1    NG2S3     9     0.000000     1.673600     1 ; NABAKB phosphoramidates
   CG331    OG303      PG1    NG2S3     9     0.000000     1.087840     2 ; NABAKB phosphoramidates ! changed 0.4 2 50 into 0.4cos(50)=0.26 2 0
   CG331    OG303      PG1    NG2S3     9     0.000000     1.464400     3 ; NABAKB phosphoramidates
   CG331    OG303      PG1    OG2P1     9     0.000000     0.418400     3 ; NA dmp !Reorganization:MP_1
   CG331    OG303      PG1    OG303     9   180.000000     5.020800     1 ; NA dmp !Reorganization: PC and others
   CG331    OG303      PG1    OG303     9   180.000000     0.418400     2 ; NA dmp !Reorganization: PC and others
   CG331    OG303      PG1    OG303     9   180.000000     0.418400     3 ; NA dmp !Reorganization: PC and others
   CG331    OG303      PG1    OG304     9   180.000000     5.020800     1 ; NA dmp !Reorganization:PPI1
   CG331    OG303      PG1    OG304     9   180.000000     0.418400     2 ; NA dmp !Reorganization:PPI1
   CG331    OG303      PG1    OG304     9   180.000000     0.418400     3 ; NA dmp !Reorganization:PPI1
   CG331    OG303      PG1    OG311     9     0.000000     3.974800     2 ; NA MP_1, adm jr. !Reorganization:MP_1
   CG331    OG303      PG1    OG311     9     0.000000     2.092000     3 ; NA MP_1, adm jr. !Reorganization:MP_1
  CG3C51    OG303      PG1    OG2P1     9     0.000000     0.418400     3 ; BPNP and others dmp,eps, O1P-P-O3'-C3'
  CG3C51    OG303      PG1    OG303     9   180.000000     5.020800     1 ; BPNP and others 10/97, DMP, adm jr.
  CG3C51    OG303      PG1    OG303     9   180.000000     0.418400     2 ; BPNP and others 10/97, DMP, adm jr.
  CG3C51    OG303      PG1    OG303     9   180.000000     0.418400     3 ; BPNP and others 10/97, DMP, adm jr.
  CG3C51    OG303      PG1    OG311     9     0.000000     3.974800     2 ; NA T3PH, adm jr.
  CG3C51    OG303      PG1    OG311     9     0.000000     2.092000     3 ; NA T3PH, adm jr.
   CG2O2    OG303      PG2    OG2P1     9   180.000000     1.096208     3 ; PHD, by ac_aa
   CG311    OG303      PG2    OG2P1     9     0.000000     0.418400     3 ; IP_2 NA dmp,eps, O1P-P-O3'-C3'
   CG321    OG303      PG2    OG2P1     9     0.000000     0.418400     3 ; NA dmp !Reorganization: TH5P and others
   CG321    OG303      PG2    OG2S1     9     0.000000     0.418400     3 ; mono-thio S-P bond
   CG321    OG303      PG2    SG2P1     9     0.000000     0.418400     3 ; mono-thio S-P bond
   CG321    OG303      PG2    SG2P2     9     0.000000     0.418400     3 ; di-thio S-P bond
   CG331    OG303      PG2    OG2P1     9     0.000000     0.418400     3 ; NA dmp !Reorganization:MP_2
   CG331    OG303      PG2    SG2P1     9     0.000000     1.673600     1 ; mono-thio S-P bond
   CG331    OG303      PG2    SG2P1     9     0.000000     0.418400     3 ; mono-thio S-P bond
   CG331    OG303      PG2    SG2P2     9   180.000000     1.882800     1 ; di-thio S-P bond
   CG331    OG303      PG2    SG2P2     9     0.000000     0.836800     2 ; di-thio S-P bond
   CG331    OG303      PG2    SG2P2     9     0.000000     0.418400     3 ; di-thio S-P bond
  CG3C51    OG303      PG2    OG2P1     9     0.000000     0.418400     3 ; TH3P and others dmp,eps, O1P-P-O3'-C3'
  CG2R61    OG303    SG3O1    OG2P1     9     0.000000     0.231794     3 ; TYS, by ac_aa
   CG311    OG303    SG3O1    OG2P1     9     0.000000     0.000000     3 ; from CG321 OG303 SG3O1 OG2P1, penalty= 0.6 ALS
   CG321    OG303    SG3O1    OG2P1     9     0.000000     0.000000     3 ; LIPID methylsulfate
   CG331    OG303    SG3O1    OG2P1     9     0.000000     0.000000     3 ; LIPID methylsulfate
  CG2R61    OG303    SG3O2    CG331     9   180.000000     6.694400     1 ; PMST, phenyl methanesulfonate, xxwy
  CG2R61    OG303    SG3O2    CG331     9     0.000000     3.347200     2 ; PMST, phenyl methanesulfonate, xxwy
  CG2R61    OG303    SG3O2    CG331     9     0.000000     0.418400     3 ; PMST, phenyl methanesulfonate, xxwy
  CG2R61    OG303    SG3O2    NG321     9   180.000000    13.388800     1 ; PSMT, phenyl sulfamate, xxwy
  CG2R61    OG303    SG3O2    NG321     9     0.000000     0.836800     2 ; PSMT, phenyl sulfamate, xxwy
  CG2R61    OG303    SG3O2    NG321     9     0.000000     0.836800     3 ; PSMT, phenyl sulfamate, xxwy
  CG2R61    OG303    SG3O2    OG2P1     9     0.000000     1.255200     3 ; PMST, phenyl methanesulfonate, PSMT, phenyl sulfamate, xxwy
   CG321    OG303    SG3O2    CG321     9   180.000000     4.602400     1 ; from CG331 OG303 SG3O2 CG331, PENALTY= 1.8 SEB
   CG321    OG303    SG3O2    CG321     9     0.000000     2.928800     2 ; from CG331 OG303 SG3O2 CG331, PENALTY= 1.8 SEB
   CG321    OG303    SG3O2    CG321     9     0.000000     1.255200     3 ; from CG331 OG303 SG3O2 CG331, PENALTY= 1.8 SEB
   CG321    OG303    SG3O2    OG2P1     9     0.000000     1.255200     3 ; from CG331 OG303 SG3O2 OG2P1, PENALTY= 0.9 SEB
   CG331    OG303    SG3O2    CG331     9   180.000000     4.602400     1 ; MMST, methyl methanesulfonate, xxwy
   CG331    OG303    SG3O2    CG331     9     0.000000     2.928800     2 ; MMST, methyl methanesulfonate, xxwy
   CG331    OG303    SG3O2    CG331     9     0.000000     1.255200     3 ; MMST, methyl methanesulfonate, xxwy
   CG331    OG303    SG3O2    NG321     9   180.000000     7.531200     1 ; MSMT, methyl sulfamate, xxwy
   CG331    OG303    SG3O2    NG321     9     0.000000     2.092000     2 ; MSMT, methyl sulfamate, xxwy
   CG331    OG303    SG3O2    NG321     9     0.000000     1.673600     3 ; MSMT, methyl sulfamate, xxwy
   CG331    OG303    SG3O2    OG2P1     9     0.000000     1.255200     3 ; MMST, methyl methanesulfonate, xxwy
     PG0    OG304      PG0    OG2P1     9     0.000000     0.418400     2 ; mono-thio S-P bond
     PG0    OG304      PG0    OG2P1     9     0.000000     0.125520     3 ; mono-thio S-P bond
     PG0    OG304      PG0    OG303     9     0.000000     0.125520     2 ; mono-thio S-P bond
     PG0    OG304      PG0    OG303     9     0.000000     0.125520     3 ; mono-thio S-P bond
     PG0    OG304      PG0    OG304     9     0.000000     0.125520     2 ; mono-thio S-P bond
     PG0    OG304      PG0    OG304     9     0.000000     0.125520     3 ; mono-thio S-P bond
     PG0    OG304      PG0    OG311     9     0.000000     0.418400     2 ; mono-thio S-P bond
     PG0    OG304      PG0    OG311     9     0.000000     0.125520     3 ; mono-thio S-P bond
     PG0    OG304      PG0    SG2P1     9     0.000000     0.125520     3 ; mono-thio S-P bond
     PG0    OG304      PG0    SG2P2     9     0.000000     0.125520     3 ; di-thio S-P bond
     PG1    OG304      PG1    OG2P1     9     0.000000     0.418400     2 ; NA ppi2 !Reorganization:PPI2
     PG1    OG304      PG1    OG2P1     9     0.000000     0.125520     3 ; NA ppi2 !Reorganization:PPI2
     PG1    OG304      PG1    OG303     9     0.000000     0.125520     2 ; NA ppi2 !Reorganization:PPI2
     PG1    OG304      PG1    OG303     9     0.000000     0.125520     3 ; NA ppi2 !Reorganization:PPI2
     PG1    OG304      PG1    OG304     9     0.000000     0.125520     2 ; NA ppi, jjp1/adm jr. 7/95 !Reorganization:METP re-optimize?
     PG1    OG304      PG1    OG304     9     0.000000     0.125520     3 ; NA ppi, jjp1/adm jr. 7/95 !Reorganization:METP re-optimize?
     PG1    OG304      PG1    OG311     9     0.000000     0.418400     2 ; NA ppi2 !Reorganization:PPI2
     PG1    OG304      PG1    OG311     9     0.000000     0.125520     3 ; NA ppi2 !Reorganization:PPI2
     PG2    OG304      PG1    OG2P1     9     0.000000     0.418400     2 ; NA ppi, jjp1/adm jr. 7/95 !Reorganization:PPI1
     PG2    OG304      PG1    OG2P1     9     0.000000     0.125520     3 ; NA ppi, jjp1/adm jr. 7/95 !Reorganization:PPI1
     PG2    OG304      PG1    OG303     9     0.000000     0.125520     2 ; NA ppi, jjp1/adm jr. 7/95 !Reorganization:PPI1
     PG2    OG304      PG1    OG303     9     0.000000     0.125520     3 ; NA ppi, jjp1/adm jr. 7/95 !Reorganization:PPI1
     PG2    OG304      PG1    OG304     9     0.000000     0.125520     2 ; NA ppi, jjp1/adm jr. 7/95 !Reorganization:METP re-optimize?
     PG2    OG304      PG1    OG304     9     0.000000     0.125520     3 ; NA ppi, jjp1/adm jr. 7/95 !Reorganization:METP re-optimize?
     PG1    OG304      PG2    OG2P1     9     0.000000     0.125520     3 ; NA ppi, jjp1/adm jr. 7/95 !Reorganization:PPI1
     PG1    OG304      PG2    OG2S1     9     0.000000     0.125520     3 ; mono-thio S-P bond
     PG1    OG304      PG2    SG2P1     9     0.000000     0.125520     3 ; mono-thio S-P bond
     PG1    OG304      PG2    SG2P2     9     0.000000     0.125520     3 ; di-thio S-P bond
    HGP1    OG311      PG0    OG2P1     9     0.000000     1.255200     3 ; NA MP_1, adm jr. !Reorganization:MP_0 RE-OPTIMIZE!
    HGP1    OG311      PG0    OG303     9   180.000000     6.694400     1 ; PROTNA phenol phosphate !Reorganization:MP_0 RE-OPTIMIZE!
    HGP1    OG311      PG0    OG303     9     0.000000     3.765600     2 ; PROTNA phenol phosphate !Reorganization:MP_0 RE-OPTIMIZE!
    HGP1    OG311      PG0    OG304     9   180.000000     6.694400     1 ; mono-thio S-P bond
    HGP1    OG311      PG0    OG304     9     0.000000     3.765600     2 ; mono-thio S-P bond
    HGP1    OG311      PG0    OG311     9     0.000000     1.255200     3 ; NA MP_0, adm jr.
    HGP1    OG311      PG0    SG2P1     9     0.000000     1.255200     3 ; mono-thio S-P bond
    HGP1    OG311      PG0    SG2P2     9     0.000000     1.255200     3 ; mono-thio S-P bond
    HGP1    OG311      PG1    CG312     9   180.000000     0.836800     1 ; BDFP, BDFD, Difuorobenzylphosphonate
    HGP1    OG311      PG1    CG312     9     0.000000     6.694400     2 ; BDFP, BDFD, Difuorobenzylphosphonate
    HGP1    OG311      PG1    CG321     9   180.000000     2.510400     1 ; BDFP, BDFD, Benzylphosphonate
    HGP1    OG311      PG1    CG321     9     0.000000     4.602400     2 ; BDFP, BDFD, Benzylphosphonate
    HGP1    OG311      PG1    OG2P1     9     0.000000     1.255200     3 ; NA MP_1, adm jr. !Reorganization:MP_1
    HGP1    OG311      PG1    OG303     9   180.000000     6.694400     1 ; PROTNA phenol phosphate !Reorganization:MP_1
    HGP1    OG311      PG1    OG303     9     0.000000     3.765600     2 ; PROTNA phenol phosphate !Reorganization:MP_1
    HGP1    OG311      PG1    OG304     9   180.000000     6.694400     1 ; PROTNA phenol phosphate !Reorganization:PPI2
    HGP1    OG311      PG1    OG304     9     0.000000     3.765600     2 ; PROTNA phenol phosphate !Reorganization:PPI2
    HGP1    OG311      PG2    OG2S1     9     0.000000     1.556030     3 ; CSPP, by ac_aa
    HGP1    OG311      PG2    SG2P1     9   180.000000     8.629082     1 ; CSPP, by ac_aa
    HGP1    OG311      PG2    SG2P1     9     0.000000     4.313286     2 ; CSPP, by ac_aa
    HGP1    OG311      PG2    SG2P1     9     0.000000     1.117965     3 ; CSPP, by ac_aa
    HGP1    OG311    SG301    CG321     9     0.000000     1.672345     1 ; CSO, by ac_aa
    HGP1    OG311    SG301    CG321     9     0.000000    11.917287     2 ; CSO, by ac_aa
    HGP1    OG311    BG201   CG2R61     9     0.000000    33.452754     1 ; BORB,BONB Boronic acid, sr
    HGP1    OG311    BG201   CG2RC0     9     0.000000    24.038754     1 ; BICB, Boronic acid, sr
    HGP1    OG311    BG201    CG321     9     0.000000     7.082257     1 ; BORE,BONE Boronic acid, sr
    HGP1    OG311    BG201    CG331     9     0.000000     7.082257     1 ; BORO, Boronic acid, sr
    HGP1    OG311    BG201    OG2D2     9     0.000000     0.056902     1 ; BORN, Boronic acid, sr
    HGP1    OG311    BG201    OG311     9     0.000000    20.007470     1 ; BORO,BORB,BORE Boronic acid, sr
    HGP1    OG311    BG201    OG311     9   180.000000    20.409134     2 ; BORO,BORB,BORE Boronic acid, sr
    HGP1    OG311    BG201    OG311     9   180.000000     0.777387     3 ; BORO,BORB,BORE Boronic acid, sr
    HGP1    OG311    BG201   OG3C51     9   180.000000     5.766389     3 ; BICB, Boronic acid, sr
  CG3C52   OG3C51    BG201   CG2RC0     9     0.000000     0.000000     3 ; BICB,BINB Boronic acid, sr
  CG3C52   OG3C51    BG201    OG2D2     9   180.000000     9.969635     3 ; BINB, Boronic acid, sr
  CG3C52   OG3C51    BG201    OG311     9   180.000000     3.217078     3 ; BICB, Boronic acid, sr
   OG2S1      PG2    SG2P1    CG321     9     0.000000     2.988631     3 ; CSPP, by ac_aa
   OG2S1      PG2    SG2P1    CG321     9     0.000000     0.119662     4 ; CSPP, by ac_aa
   OG311      PG2    SG2P1    CG321     9     0.000000     4.073124     2 ; CSPP, by ac_aa
   CG321    SG301    SG301    CG321     9     0.000000     4.184000     1 ; PROT DMDS  5/15/92 (FL)
   CG321    SG301    SG301    CG321     9     0.000000    17.154400     2 ; PROT mp 6-311G** dimethyldisulfide,  3/26/92 (FL)
   CG321    SG301    SG301    CG321     9     0.000000     3.765600     3 ; PROT DMDS  5/15/92 (FL)
   CG321    SG301    SG301    CG331     9     0.000000     4.184000     1 ; PROT DMDS  5/15/92 (FL)
   CG321    SG301    SG301    CG331     9     0.000000    17.154400     2 ; PROT mp 6-311G** dimethyldisulfide,  3/26/92 (FL)
   CG321    SG301    SG301    CG331     9     0.000000     3.765600     3 ; PROT DMDS  5/15/92 (FL)
   CG331    SG301    SG301    CG331     9     0.000000     4.184000     1 ; PROT DMDS  5/15/92 (FL)
   CG331    SG301    SG301    CG331     9     0.000000    17.154400     2 ; PROT mp 6-311G** dimethyldisulfide,   3/26/92 (FL)
   CG331    SG301    SG301    CG331     9     0.000000     3.765600     3 ; PROT DMDS  5/15/92 (FL)
   CG321    SG301    SG311     HGP3     9     0.000000     4.181908     1 ; CSS, by ac_aa
   CG321    SG301    SG311     HGP3     9     0.000000    14.963239     2 ; CSS, by ac_aa
   CG321    SG301    SG311     HGP3     9     0.000000     2.732570     3 ; CSS, by ac_aa
   CG321    SG301    SG3O1    OG2P1     9     0.000000     3.842586     1 ; CSU, by ac_aa
   CG321    SG301    SG3O1    OG2P1     9     0.000000    17.023022     2 ; CSU, by ac_aa
   CG321    SG301    SG3O1    OG2P1     9     0.000000     1.371934     3 ; CSU, by ac_aa

; specific (non-wildcard) dihedral parameters from toppar_c36_jul22/par_all36_lipid.prm
;      i        j        k        l  func         phi0         kphi  mult
     OCL      CCL     CTL1     NH3L     9   180.000000    13.388800     2 ; for POPS
     OBL       CL     CTL2     HAL2     9   180.000000     0.000000     6 ; acetic acid
     OBL       CL     CTL3     HAL3     9   180.000000     0.000000     6 ; acetic acid
     OSL       CL     CTL2     HAL2     9   180.000000     0.000000     6 ; acetic acid
     OSL       CL     CTL3     HAL3     9   180.000000     0.000000     6 ; acetic acid
    OSLP       CL     CTL2     HAL2     9   180.000000     0.000000     6 ; acetic acid
    OSLP       CL     CTL3     HAL3     9   180.000000     0.000000     6 ; acetic acid
     OBL       CL      OSL     CTL1     9   180.000000     4.037560     1 ; methyl acetate
     OBL       CL      OSL     CTL1     9   180.000000    16.108400     2 ; methyl acetate
     OBL       CL      OSL     CTL2     9   180.000000     4.037560     1 ; methyl acetate
     OBL       CL      OSL     CTL2     9   180.000000    16.108400     2 ; methyl acetate
     OBL       CL      OSL     CTL3     9   180.000000     4.037560     1 ; methyl acetate
     OBL       CL      OSL     CTL3     9   180.000000    16.108400     2 ; methyl acetate
    HAL2     CTL2       CL      OHL     9   180.000000     0.000000     6 ; 
    HAL3     CTL3       CL      OHL     9   180.000000     0.000000     6 ; 
      PL     OSLP     CTL2     CTL1     9     0.000000     1.702888     2 ; Phos-gly, 8/05
      PL     OSLP     CTL2     CTL1     9   180.000000     1.008344     1 ; Phos-gly, 8/05
      PL     OSLP     CTL2     CTL2     9     0.000000     1.702888     2 ; Phos-gly, 8/05
      PL     OSLP     CTL2     CTL2     9   180.000000     1.008344     1 ; Phos-gly, 8/05
     OSL       PL      OSL     CTL1     9   180.000000     5.020800     1 ; phosphate, new NA, 4/98, adm jr., PIP
     OSL       PL      OSL     CTL1     9   180.000000     0.418400     2 ; phosphate, new NA, 4/98, adm jr., PIP
     OSL       PL      OSL     CTL1     9   180.000000     0.418400     3 ; phosphate, new NA, 4/98, adm jr., PIP
    OSLP       PL     OSLP     CTL1     9   180.000000     5.020800     1 ; phosphate, new NA, 4/98, adm jr., PIP
    OSLP       PL     OSLP     CTL1     9   180.000000     0.418400     2 ; phosphate, new NA, 4/98, adm jr., PIP
    OSLP       PL     OSLP     CTL1     9   180.000000     0.418400     3 ; phosphate, new NA, 4/98, adm jr., PIP
    OSLP       PL     OSLP     CTL2     9   180.000000     5.020800     1 ; phosphate, new NA, 4/98, adm jr.
    OSLP       PL     OSLP     CTL2     9   180.000000     0.418400     2 ; phosphate, new NA, 4/98, adm jr.
    OSLP       PL     OSLP     CTL2     9   180.000000     0.418400     3 ; phosphate, new NA, 4/98, adm jr.
     O2L       PL     OSLP     CTL2     9     0.000000     0.418400     3 ; phosphate, new NA, 4/98, adm jr.
     O2L       PL      OSL     CTL2     9     0.000000     0.418400     3 ; phosphate, new NA, 4/98, adm jr.
    OSLP       PL     OSLP     CTL3     9   180.000000     5.020800     1 ; phosphate, new NA, 4/98, adm jr.
    OSLP       PL     OSLP     CTL3     9   180.000000     0.418400     2 ; phosphate, new NA, 4/98, adm jr.
    OSLP       PL     OSLP     CTL3     9   180.000000     0.418400     3 ; phosphate, new NA, 4/98, adm jr.
     O2L       PL     OSLP     CTL1     9     0.000000     0.418400     3 ; phosphate, new NA, 4/98, adm jr., PIP
     O2L       PL      OSL     CTL1     9     0.000000     0.418400     3 ; phosphate, new NA, 4/98, adm jr., PIP
     O2L       PL     OSLP     CTL3     9     0.000000     0.418400     3 ; phosphate, new NA, 4/98, adm jr.
     O2L       PL      OSL     CTL3     9     0.000000     0.418400     3 ; phosphate, new NA, 4/98, adm jr.
     OHL       PL      OSL     CTL1     9     0.000000     3.974800     2 ; terminal phosphate, PIP
     OHL       PL      OSL     CTL1     9     0.000000     2.092000     3 ; terminal phosphate, PIP
     OHL       PL      OSL     CTL2     9     0.000000     3.974800     2 ; terminal phosphate
     OHL       PL      OSL     CTL2     9     0.000000     2.092000     3 ; terminal phosphate
     OHL       PL      OSL     CTL3     9     0.000000     3.974800     2 ; terminal phosphate
     OHL       PL      OSL     CTL3     9     0.000000     2.092000     3 ; terminal phosphate
     OHL       PL     OSLP     CTL2     9     0.000000     3.974800     2 ; terminal phosphate
     OHL       PL     OSLP     CTL2     9     0.000000     2.092000     3 ; terminal phosphate
     OHL       PL     OSLP     CTL3     9     0.000000     3.974800     2 ; terminal phosphate
     OHL       PL     OSLP     CTL3     9     0.000000     2.092000     3 ; terminal phosphate
    CTL1     CTL2       CL      OSL     9   180.000000    -0.627600     1 ; methyl propionate, 12/92
    CTL1     CTL2       CL      OSL     9   180.000000     2.217520     2 ; methyl propionate, 12/92
    CTL2     CTL2       CL      OSL     9     0.000000     0.000000     6 ; glycerol & propl ester, 6/07
    CTL2     CTL2       CL      OSL     9   180.000000     0.125520     3 ; glycerol & propl ester, 6/07
    CTL2     CTL2       CL      OSL     9   180.000000     1.807488     2 ; glycerol & propl ester, 6/07
    CTL2     CTL2       CL      OSL     9     0.000000     1.389088     1 ; glycerol & propl ester, 6/07
    CTL3     CTL2       CL      OSL     9     0.000000     0.000000     6 ; glycerol & propl ester, 6/07
    CTL3     CTL2       CL      OSL     9   180.000000     0.125520     3 ; glycerol & propl ester, 6/07
    CTL3     CTL2       CL      OSL     9   180.000000     1.807488     2 ; glycerol & propl ester, 6/07
    CTL3     CTL2       CL      OSL     9     0.000000     1.389088     1 ; glycerol & propl ester, 6/07
    CTL3     CTL2     CTL2       CL     9   180.000000     0.000000     5 ; propyl ester, 6/07
    CTL3     CTL2     CTL2       CL     9   180.000000     1.326328     3 ; propyl ester, 6/07
    CTL3     CTL2     CTL2       CL     9     0.000000     2.330488     2 ; propyl ester, 6/07
    CTL3     CTL2     CTL2       CL     9     0.000000     3.150552     1 ; propyl ester, 6/07
    CTL2     CTL2     CTL2       CL     9   180.000000     0.000000     5 ; propyl ester, 6/07
    CTL2     CTL2     CTL2       CL     9   180.000000     1.326328     3 ; propyl ester, 6/07
    CTL2     CTL2     CTL2       CL     9     0.000000     2.330488     2 ; propyl ester, 6/07
    CTL2     CTL2     CTL2       CL     9     0.000000     3.150552     1 ; propyl ester, 6/07
     OSL     CTL2     CTL1      OSL     9    60.000000    -1.794936     4 ; glycerol, 8/08
     OSL     CTL2     CTL1      OSL     9     0.000000     2.568976     3 ; glycerol, 8/08
     OSL     CTL2     CTL1      OSL     9    60.000000    -0.481160     2 ; glycerol, 8/08
     OSL     CTL2     CTL1      OSL     9   180.000000     2.941352     1 ; glycerol, 8/08
    OSLP     CTL2     CTL1      OSL     9     0.000000     0.000000     4 ; Fit to QM, theta2, 07/08 jbk
    OSLP     CTL2     CTL1      OSL     9   180.000000     2.539688     3 ; Fit to QM, theta2, 07/08 jbk
    OSLP     CTL2     CTL1      OSL     9    60.000000     1.062736     2 ; Fit to QM, theta2, 07/08 jbk
    OSLP     CTL2     CTL1      OSL     9   180.000000     8.434944     1 ; Fit to QM, theta2, 07/08 jbk
    OSLP     CTL2     CTL2      OSL     9     0.000000     0.000000     4 ; Fit to QM, theta2, 07/08 jbk
    OSLP     CTL2     CTL2      OSL     9   180.000000     2.539688     3 ; Fit to QM, theta2, 07/08 jbk
    OSLP     CTL2     CTL2      OSL     9    60.000000     1.062736     2 ; Fit to QM, theta2, 07/08 jbk
    OSLP     CTL2     CTL2      OSL     9   180.000000     8.434944     1 ; Fit to QM, theta2, 07/08 jbk
    CTL3     CTL1     CTL2      OSL     9     0.000000     0.000000     3 ; glycerol, theta3
    CTL2     CTL1     CTL2      OSL     9     0.000000     0.000000     3 ; glycerol, theta3
    CTL3     CTL2     CTL2      OSL     9     0.000000     0.000000     3 ; glycerol, theta3
    CTL2     CTL2     CTL2      OSL     9     0.000000     0.000000     3 ; glycerol, theta3
      CL      OSL     CTL1     CTL2     9     0.000000     0.000000     4 ; glycerol, beta1 6/07
      CL      OSL     CTL1     CTL2     9   180.000000     0.627600     3 ; glycerol, beta1 6/07
      CL      OSL     CTL1     CTL2     9   180.000000     6.079352     2 ; glycerol, beta1 6/07
      CL      OSL     CTL1     CTL2     9   180.000000     3.502008     1 ; glycerol, beta1 6/07
      CL      OSL     CTL1     CTL3     9     0.000000     0.000000     4 ; glycerol, beta1 6/07
      CL      OSL     CTL1     CTL3     9   180.000000     0.627600     3 ; glycerol, beta1 6/07
      CL      OSL     CTL1     CTL3     9   180.000000     6.079352     2 ; glycerol, beta1 6/07
      CL      OSL     CTL1     CTL3     9   180.000000     3.502008     1 ; glycerol, beta1 6/07
      CL      OSL     CTL2     CTL1     9   180.000000     1.117128     3 ; glycerol, gamma1 6/07
      CL      OSL     CTL2     CTL1     9     0.000000     0.723832     2 ; glycerol, gamma1 6/07
      CL      OSL     CTL2     CTL1     9   180.000000     3.267704     1 ; glycerol, gamma1 6/07
    NH3L     CTL2     CTL2      OHL     9   180.000000     2.928800     1 ; ethanolamine
    NH3L     CTL2     CTL2     OSLP     9   180.000000     2.928800     1 ; ethanolamine
     NTL     CTL2     CTL2      OHL     9   180.000000    17.991200     1 ; choline, 12/92
     NTL     CTL2     CTL2      OHL     9   180.000000    -1.673600     3 ; choline, 12/92
     NTL     CTL2     CTL2     OSLP     9   180.000000    13.807200     1 ; choline, 12/92
     NTL     CTL2     CTL2     OSLP     9   180.000000    -1.673600     3 ; choline, 12/92
    CTL3     CTL2     CTL2     CTL3     9     0.000000     0.251040     2 ; alkane, 7/08, jbk
    CTL3     CTL2     CTL2     CTL3     9     0.000000     0.146440     5 ; alkane, 7/08, jbk
    CTL2     CTL2     CTL2     CTL3     9     0.000000     0.677808     2 ; alkane, 7/08, jbk
    CTL2     CTL2     CTL2     CTL3     9   180.000000     0.196648     3 ; alkane, 7/08, jbk
    CTL2     CTL2     CTL2     CTL3     9     0.000000     0.439320     4 ; alkane, 7/08, jbk
    CTL2     CTL2     CTL2     CTL3     9     0.000000     0.740568     5 ; alkane, 7/08, jbk
    CTL2     CTL2     CTL2     CTL2     9     0.000000     0.422584     2 ; alkane, 7/08, jbk
    CTL2     CTL2     CTL2     CTL2     9   180.000000     0.594128     3 ; alkane, 7/08, jbk
    CTL2     CTL2     CTL2     CTL2     9     0.000000     0.309616     4 ; alkane, 7/08, jbk
    CTL2     CTL2     CTL2     CTL2     9     0.000000     0.405848     5 ; alkane, 7/08, jbk
    HAL3     CTL3      OSL       SL     9     0.000000     0.000000     3 ; methylsulfate
    CTL2      OSL       SL      O2L     9     0.000000     0.000000     3 ; methylsulfate
    CTL3      OSL       SL      O2L     9     0.000000     0.000000     3 ; methylsulfate
    HEL1     CEL1     CEL1     HEL1     9   180.000000     4.184000     2 ; 2-butene, adm jr., 8/98 update
    CTL3     CEL1     CEL1     HEL1     9   180.000000     4.184000     2 ; 2-butene, adm jr., 8/98 update
    CTL2     CEL1     CEL2     HEL2     9   180.000000    21.756800     2 ; propene, yin,adm jr., 12/95
    CTL3     CEL1     CEL2     HEL2     9   180.000000    21.756800     2 ; propene, yin,adm jr., 12/95
    HEL1     CEL1     CEL2     HEL2     9   180.000000    21.756800     2 ; propene, yin,adm jr., 12/95
    CEL1     CEL1     CTL2     HAL2     9   180.000000     1.255200     3 ; 2-butene, adm jr., 4/04
    CEL1     CEL1     CTL3     HAL3     9   180.000000     1.255200     3 ; 2-butene, adm jr., 4/04
    CEL1     CEL1     CTL2     CTL3     9   180.000000     3.807440     1 ; 2-hexene, adm jr., 11/09, end fix jbk
    CEL1     CEL1     CTL2     CTL3     9   180.000000     0.753120     2 ; 2-hexene, adm jr., 11/09
    CEL1     CEL1     CTL2     CTL3     9   180.000000     0.711280     3 ; 2-hexene, adm jr., 11/09
    CEL1     CEL1     CTL2     CTL2     9   180.000000     3.807440     1 ; 2-hexene, adm jr., 11/09
    CEL1     CEL1     CTL2     CTL2     9   180.000000     0.753120     2 ; 2-hexene, adm jr., 11/09
    CEL1     CEL1     CTL2     CTL2     9   180.000000     0.711280     3 ; 2-hexene, adm jr., 11/09
    CEL1     CTL2     CTL2       CL     9   180.000000     0.585760     1 ; 2-hexene, adm jr., 11/09, add jbk for DHA
    CEL1     CTL2     CTL2       CL     9     0.000000     0.711280     2 ; 2-hexene, adm jr., 11/09, add jbk for DHA
    CEL1     CTL2     CTL2       CL     9   180.000000     0.209200     3 ; 2-hexene, adm jr., 11/09, add jbk for DHA
    CEL1     CTL2     CTL2     CTL2     9   180.000000     0.585760     1 ; 2-hexene, adm jr., 11/09
    CEL1     CTL2     CTL2     CTL2     9     0.000000     0.711280     2 ; 2-hexene, adm jr., 11/09
    CEL1     CTL2     CTL2     CTL2     9   180.000000     0.209200     3 ; 2-hexene, adm jr., 11/09
    CEL1     CTL2     CTL2     CTL3     9   180.000000     0.585760     1 ; 2-hexene, adm jr., 11/09
    CEL1     CTL2     CTL2     CTL3     9     0.000000     0.711280     2 ; 2-hexene, adm jr., 11/09
    CEL1     CTL2     CTL2     CTL3     9   180.000000     0.209200     3 ; 2-hexene, adm jr., 11/09
    CEL2     CEL1     CTL2     CTL2     9   180.000000     2.092000     1 ; 1-butene, adm jr., 2/00 update
    CEL2     CEL1     CTL2     CTL2     9   180.000000     5.439200     3 ; 1-butene, adm jr., 2/00 update
    CEL2     CEL1     CTL2     CTL3     9   180.000000     2.092000     1 ; 1-butene, adm jr., 2/00 update
    CEL2     CEL1     CTL2     CTL3     9   180.000000     5.439200     3 ; 1-butene, adm jr., 2/00 update
    CEL2     CEL1     CTL2     HAL2     9     0.000000     0.502080     3 ; 1-butene, yin,adm jr., 12/95
    CEL2     CEL1     CTL3     HAL3     9   180.000000     0.209200     3 ; propene, yin,adm jr., 12/95
    HEL1     CEL1     CTL2     CTL2     9     0.000000     0.502080     3 ; butene, yin,adm jr., 12/95
    HEL1     CEL1     CTL2     CTL3     9     0.000000     0.502080     3 ; butene, yin,adm jr., 12/95
    HEL1     CEL1     CTL2     HAL2     9     0.000000     0.000000     3 ; butene, adm jr., 2/00 update
    HEL1     CEL1     CTL3     HAL3     9     0.000000     0.000000     3 ; butene, adm jr., 2/00 update
    CEL2     CEL1     CTL2     CEL1     9   180.000000     5.020800     1 ; 1,4-dipentene
    CEL2     CEL1     CTL2     CEL1     9   180.000000     1.673600     2 ; 1,4-dipentene
    CEL2     CEL1     CTL2     CEL1     9   180.000000     5.439200     3 ; 1,4-dipentene
    CEL1     CTL2     CEL1     HEL1     9     0.000000     0.000000     2 ; 1,4-dipentene
    CEL1     CTL2     CEL1     HEL1     9     0.000000     0.000000     3 ; 1,4-dipentene
    CEL1     CEL1     CTL2     CEL1     9   180.000000     3.556400     1 ; 2,5-diheptane
    CEL1     CEL1     CTL2     CEL1     9   180.000000     1.255200     2 ; 2,5-diheptane
    CEL1     CEL1     CTL2     CEL1     9     0.000000     1.087840     3 ; 2,5-diheptane
    CEL1     CEL1     CTL2     CEL1     9     0.000000     0.401664     4 ; 2,5-diheptane

; specific (non-wildcard) dihedral parameters from toppar_c36_jul22/par_all36_na.prm
;      i        j        k        l  func         phi0         kphi  mult
     CN7      ON6     CN8B      HN8     9     0.000000     0.815880     1 ; 
     ON6     CN8B      CN8      HN8     9     0.000000     0.815880     1 ; 
     HN7      CN7      ON6     CN8B     9     0.000000     0.815880     3 ; 
    CN8B      CN8      CN7      HN7     9     0.000000     0.815880     3 ; 
     HN8     CN8B      CN8      HN8     9     0.000000     0.815880     3 ; 
     HN8     CN8B      CN8      CN7     9     0.000000     0.815880     3 ; 
    CN8B      CN7      ON6     CN8B     9     0.000000     2.092000     5 ; min at 150 310 max at 25 200
    CN8B      CN7      ON6     CN8B     9   180.000000     0.418400     3 ; 
    CN8B      CN7      ON6     CN8B     9     0.000000     2.092000     1 ; 
    CN8B      CN8      CN7      ON5     9     0.000000     1.673600     5 ; 
    CN8B      CN8      CN7      ON5     9     0.000000     1.673600     3 ; 
    CN8B      CN8      CN7      ON5     9     0.000000     2.928800     2 ; elevates energy at 0 (c3'endo), adm
    CN8B      CN8      CN7      ON5     9   180.000000     2.092000     1 ; elevates energy at 0 (c3'endo), adm
    CN8B      CN8      CN7      ON2     9     0.000000     1.673600     5 ; terms for oligonuclotide
    CN8B      CN8      CN7      ON2     9     0.000000     1.673600     3 ; 
    CN8B      CN8      CN7      ON2     9     0.000000     2.928800     2 ; 
    CN8B      CN8      CN7      ON2     9   180.000000     2.092000     1 ; 
     CN7      ON6     CN8B      CN8     9   180.000000     2.510400     6 ; 
     CN7      ON6     CN8B      CN8     9     0.000000     2.510400     3 ; 
     ON6     CN8B      CN8      CN7     9   180.000000     2.928800     5 ; lowers 90, shifts c2endo minimum towards 200
     ON6     CN8B      CN8      CN7     9     0.000000     1.673600     4 ; lowers 90, shifts c2endo minimum towards 200
     ON6     CN8B      CN8      CN7     9   180.000000     1.673600     3 ; lowers 90, shifts c2endo minimum towards 200
     CN7      CN7      CN8     CN8B     9     0.000000     2.092000     4 ; 
     CN7      CN7      CN8     CN8B     9     0.000000     0.418400     3 ; lowers energy in 150 to 250 range
    CN8B      ON6      CN7      CN7     9     0.000000     2.092000     3 ; effects surface in 200-360 region
     ON2       P2      ON2      CN7     9   180.000000     3.765600     1 ; adm, 2011 DNA update new param, zeta, kat2 set
     ON2       P2      ON2      CN7     9   180.000000     1.673600     2 ; adm, 2011 DNA update new param, zeta, kat2 set
     ON2       P2      ON2      CN7     9   180.000000     0.836800     3 ; adm, 2011 DNA update new param, zeta, kat2 set
     ON2        P      ON2      CN7     9   180.000000     5.020800     1 ; 10/97, DMP, adm jr., RNA
     ON2        P      ON2      CN7     9   180.000000     0.418400     2 ; 10/97, DMP, adm jr., RNA
     ON2        P      ON2      CN7     9   180.000000     0.418400     3 ; 10/97, DMP, adm jr., RNA
     ON2        P      ON2      CN7     9     0.000000     0.000000     6 ; 10/97, DMP, adm jr., RNA
     ON2        P      ON2      CN8     9   180.000000     5.020800     1 ; 10/97, DMP, adm jr.
     ON2        P      ON2      CN8     9   180.000000     0.418400     2 ; 10/97, DMP, adm jr.
     ON2        P      ON2      CN8     9   180.000000     0.418400     3 ; 10/97, DMP, adm jr.
     ON2        P      ON2      CN8     9     0.000000     0.000000     6 ; 10/97, DMP, adm jr.
     ON2       P2      ON2      CN8     9   180.000000     5.020800     1 ; 10/97, DMP, adm jr., adm	2011 DNA update
     ON2       P2      ON2      CN8     9   180.000000     0.418400     2 ; 10/97, DMP, adm jr., adm	2011 DNA update
     ON2       P2      ON2      CN8     9   180.000000     0.418400     3 ; 10/97, DMP, adm jr., adm	2011 DNA update
     ON2       P2      ON2      CN8     9     0.000000     0.000000     6 ; 10/97, DMP, adm jr., adm	2011 DNA update
     ON2       P2      ON2     CN8B     9   180.000000     5.020800     1 ; 10/97, DMP, adm jr., adm, 2011 DNA update
     ON2       P2      ON2     CN8B     9   180.000000     0.418400     2 ; 10/97, DMP, adm jr., adm, 2011 DNA update
     ON2       P2      ON2     CN8B     9   180.000000     0.418400     3 ; 10/97, DMP, adm jr., adm, 2011 DNA update
     ON2       P2      ON2     CN8B     9     0.000000     0.000000     6 ; 10/97, DMP, adm jr., adm, 2011 DNA update
     ON2        P      ON2     CN8B     9   180.000000     5.020800     1 ; 10/97, DMP, adm jr., RNA
     ON2        P      ON2     CN8B     9   180.000000     0.418400     2 ; 10/97, DMP, adm jr., RNA
     ON2        P      ON2     CN8B     9   180.000000     0.418400     3 ; 10/97, DMP, adm jr., RNA
     ON2        P      ON2     CN8B     9     0.000000     0.000000     6 ; 10/97, DMP, adm jr., RNA
     ON2        P      ON2      CN9     9   180.000000     5.020800     1 ; dmp
     ON2        P      ON2      CN9     9   180.000000     0.418400     2 ; dmp
     ON2        P      ON2      CN9     9   180.000000     0.418400     3 ; dmp
     ON2        P      ON2      CN9     9     0.000000     0.000000     6 ; dmp
     ON2       P2      ON2      CN9     9   180.000000     5.020800     1 ; dmp, adm, 2011 DNA update
     ON2       P2      ON2      CN9     9   180.000000     0.418400     2 ; dmp, adm, 2011 DNA update
     ON2       P2      ON2      CN9     9   180.000000     0.418400     3 ; dmp, adm, 2011 DNA update
     ON2       P2      ON2      CN9     9     0.000000     0.000000     6 ; dmp, adm, 2011 DNA update
     ON3        P      ON2      CN7     9     0.000000     0.418400     3 ; dmp,eps, O1P-P-O3'-C3'
     ON3       P2      ON2      CN7     9     0.000000     0.418400     3 ; dmp,eps, O1P-P-O3'-C3', adm, 2011 DNA update
     ON3        P      ON2     CN7B     9     0.000000     0.418400     3 ; for NADPH and bkbmod
     ON3        P      ON2      CN8     9     0.000000     0.418400     3 ; dmp
     ON3       P2      ON2      CN8     9     0.000000     0.418400     3 ; dmp, adm	2011 DNA update
     ON3        P      ON2     CN8B     9     0.000000     0.418400     3 ; dmp,bet, O1P-P-O5'-C5'
     ON3       P2      ON2     CN8B     9     0.000000     0.418400     3 ; dmp,bet, O1P-P-O5'-C5', adm, 2011 DNA update
     ON3        P      ON2      CN9     9     0.000000     0.418400     3 ; dmp
     ON3       P2      ON2      CN9     9     0.000000     0.418400     3 ; dmp, adm, 2011 DNA update
     ON4        P      ON2      CN7     9     0.000000     3.974800     2 ; MP_1, adm jr.
     ON4        P      ON2      CN7     9     0.000000     2.092000     3 ; MP_1, adm jr.
     ON4       P2      ON2      CN7     9     0.000000     3.974800     2 ; MP_1, adm jr., adm, 2011 DNA update
     ON4       P2      ON2      CN7     9     0.000000     2.092000     3 ; MP_1, adm jr., adm, 2011 DNA update
     ON4        P      ON2      CN8     9     0.000000     3.974800     2 ; MP_1, adm jr.
     ON4        P      ON2      CN8     9     0.000000     2.092000     3 ; MP_1, adm jr.
     ON4        P      ON2     CN8B     9     0.000000     3.974800     2 ; MP_1, adm jr.
     ON4        P      ON2     CN8B     9     0.000000     2.092000     3 ; MP_1, adm jr.
     ON4       P2      ON2     CN8B     9     0.000000     3.974800     2 ; MP_1, adm jr., adm, 2011 DNA update
     ON4       P2      ON2     CN8B     9     0.000000     2.092000     3 ; MP_1, adm jr., adm, 2011 DNA update
     ON4        P      ON2      CN9     9     0.000000     3.974800     2 ; MP_1, adm jr.
     ON4        P      ON2      CN9     9     0.000000     2.092000     3 ; MP_1, adm jr.
     ON4       P2      ON2      CN9     9     0.000000     3.974800     2 ; MP_1, adm jr., adm, 2011 DNA update
     ON4       P2      ON2      CN9     9     0.000000     2.092000     3 ; MP_1, adm jr., adm, 2011 DNA update
       P      ON2      CN7      HN7     9     0.000000     0.000000     3 ; dmp,eps, H-C3'-O3'-P
      P2      ON2      CN7      HN7     9     0.000000     0.000000     3 ; dmp,eps, H-C3'-O3'-P, adm, 2011 DNA update
       P      ON2     CN7B      HN7     9     0.000000     0.000000     3 ; for NADPH and bkbmod
       P      ON2     CN8B      HN8     9     0.000000     0.000000     3 ; dmp,beta, H-C5'-O5'-P
      P2      ON2     CN8B      HN8     9     0.000000     0.000000     3 ; dmp,beta, H-C5'-O5'-P, adm, 2011 DNA update
       P      ON2      CN8      HN8     9     0.000000     0.000000     3 ; dmp
       P      ON2      CN9      HN9     9     0.000000     0.000000     3 ; dmp
      P2      ON2      CN9      HN9     9     0.000000     0.000000     3 ; dmp, adm, 2011 DNA update
     CN9      CN8      CN8      CN9     9     0.000000     0.627600     1 ; 
     CN9      CN8      CN8      CN8     9     0.000000     0.627600     1 ; 
    NN2B     CN1T     NN2U      CN1     9   180.000000     6.276000     2 ; adm jr. 11/97
    CN1T     NN2U      CN1      CN3     9   180.000000     6.276000     2 ; adm jr. 11/97
    NN2U      CN1      CN3      CN3     9   180.000000     6.276000     2 ; adm jr. 11/97
     CN1      CN3      CN3     NN2B     9   180.000000    25.104000     2 ; adm jr. 11/97
     CN3      CN3     NN2B     CN1T     9   180.000000     6.276000     2 ; adm jr. 11/97
     CN3     NN2B     CN1T     NN2U     9   180.000000     6.276000     2 ; adm jr. 11/97
     HN3      CN3      CN3      HN3     9   180.000000    12.552000     2 ; adm jr. 11/97
     HN3      CN3      CN1      ON1     9   180.000000    25.104000     2 ; adm jr. 11/97
     ON1     CN1T     NN2B      HN2     9   180.000000     0.000000     2 ; adm jr. 11/97
     ON1      CN1     NN2U      HN2     9   180.000000     0.000000     2 ; adm jr. 11/97
     ON1     CN1T     NN2U      HN2     9   180.000000     0.000000     2 ; adm jr. 11/97
     HN2     NN2B      CN3      HN3     9   180.000000     6.276000     2 ; adm jr. 11/97
    NN2B     CN1T     NN2U      HN2     9   180.000000    15.899200     2 ; adm jr. 11/97
     CN3      CN1     NN2U      HN2     9   180.000000    15.899200     2 ; adm jr. 11/97
     CN3      CN3     NN2B      HN2     9   180.000000     6.694400     2 ; adm jr. 11/97
    NN2U     CN1T     NN2B      HN2     9   180.000000     6.694400     2 ; adm jr. 11/97
    CN1T     NN2B      CN3     CN3T     9   180.000000     7.531200     2 ; adm jr. 11/97
    NN2U      CN1     CN3T      CN3     9   180.000000     7.531200     2 ; adm jr. 11/97
     CN1     CN3T      CN3     NN2B     9   180.000000    12.552000     2 ; adm jr. 11/97
    NN2B      CN1     CN3T      CN9     9   180.000000    23.430400     2 ; adm jr. 11/97
    NN2B      CN3     CN3T      CN9     9   180.000000    23.430400     2 ; adm jr. 11/97
     CN1     CN3T      CN9      HN9     9     0.000000     1.924640     3 ; adm jr. 11/97
     CN3     CN3T      CN9      HN9     9     0.000000     1.924640     3 ; adm jr. 11/97
    CN3T      CN1     NN2U      HN2     9   180.000000    20.083200     2 ; adm jr. 11/97
     CN3      NN2      CN1      NN3     9   180.000000     2.510400     2 ; adm jr. 11/97
     NN2      CN1      NN3      CN2     9   180.000000     2.510400     2 ; adm jr. 11/97
     CN1      NN3      CN2      CN3     9   180.000000    25.104000     2 ; adm jr. 11/97
     NN3      CN2      CN3      CN3     9   180.000000     2.510400     2 ; adm jr. 11/97
     CN2      CN3      CN3      NN2     9   180.000000    25.104000     2 ; adm jr. 11/97
     CN3      CN3      NN2      CN1     9   180.000000     2.510400     2 ; adm jr. 11/97
     NN3      CN2      NN1      HN1     9   180.000000     4.184000     2 ; adm jr. 11/97
     CN3      CN2      NN1      HN1     9   180.000000     4.184000     2 ; adm jr. 11/97
     NN1      CN2      NN3      CN1     9   180.000000     8.368000     2 ; adm jr. 11/97
     NN1      CN2      CN3      CN3     9   180.000000     8.368000     2 ; adm jr. 11/97
     NN1      CN2      CN3      HN3     9   180.000000     8.368000     2 ; adm jr. 11/97
    ON1C      CN1      NN2      HN2     9   180.000000    12.552000     2 ; adm jr. 11/97
    ON1C      CN1      NN3      CN2     9   180.000000     6.694400     2 ; adm jr. 11/97
    ON1C      CN1      NN2      CN3     9   180.000000     6.694400     2 ; adm jr. 11/97
     NN3      CN2      CN3      HN3     9   180.000000    14.225600     2 ; adm jr. 11/97
     NN2      CN3      CN3      HN3     9   180.000000    14.225600     2 ; adm jr. 11/97
     CN2      CN3      CN3      HN3     9   180.000000    19.246400     2 ; adm jr. 11/97
     CN1      NN2      CN3      HN3     9   180.000000    19.246400     2 ; adm jr. 11/97
     CN2     NN3A      CN4     NN3A     9   180.000000     7.531200     2 ; adm jr. 11/97, 6-mem
    NN3A      CN4     NN3A      CN5     9   180.000000     8.368000     2 ; 
     CN4     NN3A      CN5      CN5     9   180.000000     7.531200     2 ; 
    NN3A      CN5      CN5      CN2     9   180.000000     8.368000     2 ; treated 2x
     CN5      CN5      CN2     NN3A     9   180.000000     7.531200     2 ; 
     CN5      CN2     NN3A      CN4     9   180.000000    41.840000     2 ; 
     CN5      CN5      NN4      CN4     9   180.000000    25.104000     2 ; 5-mem
     CN5      NN4      CN4      NN2     9   180.000000    58.576000     2 ; 
     NN4      CN4      NN2      CN5     9   180.000000    25.104000     2 ; 
     CN4      NN2      CN5      CN5     9   180.000000    25.104000     2 ; 
     NN2      CN5      CN5      NN4     9   180.000000    58.576000     2 ; treated 2x
     CN2     NN3A      CN4      HN3     9   180.000000    35.564000     2 ; H2
     CN5     NN3A      CN4      HN3     9   180.000000    35.564000     2 ; H2
     CN5      NN4      CN4      HN3     9   180.000000    21.756800     2 ; H8
     CN5      NN2      CN4      HN3     9   180.000000    21.756800     2 ; H8
     CN5      CN5      NN2      HN2     9   180.000000     5.020800     2 ; H9
     NN4      CN4      NN2      HN2     9   180.000000     5.020800     2 ; H9
     HN2      NN2      CN4      HN3     9   180.000000     0.000000     2 ; H8-C-N-H9
     CN4     NN3A      CN2      NN1     9   180.000000    16.736000     2 ; N6
     CN5      CN5      CN2      NN1     9   180.000000    16.736000     2 ; N6
     NN4      CN5      CN2      NN1     9   180.000000     0.000000     2 ; N6
     CN5      CN2      NN1      HN1     9   180.000000     2.092000     2 ; 6-NH2
    NN3A      CN2      NN1      HN1     9   180.000000     2.092000     2 ; 
    NN3A      CN5      CN5      NN4     9   180.000000    29.288000     2 ; A, adm jr. 11/97
     CN2      CN5      CN5      NN2     9   180.000000    29.288000     2 ; A
    NN3A      CN2      CN5      NN4     9   180.000000     8.368000     2 ; A
     CN2      CN5      NN4      CN4     9   180.000000     8.368000     2 ; A
     CN4     NN3A      CN5      NN2     9   180.000000     8.368000     2 ; A
    NN3A      CN5      NN2      CN4     9   180.000000     8.368000     2 ; A
     CN1     NN2G      CN2     NN3G     9   180.000000     0.836800     2 ; adm jr. 11/97, 6-mem
    NN2G      CN2     NN3G      CN5     9   180.000000     8.368000     2 ; 
     CN2     NN3G      CN5     CN5G     9   180.000000     0.836800     2 ; 
    NN3G      CN5     CN5G      CN1     9   180.000000     8.368000     2 ; 
     CN5     CN5G      CN1     NN2G     9   180.000000     0.836800     2 ; 
    CN5G      CN1     NN2G      CN2     9   180.000000     0.836800     2 ; 
     CN5     CN5G      NN4      CN4     9   180.000000    25.104000     2 ; 5-mem
    CN5G      NN4      CN4     NN2B     9   180.000000    66.944000     2 ; 
     NN4      CN4     NN2B      CN5     9   180.000000    25.104000     2 ; 
     CN4     NN2B      CN5     CN5G     9   180.000000    25.104000     2 ; 
    NN2B      CN5     CN5G      NN4     9   180.000000    41.840000     2 ; 
     ON1      CN1     CN5G      CN5     9   180.000000    58.576000     2 ; G, O6
     ON1      CN1     CN5G      NN4     9   180.000000     0.000000     2 ; 
     ON1      CN1     NN2G      CN2     9   180.000000    58.576000     2 ; 
     ON1      CN1     NN2G      HN2     9   180.000000     0.000000     2 ; 
     NN1      CN2     NN2G      CN1     9   180.000000    16.736000     2 ; G, N2
     NN1      CN2     NN3G      CN5     9   180.000000    16.736000     2 ; 
     NN1      CN2     NN2G      HN2     9   180.000000     0.000000     2 ; 
    NN2G      CN2      NN1      HN1     9   180.000000     5.020800     2 ; 
    NN3G      CN2      NN1      HN1     9   180.000000     5.020800     2 ; 
     HN2     NN2G      CN1     CN5G     9   180.000000    15.062400     2 ; G, H1
     HN2     NN2G      CN2     NN3G     9   180.000000    15.062400     2 ; 
     HN3      CN4      NN4     CN5G     9   180.000000    23.430400     2 ; G, H8
     HN3      CN4     NN2B      CN5     9   180.000000    23.430400     2 ; 
     HN3      CN4     NN2B      HN2     9   180.000000     0.000000     2 ; 
     HN2     NN2B      CN5     CN5G     9   180.000000     5.020800     2 ; G, H9
     HN2     NN2B      CN5     NN3G     9   180.000000     5.020800     2 ; 
     HN2     NN2B      CN4      NN4     9   180.000000     5.020800     2 ; 
    NN3G      CN5     CN5G      NN4     9   180.000000    41.840000     2 ; adm jr. 11/97
     CN1     CN5G      CN5      NN2     9   180.000000    41.840000     2 ; 
    NN2G      CN1     CN5G      NN4     9   180.000000     8.368000     2 ; 
     CN1     CN5G      NN4      CN4     9   180.000000     8.368000     2 ; 
     CN2     NN3G      CN5     NN2B     9   180.000000     8.368000     2 ; 
    NN3G      CN5     NN2B      CN4     9   180.000000     8.368000     2 ; 
     CN1      NN2      CN9      HN9     9     0.000000     0.794960     3 ; 1-M-C
     CN3      NN2      CN9      HN9     9     0.000000     0.000000     3 ; 1-M-C
     CN4      NN2      CN9      HN9     9     0.000000     0.000000     3 ; 9-M-A
     CN5      NN2      CN9      HN9     9     0.000000     0.794960     3 ; 9-M-A
     CN1     NN2B      CN9      HN9     9     0.000000     0.794960     3 ; 1-M-U
    CN1T     NN2B      CN9      HN9     9     0.000000     0.794960     3 ; 1-M-T
     CN3     NN2B      CN9      HN9     9     0.000000     0.000000     3 ; 1-M-T/U
     CN4     NN2B      CN9      HN9     9     0.000000     0.000000     3 ; 9-M-G
     CN5     NN2B      CN9      HN9     9     0.000000     0.794960     3 ; 9-M-G
     CN4     NN2B      CN8      HN8     9     0.000000     0.000000     3 ; 9-E-G
     CN5     NN2B      CN8      HN8     9     0.000000     0.794960     3 ; 9-E-G
     CN4     NN2B      CN8      CN9     9     0.000000     0.000000     3 ; 9-E-G
     CN5     NN2B      CN8      CN9     9     0.000000     0.794960     3 ; 9-E-G
     HN7     CN7B     CN7B      ON2     9     0.000000     0.815880     3 ; for NADPH and bkbmod
     ON2     CN7B     CN7B      NN2     9     0.000000     0.000000     3 ; for NADPH and bkbmod
     CN7     CN7B      ON6      CN7     9   180.000000     2.510400     6 ; 
    CN7B      CN7      CN7      CN7     9     0.000000     1.673600     6 ; good for amplitudes
    CN7B      CN7      CN7      CN9     9     0.000000     1.673600     6 ; good for amplitudes, 5MET
     CN7      CN7      CN7      ON6     9     0.000000     2.510400     6 ; 
     CN7      CN7     CN7B      ON6     9     0.000000     2.510400     6 ; 
     ON2      CN7      CN7      CN7     9     0.000000     3.347200     6 ; 
     ON2      CN7      CN7      CN7     9     0.000000     1.673600     5 ; Moves the barrier right
     ON2      CN7      CN7      CN7     9   180.000000     8.368000     3 ; 
     ON2     CN7B      CN7      CN7     9     0.000000     3.347200     6 ; 
     ON2     CN7B      CN7      CN7     9     0.000000     1.673600     5 ; Moves the barrier right
     ON2     CN7B      CN7      CN7     9   180.000000     8.368000     3 ; 
     ON5      CN7      CN7      CN7     9     0.000000     3.347200     6 ; 
     ON5      CN7      CN7      CN7     9     0.000000     1.673600     5 ; Moves the barrier right
     ON5      CN7      CN7      CN7     9   180.000000     8.368000     3 ; 
     ON5      CN7      CN7      ON5     9     0.000000     0.000000     3 ; 
     ON5      CN7      CN7      ON2     9     0.000000     0.000000     3 ; 
     ON2      CN7     CN7B      ON6     9     0.000000     2.092000     6 ; good for amplitudes
     ON2      CN7     CN7B      ON6     9     0.000000     1.255200     5 ; impact on amplitudes
     ON2      CN7     CN7B      ON6     9   180.000000     2.510400     4 ; increases c2'endo
     ON2      CN7     CN7B      ON6     9     0.000000     0.836800     3 ; 
     CN7      CN7      CN7     CN8B     9   180.000000     2.092000     4 ; del lowers 180 deg.
    CN7B      NN2      CN4      HN3     9   180.000000     1.255200     2 ; NF
    CN7B      NN2      CN5      CN5     9   180.000000    46.024000     2 ; adm jr.
    CN7B      NN2      CN4      NN4     9   180.000000    46.024000     2 ; adm jr.
    CN7B      NN2      CN4     NN3A     9   180.000000    46.024000     2 ; adm jr.
     ON6     CN7B      NN2      CN5     9   180.000000     4.602400     1 ; 
     ON6     CN7B      NN2      CN4     9     0.000000     4.602400     1 ; NF
    ON6B     CN7B      NN2      CN5     9   180.000000     4.602400     1 ; 
    ON6B     CN7B      NN2      CN4     9     0.000000     4.602400     1 ; 
     CN8     CN7B      NN2      CN5     9     0.000000     1.255200     3 ; NF
     CN8     CN7B      NN2      CN4     9   180.000000     0.000000     3 ; NF
    CN7B     CN7B      NN2      CN5     9     0.000000     1.255200     3 ; NF
    CN7B     CN7B      NN2      CN4     9   180.000000     0.000000     3 ; NF
     HN7     CN7B      NN2      CN5     9     0.000000     0.000000     3 ; NF
     HN7     CN7B      NN2      CN4     9     0.000000     0.815880     3 ; NF
    CN7B      NN2      CN3      HN3     9   180.000000     1.255200     2 ; NF
    CN7B      NN2      CN1     ON1C     9   180.000000    46.024000     2 ; adm jr. from A
    CN7B      NN2      CN1      NN3     9   180.000000    46.024000     2 ; adm jr.
    CN7B      NN2      CN3      CN3     9   180.000000    46.024000     2 ; adm jr.
     ON6     CN7B      NN2      CN1     9     0.000000     0.000000     3 ; 
     ON6     CN7B      NN2      CN3     9     0.000000     4.184000     1 ; NF
    ON6B     CN7B      NN2      CN1     9     0.000000     0.000000     3 ; 
    ON6B     CN7B      NN2      CN3     9     0.000000     4.184000     1 ; 
     CN8     CN7B      NN2      CN1     9     0.000000     4.184000     3 ; 
     CN8     CN7B      NN2      CN3     9   180.000000     0.000000     3 ; NF 030697
    CN7B     CN7B      NN2      CN1     9     0.000000     4.184000     3 ; 
    CN7B     CN7B      NN2      CN3     9   180.000000     0.000000     3 ; 
     HN7     CN7B      NN2      CN1     9     0.000000     0.000000     3 ; NF
     HN7     CN7B      NN2      CN3     9     0.000000     0.815880     3 ; NF
    CN7B     NN2B      CN3      HN3     9   180.000000     1.255200     2 ; NF
    CN7B     NN2B     CN1T      ON1     9   180.000000    46.024000     2 ; adm jr. from A
    CN7B     NN2B     CN1T     NN2U     9   180.000000    46.024000     2 ; adm jr.
    CN7B     NN2B      CN3     CN3T     9   180.000000    46.024000     2 ; adm jr.
     ON6     CN7B     NN2B      CN1     9     0.000000     0.000000     3 ; 
     ON6     CN7B     NN2B     CN1T     9     0.000000     2.928800     3 ; 
     ON6     CN7B     NN2B     CN1T     9   180.000000     3.347200     1 ; 
     ON6     CN7B     NN2B      CN3     9     0.000000     3.765600     1 ; NF
    ON6B     CN7B     NN2B      CN1     9     0.000000     0.000000     3 ; 
    ON6B     CN7B     NN2B     CN1T     9     0.000000     2.928800     3 ; 
    ON6B     CN7B     NN2B     CN1T     9   180.000000     3.347200     1 ; 
    ON6B     CN7B     NN2B      CN3     9     0.000000     3.765600     1 ; 
     CN8     CN7B     NN2B     CN1T     9   180.000000     0.836800     3 ; 
     CN8     CN7B     NN2B      CN3     9   180.000000     0.000000     3 ; NF
    CN7B     CN7B     NN2B     CN1T     9   180.000000     0.836800     3 ; 
    CN7B     CN7B     NN2B      CN3     9   180.000000     0.000000     3 ; 
     HN7     CN7B     NN2B     CN1T     9     0.000000     0.000000     3 ; NF
     HN7     CN7B     NN2B      CN3     9     0.000000     0.815880     3 ; NF
    CN7B     NN2B      CN4      HN3     9   180.000000     1.255200     2 ; NF
    CN7B     NN2B      CN4      NN4     9   180.000000    46.024000     2 ; adm jr.
    CN7B     NN2B      CN5     CN5G     9   180.000000    46.024000     2 ; adm jr. from U
    CN7B     NN2B      CN5     NN3G     9   180.000000    46.024000     2 ; adm jr.
     ON6     CN7B     NN2B      CN5     9     0.000000     0.836800     3 ; 
     ON6     CN7B     NN2B      CN5     9   180.000000     4.602400     1 ; 
     ON6     CN7B     NN2B      CN4     9     0.000000     5.857600     1 ; NF
    ON6B     CN7B     NN2B      CN5     9     0.000000     0.836800     3 ; 
    ON6B     CN7B     NN2B      CN5     9   180.000000     4.602400     1 ; 
    ON6B     CN7B     NN2B      CN4     9     0.000000     5.857600     1 ; 
     CN8     CN7B     NN2B      CN5     9     0.000000     0.000000     3 ; NF
     CN8     CN7B     NN2B      CN4     9   180.000000     0.000000     3 ; NF 030697
    CN7B     CN7B     NN2B      CN5     9     0.000000     0.000000     3 ; NF
    CN7B     CN7B     NN2B      CN4     9   180.000000     0.000000     3 ; 
     HN7     CN7B     NN2B      CN5     9     0.000000     0.000000     3 ; NF
     HN7     CN7B     NN2B      CN4     9     0.000000     0.815880     3 ; NF
     CN7      ON6     CN7B      NN2     9     0.000000     0.000000     3 ; 
     CN7      ON6     CN7B     NN2B     9     0.000000     0.000000     3 ; 
     CN7     ON6B     CN7B      NN2     9     0.000000     0.000000     3 ; 
     CN7     ON6B     CN7B     NN2B     9     0.000000     0.000000     3 ; 
     CN7      CN8     CN7B      NN2     9     0.000000     0.000000     3 ; 
     CN7      CN8     CN7B     NN2B     9     0.000000     0.000000     3 ; 
     HN8      CN8     CN7B      NN2     9     0.000000     0.000000     3 ; 
     HN8      CN8     CN7B     NN2B     9     0.000000     0.000000     3 ; 
     CN7     CN7B     CN7B      NN2     9     0.000000     0.000000     3 ; 
     CN7     CN7B     CN7B     NN2B     9     0.000000     0.000000     3 ; 
     HN7     CN7B     CN7B      NN2     9     0.000000     0.000000     3 ; 
     HN7     CN7B     CN7B     NN2B     9     0.000000     0.000000     3 ; 
     CN7     CN8B      ON2        P     9   120.000000     0.836800     1 ; bet C4'-C5'-O5'-P, adm jr.
     CN7     CN8B      ON2       P2     9   120.000000     0.836800     1 ; bet C4'-C5'-O5'-P, adm jr., adm, 2011 DNA update
     CN7     CN8B      ON5      HN5     9     0.000000     5.564720     1 ; 
     CN7     CN8B      ON5      HN5     9     0.000000     0.753120     2 ; 
     CN7     CN8B      ON5      HN5     9     0.000000     1.338880     3 ; 
     HN8     CN8B      ON5      HN5     9     0.000000     0.000000     3 ; bet
     CN7      CN7     CN8B      ON2     9   180.000000     0.836800     4 ; gam adm jr.
     CN7      CN7     CN8B      ON2     9   180.000000     3.347200     3 ; gam C3'-C4'-C5'-O5'
     CN7      CN7     CN8B      ON2     9     0.000000     1.673600     2 ; gam
     CN7      CN7     CN8B      ON2     9   180.000000    10.460000     1 ; gam
     CN8      CN7     CN8B      ON2     9   180.000000     0.836800     3 ; from gam, carbocyclic and 25P1
     CN7      CN7     CN8B      ON5     9   180.000000     0.836800     4 ; gam adm jr.
     CN7      CN7     CN8B      ON5     9   180.000000     3.347200     3 ; gam C3'-C4'-C5'-O5'
     CN7      CN7     CN8B      ON5     9     0.000000     1.673600     2 ; gam
     CN7      CN7     CN8B      ON5     9   180.000000    10.460000     1 ; gam
     ON6      CN7     CN8B      ON2     9   180.000000    14.225600     1 ; gam O4'-C4'-C5'-O5',influences +60
    ON6B      CN7     CN8B      ON2     9   180.000000    14.225600     1 ; gam, RNA
     ON6      CN7     CN8B      ON5     9   180.000000    14.225600     1 ; gam
    ON6B      CN7     CN8B      ON5     9   180.000000    14.225600     1 ; gam, RNA
     HN8     CN8B      CN7      CN7     9     0.000000     0.815880     3 ; gam,H-C5'-C4'-H
     HN8     CN8B      CN7      CN8     9     0.000000     0.815880     1 ; gam, carbocylic, 25P1
     HN8     CN8B      CN7      ON6     9     0.000000     0.815880     1 ; gam,H-C5'-C4'-O4'
     HN8     CN8B      CN7     ON6B     9     0.000000     0.815880     1 ; gam, RNA
     HN7      CN7     CN8B      ON2     9     0.000000     0.815880     3 ; gam H-C4'-C5'-O5'
     HN7      CN7     CN8B      ON5     9     0.000000     0.815880     3 ; gam
     HN8      CN8      CN8      ON6     9     0.000000     0.815880     1 ; gam,H-C5'-C4'-O4'
     CN9      CN7      CN7     CN8B     9   180.000000     2.092000     4 ; cn8 -> cn9
     HN7      CN7      CN9      HN9     9     0.000000     0.815880     3 ; cn8 -> cn9
     CN7      CN7      CN9      HN9     9     0.000000     0.815880     3 ; cn8 -> cn9
     ON6      CN7      CN9      HN9     9     0.000000     0.815880     3 ; cn7 -> cn9
     HN7      CN7      CN7      CN9     9     0.000000     0.815880     3 ; cn8 -> cn9
     ON2      CN7      CN7      CN9     9     0.000000     0.836800     4 ; cn8b -> cn9
     ON2      CN7      CN7      CN9     9   180.000000     3.347200     3 ; cn8b -> cn9
     CN8      CN7      CN7      CN9     9   180.000000     2.092000     4 ; cn8b -> cn9
     CN8      CN7      CN7     CN8B     9   180.000000     2.092000     4 ; del lowers 180 deg.
    CN7B      CN7      CN7     CN8B     9   180.000000     0.836800     4 ; del, RNA
     ON2      CN7      CN7     CN8B     9     0.000000     0.836800     4 ; del
     ON2      CN7      CN7     CN8B     9   180.000000     3.347200     3 ; del,decreases P [100,250]
     ON5      CN7      CN7     CN8B     9     0.000000     0.836800     4 ; 
     ON5      CN7      CN7     CN8B     9   180.000000     3.347200     3 ; 
     ON2      CN7      CN7      ON6     9     0.000000     2.092000     6 ; del, good for amplitudes
     ON2      CN7      CN7      ON6     9     0.000000     1.255200     5 ; del, impact on amplitudes
     ON2      CN7      CN7      ON6     9   180.000000     2.510400     4 ; del, increases c2'endo
     ON2      CN7      CN7      ON6     9     0.000000     0.836800     3 ; 
     ON2      CN7      CN7     ON6B     9     0.000000     1.673600     6 ; del, RNA, good for amplitudes
     ON2      CN7      CN7     ON6B     9     0.000000     0.000000     5 ; del, RNA, impact on amplitudes
     ON2      CN7      CN7     ON6B     9   180.000000     0.000000     4 ; del, RNA, increases c2'endo
     ON2      CN7      CN7     ON6B     9     0.000000     6.694400     3 ; del, RNA, increases C2'endo
     ON2     CN7B     CN7B     ON6B     9     0.000000     1.673600     6 ; del, RNA, good for amplitudes
     ON2     CN7B     CN7B     ON6B     9     0.000000     0.000000     5 ; del, RNA, impact on amplitudes
     ON2     CN7B     CN7B     ON6B     9   180.000000     0.000000     4 ; del, RNA, increases c2'endo
     ON2     CN7B     CN7B     ON6B     9     0.000000     6.694400     3 ; del, RNA, increases C2'endo
     ON5      CN7      CN7      ON6     9     0.000000     2.092000     6 ; 
     ON5      CN7      CN7      ON6     9     0.000000     1.255200     5 ; 
     ON5      CN7      CN7      ON6     9   180.000000     2.510400     4 ; 
     ON5      CN7      CN7      ON6     9     0.000000     0.836800     3 ; 
     ON5      CN7      CN7     ON6B     9     0.000000     1.673600     6 ; RNA
     ON5      CN7      CN7     ON6B     9     0.000000     0.000000     5 ; RNA
     ON5      CN7      CN7     ON6B     9   180.000000     0.000000     4 ; RNA
     ON5      CN7      CN7     ON6B     9     0.000000     6.694400     3 ; RNA. increases c2'endo
    CN7B      ON6      CN7     CN8B     9     0.000000     3.347200     3 ; P [30,80]
    CN7B     ON6B      CN7     CN8B     9     0.000000     8.368000     3 ; To lower barrier in RNA
    CN7B     ON6B      CN7      CN9     9     0.000000     8.368000     3 ; To lower barrier in RNA, 5MET
     ON2      CN7      CN8     CN7B     9     0.000000     3.347200     6 ; 
     ON2      CN7      CN8     CN7B     9     0.000000     1.673600     5 ; Moves the barrier right
     ON2      CN7      CN8     CN7B     9   180.000000     8.368000     3 ; 
     ON2      CN7     CN7B     CN7B     9     0.000000     2.510400     6 ; RNA
     ON2      CN7     CN7B     CN7B     9     0.000000     0.000000     5 ; RNA c2/c3 endo in RNA
     ON2      CN7     CN7B     CN7B     9   180.000000     6.694400     3 ; 
     ON5      CN7      CN8     CN7B     9     0.000000     3.347200     6 ; 
     ON5      CN7      CN8     CN7B     9     0.000000     1.673600     5 ; 
     ON5      CN7      CN8     CN7B     9   180.000000     8.368000     3 ; 
     ON5      CN7     CN7B     CN7B     9     0.000000     2.510400     6 ; RNA, c2/c3 endo
     ON5      CN7     CN7B     CN7B     9     0.000000     0.000000     5 ; RNA
     ON5      CN7     CN7B     CN7B     9   180.000000     6.694400     3 ; RNA
     ON2      CN7      CN8      HN8     9     0.000000     0.815880     3 ; 
     ON5      CN7      CN8      HN8     9   180.000000     0.815880     3 ; 
     ON2      CN7     CN7B      HN7     9     0.000000     0.815880     3 ; RNA
     ON5      CN7     CN7B      HN7     9   180.000000     0.815880     3 ; RNA
     HN7      CN7      CN7      ON2     9     0.000000     0.815880     3 ; 
     HN7      CN7      CN7      ON5     9     0.000000     0.815880     3 ; 
     CN7      CN7      ON2       P2     9     0.000000     2.510400     5 ; eps, adm, 2011 DNA update
     CN7      CN7      ON2       P2     9     0.000000     0.836800     4 ; eps, locat of 200 mimima, adm, 2011 DNA update
     CN7      CN7      ON2       P2     9   180.000000     0.000000     3 ; eps, barE beteen minima, adm, 2011 DNA update
     CN7      CN7      ON2       P2     9     0.000000     1.673600     2 ; eps, relE of 200 vs 275 min, adm, 2011 DNA update
     CN7      CN7      ON2       P2     9   180.000000     7.949600     1 ; eps, adm, 2011 DNA update
     CN7      CN7      ON2        P     9     0.000000     2.510400     5 ; eps, RNA
     CN7      CN7      ON2        P     9     0.000000     0.836800     4 ; eps, locat of 200 mimima, RNA
     CN7      CN7      ON2        P     9   180.000000     0.000000     3 ; eps, barE beteen minima, RNA
     CN7      CN7      ON2        P     9     0.000000     1.673600     2 ; eps, relE of 200 vs 275 min, RNA
     CN7      CN7      ON2        P     9   180.000000     7.949600     1 ; eps, RNA
     CN8      CN7      ON2        P     9   180.000000    10.460000     1 ; 3-terminal phosphate
     CN8      CN7      ON2       P2     9   180.000000     7.949600     1 ; adm, 2011 DNA update new param, eps
    CN7B      CN7      ON2        P     9   180.000000    10.460000     1 ; eps, RNA
    CN7B     CN7B      ON2        P     9   180.000000    10.460000     1 ; eps, NADPH and bkbmod
     CN7     CN7B      ON2        P     9   180.000000    10.460000     1 ; eps, NADPH and bkbmod
     CN7      CN7      ON5      HN5     9     0.000000     2.092000     3 ; 
     CN7      CN7      ON5      HN5     9   180.000000     1.255200     2 ; 
     CN7      CN7      ON5      HN5     9     0.000000     6.276000     1 ; 
     CN8      CN7      ON5      HN5     9     0.000000     2.092000     3 ; 
     CN8      CN7      ON5      HN5     9   180.000000     4.184000     2 ; 
     CN8      CN7      ON5      HN5     9     0.000000     1.255200     1 ; 
    CN7B      CN7      ON5      HN5     9     0.000000     3.347200     3 ; RNA
    CN7B      CN7      ON5      HN5     9     0.000000     2.092000     1 ; RNA
     HN7      CN7      ON5      HN5     9     0.000000     0.000000     3 ; 
     HN7      CN7     CN8B      HN8     9     0.000000     0.815880     3 ; gam H-C4'-C5'-H
     HN7      CN7      CN7     CN8B     9     0.000000     0.815880     3 ; gam H-C3'-C4'-C5'
     CN8     CN7B      ON6      CN7     9   180.000000     2.510400     6 ; C2'-C1'-O4'-C4'
     CN8      CN7      CN7      ON6     9     0.000000     4.184000     4 ; adm, 2011 DNA update new param, C2'-C3'-C4'-O4'; lowers c3'endo
     CN8      CN7      CN7      ON6     9   180.000000     1.255200     5 ; adm, 2011 DNA update new param, C2'-C3'-C4'-O4'; position of minima
     CN8      CN7      CN7      ON6     9   180.000000     1.255200     6 ; adm, 2011 DNA update new param, C2'-C3'-C4'-O4'; position of minima
    CN7B     CN7B     ON6B      CN7     9     0.000000     0.000000     6 ; RNA, Lowers barrier
    CN7B      CN7      CN7     ON6B     9     0.000000     0.000000     3 ; RNA
     CN7      CN8     CN7B      ON6     9     0.000000     2.510400     6 ; C3'-C2'-C1'-O4', adjust barrier
     CN7     CN7B     CN7B     ON6B     9     0.000000     1.673600     6 ; RNA
    CN7B      CN8      CN7      CN7     9     0.000000     1.673600     6 ; good for amplitudes
    CN7B     CN7B      CN7      CN7     9     0.000000     0.000000     6 ; RNA
     CN7      CN7      ON6     CN7B     9   180.000000     2.510400     6 ; C3'-C4'-O4'-C1'
     CN7      CN7     ON6B     CN7B     9   180.000000     0.000000     6 ; RNA
     HN7      CN7      CN7      CN8     9     0.000000     0.000000     3 ; puc,H-C3'-C4'-C5'
     HN7      CN7      CN8     CN7B     9     0.000000     0.815880     3 ; H-C3'-C2'-C1'
     HN7     CN7B      CN8      CN7     9     0.000000     0.815880     3 ; H-C1'-C2'-C3'
     HN7      CN7      CN7      ON6     9   180.000000     0.815880     3 ; useful
     HN8      CN8     CN7B      ON6     9     0.000000     0.815880     3 ; H-C2'-C1'-O4'
     HN7      CN7      CN7      HN7     9     0.000000     0.815880     3 ; H-C4'-C3'-H
     HN7     CN7B      CN8      HN8     9     0.000000     0.815880     3 ; H-C1'-C2'-H
     HN7      CN7      CN8      HN8     9     0.000000     0.815880     3 ; H-C3'-C2'-H
     HN8      CN8      CN7      CN7     9     0.000000     0.815880     3 ; useful *cccc*
     HN7      CN7      ON6     CN7B     9     0.000000     0.815880     3 ; H-C3'-C2'-C1'
     HN7     CN7B      ON6      CN7     9     0.000000     0.000000     3 ; H-C1'-O4'-C4'
     HN7      CN7      CN7     ON6B     9   180.000000     0.815880     3 ; RNA
     HN9      CN9      CN7     ON6B     9   180.000000     0.815880     3 ; RNA, 5MET
     HN8      CN8     CN7B     ON6B     9     0.000000     0.815880     3 ; RNA
     HN7     CN7B     ON6B      CN7     9     0.000000     0.000000     3 ; RNA
     HN7      CN7     ON6B     CN7B     9     0.000000     0.815880     3 ; RNA
     HN7      CN7     CN7B     CN7B     9     0.000000     0.815880     3 ; RNA, H-C3'-C2'-C1'
     HN7     CN7B     CN7B      CN7     9     0.000000     0.815880     3 ; RNA, H-C1'-C2'-C3'
     HN7     CN7B     CN7B     ON6B     9     0.000000     0.815880     3 ; RNA, H-C2'-C1'-O4'
     NN2     CN7B     CN7B      ON5     9     0.000000     0.000000     3 ; Adenine and cytosine
    NN2B     CN7B     CN7B      ON5     9     0.000000     0.000000     3 ; Guanine and uracil
     ON5     CN7B     CN7B      HN7     9     0.000000     0.000000     3 ; 
     HN7     CN7B     CN7B      HN7     9     0.000000     0.000000     3 ; 
     CN7      CN7     CN7B      ON5     9     0.000000     0.000000     3 ; 
    ON6B     CN7B     CN7B      ON5     9     0.000000     0.000000     3 ; 
     ON5     CN7B      CN7      ON2     9     0.000000     0.000000     3 ; 
     ON5      CN7     CN7B      ON2     9     0.000000     0.000000     3 ; 
     ON5     CN7B      CN7      ON5     9     0.000000     0.000000     3 ; 
     HN7     CN7B      ON5      HN5     9     0.000000     0.000000     3 ; 
     HN5      ON5     CN7B     CN7B     9   180.000000     0.000000     6 ; ejd, 2010 RNA update
     HN5      ON5     CN7B     CN7B     9     0.000000     1.673600     3 ; shifts min, ejd, 2010 RNA update
     HN5      ON5     CN7B     CN7B     9     0.000000     1.673600     2 ; ejd, 2010 RNA update
     HN5      ON5     CN7B     CN7B     9     0.000000     3.347200     1 ; height of right barrier and can shift min, ejd, 2010 RNA update
     HN5      ON5     CN7B      CN7     9     0.000000     0.836800     3 ; ejd, 2010 RNA update
     HN5      ON5     CN7B      CN7     9   180.000000     0.000000     2 ; ejd, 2010 RNA update
     HN5      ON5     CN7B      CN7     9     0.000000     8.368000     1 ; height of left side barrier, ejd, 2010 RNA update
    CN7B      ON6      CN7      CN9     9     0.000000     0.000000     3 ; added for sugar model compounds
     HN7      CN7     CN7B      ON5     9     0.000000     0.815880     3 ; for nadp/nadph (NOT!), adm jr.
     HN7     CN7B      CN7      CN7     9     0.000000     0.815880     3 ; for nadp/nadph (NOT!), adm jr.
     HN7      CN7      CN7     CN7B     9     0.000000     0.815880     3 ; for nadp/nadph (NOT!), adm jr.
     HN7      CN7     CN7B      HN7     9     0.000000     0.815880     3 ; for nadp/nadph (NOT!), adm jr.
      P3      ON2        P      ON2     9     0.000000     0.125520     2 ; nad/ppi, jjp1/adm jr. 7/95
      P3      ON2        P      ON2     9     0.000000     0.125520     3 ; nad/ppi, jjp1/adm jr. 7/95
       P      ON2       P3      ON2     9     0.000000     0.125520     2 ; nad/ppi, jjp1/adm jr. 7/95
       P      ON2       P3      ON2     9     0.000000     0.125520     3 ; nad/ppi, jjp1/adm jr. 7/95
      P3      ON2       P3      ON2     9     0.000000     0.125520     2 ; nad/ppi, jjp1/adm jr. 7/95
      P3      ON2       P3      ON2     9     0.000000     0.125520     3 ; nad/ppi, jjp1/adm jr. 7/95
       P      ON2        P      ON2     9     0.000000     0.125520     2 ; nad/ppi, jjp1/adm jr. 7/95
       P      ON2        P      ON2     9     0.000000     0.125520     3 ; nad/ppi, jjp1/adm jr. 7/95
       P      ON2        P      ON3     9     0.000000     0.418400     2 ; nad/ppi, jjp1/adm jr. 7/95
       P      ON2        P      ON3     9     0.000000     0.125520     3 ; nad/ppi, jjp1/adm jr. 7/95
       P      ON2       P3      ON3     9     0.000000     0.418400     2 ; nad/ppi, jjp1/adm jr. 7/95
       P      ON2       P3      ON3     9     0.000000     0.125520     3 ; nad/ppi, jjp1/adm jr. 7/95
      P3      ON2        P      ON3     9     0.000000     0.418400     2 ; nad/ppi, jjp1/adm jr. 7/95
      P3      ON2        P      ON3     9     0.000000     0.125520     3 ; nad/ppi, jjp1/adm jr. 7/95
      P3      ON2       P3      ON3     9     0.000000     0.418400     2 ; nad/ppi, jjp1/adm jr. 7/95
      P3      ON2       P3      ON3     9     0.000000     0.125520     3 ; nad/ppi, jjp1/adm jr. 7/95
       P      ON2       P4      ON2     9     0.000000     0.125520     2 ; from P ON2 P2 ON2, adm jr. 7/01
       P      ON2       P4      ON2     9     0.000000     0.125520     3 ; from P ON2 P2 ON2, adm jr. 7/01
      P4      ON2        P      ON2     9     0.000000     0.125520     2 ; from P ON2 P2 ON2, adm jr. 7/01
      P4      ON2        P      ON2     9     0.000000     0.125520     3 ; from P ON2 P2 ON2, adm jr. 7/01
       P      ON2       P4      ON3     9     0.000000     0.418400     2 ; from P ON2 P2 ON3, adm jr. 7/01
       P      ON2       P4      ON3     9     0.000000     0.125520     3 ; from P ON2 P2 ON3, adm jr. 7/01
      P4      ON2        P      ON3     9     0.000000     0.418400     2 ; from P ON2 P2 ON3, adm jr. 7/01
      P4      ON2        P      ON3     9     0.000000     0.125520     3 ; from P ON2 P2 ON3, adm jr. 7/01
       P      ON2       P4      ON4     9     0.000000     0.418400     2 ; from P ON2 P2 ON4, adm jr. 7/01
       P      ON2       P4      ON4     9     0.000000     0.125520     3 ; from P ON2 P2 ON4, adm jr. 7/01

; specific (non-wildcard) dihedral parameters from toppar_c36_jul22/par_all36m_prot.prm
;      i        j        k        l  func         phi0         kphi  mult
     NH2      CT1        C        O     9     0.000000     0.000000     1 ; 
     NH2      CT2        C        O     9     0.000000     0.000000     1 ; Neutral Gly Nterminus
     NH2      CT1        C      NH1     9     0.000000     0.000000     1 ; 
     NH2      CT2        C      NH1     9     0.000000     0.000000     1 ; Neutral Gly Nterminus
     NH2      CT2        C        N     9     0.000000     0.000000     1 ; NNEU
     NH2      CT1     CT2A      HA2     9     0.000000     0.836800     3 ; From X    CT1  CT2  X
       H      NH2      CT1      CT1     9     0.000000     0.000000     1 ; 
       H      NH2      CT1        C     9     0.000000     0.000000     1 ; 
       H      NH2      CT1       CC     9     0.000000     0.000000     1 ; From neutral N-termini
       H      NH2      CT1       CD     9     0.000000     0.000000     1 ; 
       H      NH2      CT2        C     9     0.000000     0.000000     1 ; Neutral Gly Nterminus
       H      NH2      CT2       CD     9     0.000000     0.000000     1 ; Neutral Gly Nterminus
       H      NH2      CT1      HB1     9     0.000000     0.460240     3 ; From LSN HC-NH2-CT2-HA
       H      NH2      CT2      HB2     9     0.000000     0.460240     3 ; From LSN HC-NH2-CT2-HA, Neutral Gly Nterminus
       H      NH2      CT1      CT2     9     0.000000     0.460240     3 ; From LSN HC-NH2-CT2-CT2
       H      NH2      CT1     CT2A     9     0.000000     0.460240     3 ; From LSN HC-NH2-CT2-CT2
       H      NH2      CT1      CT3     9     0.000000     0.460240     3 ; From LSN HC-NH2-CT2-CT2
      CC     CT2A      CT1      NH2     9   180.000000     2.845120     1 ; From CC   CT2A CT1  NH1
      CC     CT2A      CT1      NH2     9   180.000000     0.418400     2 ; 
      CC     CT2A      CT1      NH2     9     0.000000     1.589920     3 ; 
      CD      CT1     CT2A       CC     9   180.000000     6.736240     1 ; From C    CT1  CT2A CC
      CD      CT1     CT2A       CC     9   180.000000     5.397360     2 ; 
      CD      CT1     CT2A       CC     9   180.000000     2.468560     3 ; 
     CAI       CA       CA      CAI     9   180.000000    12.970400     2 ; from CA CA CA CA
      CA      CPT      CPT       CA     9   180.000000    12.552000     2 ; atm, methylindole, 1/17/04
     CAI      CPT      CPT      CAI     9   180.000000    12.552000     2 ; atm, methylindole, 1/17/04
      CA       CY      CPT       CA     9   180.000000    12.552000     2 ; atm, methylindole, 1/17/04
      CA       CY      CPT      CAI     9   180.000000    12.552000     2 ; atm, methylindole, 1/17/04
      CA       NY      CPT       CA     9   180.000000    12.552000     2 ; atm, methylindole, 1/17/04
     CPT       CA       CA       CA     9   180.000000    12.552000     2 ; JWK 05/14/91 fit to indole
     CPT      CPT       CA       CA     9   180.000000    12.552000     2 ; JWK 05/14/91 fit to indole
      CA       NY      CPT      CAI     9   180.000000    12.552000     2 ; atm, methylindole, 1/17/04
     CPT      CAI       CA       CA     9   180.000000    12.552000     2 ; JWK 05/14/91 fit to indole
     CPT      CPT      CAI       CA     9   180.000000    12.552000     2 ; JWK 05/14/91 fit to indole
     CPT      CPT       CY       CA     9   180.000000    20.920000     2 ; atm, methylindole, 1/17/04
     CPT      CPT       NY       CA     9   180.000000    27.196000     2 ; atm, methylindole, 1/17/04
     CT3       CY      CPT       CA     9   180.000000    10.460000     2 ; atm, methylindole, r6r5
     CT3       CY      CPT      CAI     9   180.000000    10.460000     2 ; atm, methylindole, r6r5
     CT3       CY      CPT      CPT     9   180.000000    12.552000     2 ; atm, methylindole, meth
     CT2       CY      CPT       CA     9   180.000000    10.460000     2 ; atm, methylindole, r6r5
     CT2       CY      CPT      CAI     9   180.000000    10.460000     2 ; atm, methylindole, r6r5
     CT2       CY      CPT      CPT     9   180.000000    12.552000     2 ; atm, methylindole, meth
      CY       CA       NY      CPT     9   180.000000    25.104000     2 ; atm, methylindole, 1/17/04
      CY      CPT       CA       CA     9   180.000000    16.736000     2 ; atm, methylindole, 1/17/04
      CY      CPT      CPT       CA     9   180.000000    16.736000     2 ; atm, methylindole, 1/17/04
      CY      CPT      CAI       CA     9   180.000000    16.736000     2 ; atm, methylindole, 1/17/04
      CY      CPT      CPT      CAI     9   180.000000    16.736000     2 ; atm, methylindole, 1/17/04
       H       NY       CA       CY     9   180.000000     0.209200     2 ; atm, methylindole, 1/17/04
       H       NY      CPT       CA     9   180.000000     0.836800     2 ; atm, methylindole, 1/17/04
       H       NY      CPT      CAI     9   180.000000     0.836800     2 ; atm, methylindole, 1/17/04
       H       NY      CPT      CPT     9   180.000000     3.556400     2 ; atm, methylindole, 1/17/04
      HP      CAI       CA       CA     9   180.000000    17.572800     2 ; from HP CA CA CA
      HP       CA       CA      CPT     9   180.000000    12.552000     2 ; JWK 05/14/91 fit to indole
      HP       CA      CPT      CPT     9   180.000000    12.552000     2 ; JWK indole 05/14/91
      HP       CA      CPT       CY     9   180.000000    16.736000     2 ; atm, methylindole, 1/17/04
      HP       CA       CA      CAI     9   180.000000    17.572800     2 ; from HP CA CA CA
      HP       CA      CAI      CPT     9   180.000000    12.552000     2 ; from HP CA CA CPT
      HP      CAI       CA       HP     9   180.000000    10.041600     2 ; from HP CA CA HP
      HP      CAI      CPT      CPT     9   180.000000    12.552000     2 ; from HP CA CPT CPT
      HP      CAI      CPT       CY     9   180.000000    16.736000     2 ; from HP CA CPT CY, r6r5
      HP       CA       CY      CPT     9   180.000000    11.715200     2 ; adm jr., 12/30/91, for jwk
      HP       CA       CY      CT3     9   180.000000     5.020800     2 ; atm, methylindole
      HP       CA       CY      CT2     9   180.000000     5.020800     2 ; atm, methylindole
      HP       CA       NY      CPT     9   180.000000    10.878400     2 ; adm jr., 12/30/91, for jwk
      HP       CA       NY        H     9   180.000000     1.673600     2 ; JWK 05/14/91 fit to indole
      HP       CY       CA       HP     9   180.000000     4.184000     2 ; JWK 05/14/91 fit to indole
      HP       CY      CPT       CA     9   180.000000    11.715200     2 ; JWK 05/14/91 fit to indole
      HP       CY      CPT      CAI     9   180.000000    11.715200     2 ; JWK 05/14/91 fit to indole
      HP       CY      CPT      CPT     9   180.000000    10.878400     2 ; JWK 05/14/91 fit to indole
      NY       CA       CY      CPT     9   180.000000    20.920000     2 ; atm, methylindole, 1/17/04
      NY       CA       CY      CT3     9   180.000000    10.460000     2 ; atm, methylindole, from NY   CA   CY   CT3
      NY       CA       CY      CT2     9   180.000000    10.460000     2 ; atm, methylindole, from NY   CA   CY   CT3
      NY       CA       CY       HP     9   180.000000    14.644000     2 ; JWK indole 05/14/91
      NY      CPT       CA       CA     9   180.000000    12.552000     2 ; atm, methylindole, 1/17/04, r6r5
      NY      CPT       CA       HP     9   180.000000    12.552000     2 ; JWK 05/14/91 fit to indole, r6r5
      NY      CPT      CPT       CA     9   180.000000    16.736000     2 ; atm, methylindole, 1/17/04, bfly
      NY      CPT      CAI       CA     9   180.000000    12.552000     2 ; atm, methylindole, 1/17/04
      NY      CPT      CAI       HP     9   180.000000    12.552000     2 ; JWK 05/14/91 fit to indole, r6r5
      NY      CPT      CPT      CAI     9   180.000000    16.736000     2 ; atm, methylindole, 1/17/04, bfly
      NY      CPT      CPT       CY     9   180.000000    27.196000     2 ; JWK 05/14/91 fit to indole,  r5 t1
     CT3      CT2       CY       CA     9     0.000000     1.589920     2 ; trp, from ethylbenzene, adm jr., 3/7/92
     CT3      CT2       CY      CPT     9   180.000000     1.046000     2 ; atm 1/14/04 3-ethylindole
     CT3      CT2       CY      CPT     9     0.000000     1.255200     3 ; atm 1/14/04 3-ethylindole
     HA3      CT3       CY       CA     9     0.000000     0.041840     3 ; atm, methylindole, 1/17/04
     HA3      CT3       CY      CPT     9     0.000000     0.836800     3 ; atm, methylindole, 1/17/04
     HA2      CT2       CY       CA     9     0.000000     0.041840     3 ; atm, methylindole, 1/17/04
     HA2      CT2       CY      CPT     9     0.000000     0.836800     3 ; atm, methylindole, 1/17/04
       C      CT1      NH1        C     9   180.000000     0.836800     1 ; ALLOW PEP
       C      CT2      NH1        C     9   180.000000     0.836800     1 ; ALLOW PEP
       C        N      CP1        C     9     0.000000     3.347200     3 ; ALLOW PRO PEP
      CA       CA       CA       CA     9   180.000000    12.970400     2 ; ALLOW   ARO
      CC      CP1        N        C     9     0.000000     3.347200     3 ; ALLOW PRO PEP
      CC      CT1      CT2       CA     9     0.000000     0.167360     3 ; ALLOW   ARO
      CC      CT1      NH1        C     9   180.000000     0.836800     1 ; ALLOW PEP POL
      CC      CT2      NH1        C     9   180.000000     8.368000     1 ; ALLOW PEP POL
      CD      CP1        N        C     9   180.000000     0.000000     1 ; ALLOW PRO PEP
      CD      CT1      NH1        C     9   180.000000     0.836800     1 ; ALLOW PEP POL
      CD      CT2      NH1        C     9   180.000000     8.368000     1 ; ALLOW PEP POL
     CE1      CE1      CT3      HA3     9     0.000000     0.125520     3 ; 
     CE2      CE1      CT2      CT3     9   180.000000     2.092000     1 ; 
     CE2      CE1      CT2      CT3     9   180.000000     5.439200     3 ; 
     CE2      CE1      CT2      HA2     9     0.000000     0.502080     3 ; 
     CE2      CE1      CT3      HA3     9   180.000000     0.209200     3 ; 
     CP1        C        N      CP1     9   180.000000    11.506000     2 ; ALLOW PRO
     CP1        C        N      CP1     9     0.000000     1.255200     4 ; ALLOW PRO
     CP2      CP1        N        C     9     0.000000     3.347200     3 ; ALLOW PRO PEP
     CP2      CP3        N        C     9   180.000000     0.000000     3 ; ALLOW PRO PEP
     CP2      CP3        N      CP1     9     0.000000     0.418400     3 ; ALLOW PRO
     CP2      CP3       NP      CP1     9     0.000000     0.334720     3 ; ALLOW PRO
     CP3        N        C      CP1     9   180.000000    11.506000     2 ; ALLOW PRO
     CP3        N        C      CP1     9     0.000000     1.255200     4 ; ALLOW PRO
     CP3        N      CP1        C     9     0.000000     0.418400     3 ; ALLOW PRO
     CP3        N      CP1       CC     9     0.000000     0.418400     3 ; ALLOW PRO
     CP3        N      CP1      CP2     9     0.000000     0.418400     3 ; ALLOW PRO
     CP3       NP      CP1        C     9     0.000000     0.334720     3 ; ALLOW PRO
     CP3       NP      CP1       CC     9     0.000000     0.334720     3 ; ALLOW PRO
     CP3       NP      CP1       CD     9     0.000000     0.334720     3 ; ALLOW PRO PEP
     CP3       NP      CP1      CP2     9     0.000000     0.334720     3 ; ALLOW PRO
    CPH2      NR1     CPH1     CPH1     9   180.000000    58.576000     2 ; ALLOW ARO
    CPH2      NR2     CPH1     CPH1     9   180.000000    58.576000     2 ; ALLOW ARO
    CPH2      NR3     CPH1     CPH1     9   180.000000    50.208000     2 ; ALLOW ARO
     CT1        C        N      CP1     9   180.000000    11.506000     2 ; ALLOW PRO
     CT1        C        N      CP1     9     0.000000     1.255200     4 ; ALLOW PRO
     CT1        C        N      CP3     9   180.000000    11.506000     2 ; ALLOW PRO
     CT1        C        N      CP3     9     0.000000     1.255200     4 ; ALLOW PRO
     CT1        C      NH1      CT1     9     0.000000     6.694400     1 ; ALLOW PEP
     CT1        C      NH1      CT1     9   180.000000    10.460000     2 ; ALLOW PEP
     CT1      CT1      NH1        C     9     0.000000     7.531200     1 ; ALLOW PEP
     CT1      NH1        C      CP1     9     0.000000     6.694400     1 ; ALLOW PEP PRO
     CT1      NH1        C      CP1     9   180.000000    10.460000     2 ; ALLOW PEP PRO
     CT2        C        N      CP1     9   180.000000    11.506000     2 ; ALLOW PRO
     CT2        C        N      CP1     9     0.000000     1.255200     4 ; ALLOW PRO
     CT2        C        N      CP3     9   180.000000    11.506000     2 ; ALLOW PRO
     CT2        C        N      CP3     9     0.000000     1.255200     4 ; ALLOW PRO
     CT2        C      NH1      CT1     9     0.000000     6.694400     1 ; ALLOW PEP
     CT2        C      NH1      CT1     9   180.000000    10.460000     2 ; ALLOW PEP
     CT2        C      NH1      CT2     9     0.000000     6.694400     1 ; ALLOW PEP
     CT2        C      NH1      CT2     9   180.000000    10.460000     2 ; ALLOW PEP
     CT2        C      NH1      CT3     9     0.000000     6.694400     1 ; ALLOW PEP
     CT2        C      NH1      CT3     9   180.000000    10.460000     2 ; ALLOW PEP
     CT2       CA       CA       CA     9   180.000000    12.970400     2 ; ALLOW   ARO
     CT2     CPH1      NR1     CPH2     9   180.000000    12.552000     2 ; ALLOW ARO
     CT2     CPH1      NR2     CPH2     9   180.000000    12.552000     2 ; ALLOW ARO
     CT2     CPH1      NR3     CPH2     9   180.000000    10.460000     2 ; ALLOW ARO
     CT2      CT1      NH1        C     9     0.000000     7.531200     1 ; ALLOW PEP
     CT2      CT2     CPH1     CPH1     9     0.000000     1.673600     1 ; ALLOW ARO
     CT2      CT2      CT2      CT2     9   180.000000     0.418400     2 ; alkane, 4/98, adm jr.
     CT2      CT2      CT2      CT2     9     0.000000     0.627600     4 ; alkane, 4/98, adm jr.
     CT2      CT2      CT2      CT2     9   180.000000     0.418400     6 ; alkane, 4/98, adm jr.
     CT2      CT2      CT2      CT3     9   180.000000     0.418400     2 ; alkane, 4/98, adm jr.
     CT2      CT2      CT2      CT3     9     0.000000     0.627600     4 ; alkane, 4/98, adm jr.
     CT2      CT2      CT2      CT3     9   180.000000     0.418400     6 ; alkane, 4/98, adm jr.
     CT2      CT2      NH1        C     9     0.000000     7.531200     1 ; ALLOW PEP
     CT2      NH1        C      CP1     9     0.000000     6.694400     1 ; ALLOW PEP PRO
     CT2      NH1        C      CP1     9   180.000000    10.460000     2 ; ALLOW PEP PRO
     CT2      NH1        C      CT1     9     0.000000     6.694400     1 ; ALLOW PEP
     CT2      NH1        C      CT1     9   180.000000    10.460000     2 ; ALLOW PEP
     CT2       SM       SM      CT2     9     0.000000     4.184000     1 ; ALLOW   ALI SUL ION
     CT2       SM       SM      CT2     9     0.000000    17.154400     2 ; ALLOW   ALI SUL ION
     CT2       SM       SM      CT2     9     0.000000     3.765600     3 ; ALLOW   ALI SUL ION
     CT3        C        N      CP1     9   180.000000    11.506000     2 ; ALLOW PRO
     CT3        C        N      CP1     9     0.000000     1.255200     4 ; ALLOW PRO
     CT3        C        N      CP3     9   180.000000    11.506000     2 ; ALLOW PRO
     CT3        C        N      CP3     9     0.000000     1.255200     4 ; ALLOW PRO
     CT3        C      NH1      CT1     9     0.000000     6.694400     1 ; ALLOW PEP
     CT3        C      NH1      CT1     9   180.000000    10.460000     2 ; ALLOW PEP
     CT3        C      NH1      CT2     9     0.000000     6.694400     1 ; ALLOW PEP
     CT3        C      NH1      CT2     9   180.000000    10.460000     2 ; ALLOW PEP
     CT3        C      NH1      CT3     9     0.000000     6.694400     1 ; ALLOW PEP
     CT3        C      NH1      CT3     9   180.000000    10.460000     2 ; ALLOW PEP
     CT3       CA       CA       CA     9   180.000000    12.970400     2 ; ALLOW   ARO
     CT3      CE1      CE2      HE2     9   180.000000    21.756800     2 ; 
     CT3     CPH1      NR1     CPH2     9   180.000000    12.552000     2 ; ALLOW ARO
     CT3      CT1      NH1        C     9     0.000000     7.531200     1 ; ALLOW PEP
     CT3      CT2       CA       CA     9   180.000000     0.962320     2 ; ALLOW   ARO ALI
     CT3      CT2     CPH1     CPH1     9     0.000000     0.836800     1 ; ALLOW ARO
     CT3      CT2     CPH1     CPH1     9     0.000000     1.129680     2 ; ALLOW ARO
     CT3      CT2     CPH1     CPH1     9     0.000000     0.000000     3 ; ALLOW ARO
     CT3      CT2        S      CT3     9   180.000000     1.004160     1 ; ALOW    ALI SUL ION
     CT3      CT2        S      CT3     9     0.000000     1.548080     3 ; ALOW    ALI SUL ION
     CT3      NH1        C      CP1     9     0.000000     6.694400     1 ; ALLOW PEP PRO
     CT3      NH1        C      CP1     9   180.000000    10.460000     2 ; ALLOW PEP PRO
     CT3      NH1        C      CT1     9     0.000000     6.694400     1 ; ALLOW PEP
     CT3      NH1        C      CT1     9   180.000000    10.460000     2 ; ALLOW PEP
     CT3        S      CT2      CT2     9   180.000000     1.004160     1 ; ALOW    ALI SUL ION
     CT3        S      CT2      CT2     9     0.000000     1.548080     3 ; ALOW    ALI SUL ION
     CT3       SM       SM      CT3     9     0.000000     4.184000     1 ; ALLOW   ALI SUL ION
     CT3       SM       SM      CT3     9     0.000000    17.154400     2 ; ALLOW   ALI SUL ION
     CT3       SM       SM      CT3     9     0.000000     3.765600     3 ; ALLOW   ALI SUL ION
       H      NH1        C      CP1     9   180.000000    10.460000     2 ; ALLOW PEP PRO
       H      NH1        C      CT1     9   180.000000    10.460000     2 ; ALLOW PEP
       H      NH1        C      CT2     9   180.000000    10.460000     2 ; ALLOW PEP
       H      NH1        C      CT3     9   180.000000    10.460000     2 ; ALLOW PEP
       H      NH1      CT1        C     9     0.000000     0.000000     1 ; ALLOW PEP
       H      NH1      CT1       CC     9     0.000000     0.000000     1 ; ALLOW PEP POL
       H      NH1      CT1       CD     9     0.000000     0.000000     1 ; ALLOW PEP POL
       H      NH1      CT1      CT1     9     0.000000     0.000000     1 ; ALLOW PEP
       H      NH1      CT1      CT2     9     0.000000     0.000000     1 ; ALLOW PEP
       H      NH1      CT1      CT3     9     0.000000     0.000000     1 ; ALLOW PEP
       H      NH1      CT2        C     9     0.000000     0.000000     1 ; ALLOW PEP
       H      NH1      CT2       CC     9     0.000000     0.000000     1 ; ALLOW PEP POL
       H      NH1      CT2       CD     9     0.000000     0.000000     1 ; ALLOW PEP POL
       H      NH1      CT2      CT2     9     0.000000     0.000000     1 ; ALLOW PEP
       H      NH1      CT2      CT3     9     0.000000     0.000000     1 ; ALLOW PEP
       H      NH2       CC      CT1     9   180.000000     5.857600     2 ; ALLOW   PEP POL ARO PRO
       H      NH2       CC      CT2     9   180.000000     5.857600     2 ; ALLOW   PEP POL ARO PRO
       H      NH2       CC      CT3     9   180.000000     5.857600     2 ; ALLOW   PEP POL ARO PRO
       H      NH2       CC      CP1     9   180.000000    10.460000     2 ; ALLOW PEP POL ARO PRO
       H      NR1     CPH1     CPH1     9   180.000000     4.184000     2 ; ALLOW ARO
       H      NR1     CPH1      CT2     9   180.000000     4.184000     2 ; ALLOW ARO
       H      NR1     CPH1      CT3     9   180.000000     4.184000     2 ; ALLOW ARO
       H      NR3     CPH1     CPH1     9   180.000000     5.857600     2 ; ALLOW ARO
       H      NR3     CPH1      CT2     9   180.000000    12.552000     2 ; ALLOW ARO
       H      NR3     CPH1      CT3     9   180.000000    12.552000     2 ; ALLOW ARO
       H      OH1       CA       CA     9   180.000000     4.142160     2 ; ALLOW   ARO ALC
       H      OH1      CT1      CT3     9     0.000000     5.564720     1 ; ALLOW ALC
       H      OH1      CT1      CT3     9     0.000000     0.753120     2 ; ALLOW ALC
       H      OH1      CT1      CT3     9     0.000000     1.338880     3 ; ALLOW ALC
       H      OH1      CT2      CT2     9     0.000000     5.439200     1 ; ALLOW ALC
       H      OH1      CT2      CT2     9     0.000000     1.255200     2 ; ALLOW ALC
       H      OH1      CT2      CT2     9     0.000000     1.757280     3 ; ALLOW ALC
       H      OH1      CT2      CT3     9     0.000000     5.439200     1 ; ALLOW ALC
       H      OH1      CT2      CT3     9     0.000000     1.255200     2 ; ALLOW ALC
       H      OH1      CT2      CT3     9     0.000000     1.757280     3 ; ALLOW ALC
     HA1       CC      NH2        H     9   180.000000     5.857600     2 ; ALLOW PEP POL
     HA2      CP3        N        C     9   180.000000     0.000000     3 ; ALLOW PRO PEP
     HA2      CP3        N      CP1     9     0.000000     0.418400     3 ; ALLOW PRO
     HA2      CP3       NP      CP1     9     0.000000     0.334720     3 ; ALLOW PRO
     HA1      CT1      CT2       CA     9     0.000000     0.167360     3 ; ALLOW   ARO
     HA2      CT2     CPH1     CPH1     9     0.000000     0.000000     3 ; ALLOW ARO
     HA2      CT2      NH1        C     9     0.000000     0.000000     3 ; ALLOW PEP
     HA2      CT2      NH1        H     9     0.000000     0.000000     3 ; ALLOW PEP
     HA2      CT2        S      CT3     9     0.000000     1.171520     3 ; ALLOW   ALI SUL ION
     HA3      CT3     CPH1     CPH1     9     0.000000     0.000000     3 ; ALLOW ARO
     HA3      CT3       CS      HA2     9     0.000000     0.669440     3 ; ALLOW SUL
     HA3      CT3       CS      HA3     9     0.000000     0.669440     3 ; ALLOW SUL
     HA3      CT3      CT2       CA     9     0.000000     0.167360     3 ; ALLOW   ARO
     HA3      CT3      NH1        C     9     0.000000     0.000000     3 ; ALLOW PEP
     HA3      CT3      NH1        H     9     0.000000     0.000000     3 ; ALLOW PEP
     HA3      CT3        S      CT2     9     0.000000     1.171520     3 ; ALLOW   ALI SUL ION
     HE1      CE1      CE1      HE1     9   180.000000     4.184000     2 ; 
     CT3      CE1      CE1      HE1     9   180.000000     4.184000     2 ; 
     HE1      CE1      CE2      HE2     9   180.000000    21.756800     2 ; 
     HE1      CE1      CT2      HA2     9     0.000000     0.000000     3 ; 
     HE1      CE1      CT2      CT3     9     0.000000     0.502080     3 ; 
     HE1      CE1      CT3      HA3     9     0.000000     0.000000     3 ; 
     HE2      CE2      CE1      CT2     9   180.000000    21.756800     2 ; 
     HB1      CP1        N        C     9     0.000000     3.347200     3 ; ALLOW PRO PEP
     HB1      CP1        N      CP3     9     0.000000     0.418400     3 ; ALLOW PRO
     HB1      CP1       NP      CP3     9     0.000000     0.334720     3 ; ALLOW PRO
     HB1      CT1      NH1        C     9     0.000000     0.000000     1 ; ALLOW PEP
     HB1      CT1      NH1        H     9     0.000000     0.000000     1 ; ALLOW PEP
     HB2      CT2      NH1        C     9     0.000000     0.000000     1 ; ALLOW PEP
     HB2      CT2      NH1        H     9     0.000000     0.000000     1 ; ALLOW PEP
      HC      NH2      CT2      HB2     9     0.000000     0.460240     3 ; 
      HC      NH2      CT2       CD     9     0.000000     0.460240     3 ; 
      HC      NH2      CT2      CT2     9     0.000000     0.460240     3 ; 
      HC      NH2      CT2      HA2     9     0.000000     0.460240     3 ; 
      HC       NP      CP1        C     9     0.000000     0.334720     3 ; ALLOW PRO
      HC       NP      CP1       CC     9     0.000000     0.334720     3 ; ALLOW PRO
      HC       NP      CP1       CD     9     0.000000     0.334720     3 ; ALLOW PRO PEP
      HC       NP      CP1      CP2     9     0.000000     0.334720     3 ; ALLOW PRO
      HC       NP      CP1      HB1     9     0.000000     0.334720     3 ; ALLOW PRO
      HC       NP      CP3      CP2     9     0.000000     0.334720     3 ; ALLOW PRO
      HC       NP      CP3      HA2     9     0.000000     0.334720     3 ; ALLOW PRO
      HP       CA       CA       CA     9   180.000000    17.572800     2 ; ALLOW   ARO
      HP       CA       CA      CT2     9   180.000000    17.572800     2 ; ALLOW   ARO
      HP       CA       CA      CT3     9   180.000000    17.572800     2 ; ALLOW   ARO
      HP       CA       CA       HP     9   180.000000    10.041600     2 ; ALLOW   ARO
     HR1     CPH1     CPH1      CT2     9   180.000000     4.184000     2 ; ALLOW ARO
     HR1     CPH1     CPH1      CT3     9   180.000000     4.184000     2 ; ALLOW ARO
     HR1     CPH1     CPH1      HR1     9   180.000000     4.184000     2 ; ALLOW ARO
     HR1     CPH1      NR3     CPH2     9   180.000000    10.460000     2 ; ALLOW ARO
     HR1     CPH1      NR3        H     9   180.000000    12.552000     2 ; ALLOW ARO
     HR1     CPH2      NR1     CPH1     9   180.000000    12.552000     2 ; ALLOW ARO
     HR1     CPH2      NR1        H     9   180.000000     4.184000     2 ; ALLOW ARO
     HR1     CPH2      NR2     CPH1     9   180.000000    12.552000     2 ; ALLOW ARO
     HR2     CPH2      NR3     CPH1     9   180.000000    12.552000     2 ; ALLOW ARO
     HR2     CPH2      NR3        H     9   180.000000     0.000000     2 ; ALLOW ARO
     HR3     CPH1     CPH1      CT2     9   180.000000     8.368000     2 ; ALLOW ARO
     HR3     CPH1     CPH1      CT3     9   180.000000     8.368000     2 ; ALLOW ARO
     HR3     CPH1     CPH1      HR3     9   180.000000     8.368000     2 ; ALLOW ARO
     HR3     CPH1      NR1     CPH2     9   180.000000    12.552000     2 ; ALLOW ARO
     HR3     CPH1      NR1        H     9   180.000000     4.184000     2 ; ALLOW ARO
     HR3     CPH1      NR2     CPH2     9   180.000000    12.552000     2 ; ALLOW ARO
      HS        S      CT2      CT3     9     0.000000     1.004160     1 ; ALLOW   ALI SUL ION
      HS        S      CT2      CT3     9     0.000000     0.627600     2 ; ALLOW   ALI SUL ION
      HS        S      CT2      CT3     9     0.000000     1.129680     3 ; ALLOW   ALI SUL ION
      HS        S      CT2      HA2     9     0.000000     0.836800     3 ; ALLOW   ALI SUL ION
      HS        S      CT3      HA3     9     0.000000     0.836800     3 ; ALLOW   ALI SUL ION
       N        C      CP1      CP2     9     0.000000     1.673600     1 ; ALLOW PEP PRO
       N        C      CP1      CP2     9     0.000000     2.510400     2 ; ALLOW PEP PRO
       N        C      CP1      HB1     9   180.000000     1.673600     1 ; ALLOW PEP PRO
       N        C      CP1      HB1     9     0.000000     2.510400     2 ; ALLOW PEP PRO
       N        C      CP1        N     9     0.000000     1.255200     1 ; ALLOW PEP PRO
       N        C      CP1        N     9     0.000000    -1.255200     4 ; ALLOW PEP PRO
       N        C      CT1      CT1     9     0.000000     0.000000     1 ; ALLOW PEP PRO
       N        C      CT1      CT2     9     0.000000     0.000000     1 ; ALLOW PEP PRO
       N        C      CT1      CT3     9     0.000000     0.000000     1 ; ALLOW PEP PRO
       N        C      CT1      HB1     9     0.000000     0.000000     1 ; ALLOW PEP PRO
       N        C      CT2      HB2     9     0.000000     0.000000     1 ; ALLOW PEP PRO
       N        C      CT3      HA3     9     0.000000     0.000000     1 ; ALLOW PEP PRO
       N      CT1      CT2       CA     9     0.000000     0.167360     3 ; ALLOW   ARO
     NH1        C      CP1      CP2     9     0.000000     1.673600     1 ; ALLOW PEP PRO
     NH1        C      CP1      CP2     9     0.000000     2.510400     2 ; ALLOW PEP PRO
     NH1        C      CP1      HB1     9   180.000000     1.673600     1 ; ALLOW PEP PRO
     NH1        C      CP1      HB1     9     0.000000     2.510400     2 ; ALLOW PEP PRO
     NH1        C      CP1        N     9     0.000000     1.255200     1 ; ALLOW PEP PRO
     NH1        C      CP1        N     9     0.000000    -1.255200     4 ; ALLOW PEP PRO
     NH1        C      CT1      CT1     9     0.000000     0.000000     1 ; ALLOW PEP
     NH1        C      CT1      CT2     9     0.000000     0.000000     1 ; ALLOW PEP
     NH1        C      CT1      CT3     9     0.000000     0.000000     1 ; ALLOW PEP
     NH1        C      CT1      HB1     9     0.000000     0.000000     1 ; ALLOW PEP
     NH1        C      CT1      NH1     9     0.000000     2.510400     1 ; ALLOW PEP
     NH1        C      CT2      CT2     9     0.000000     0.000000     1 ; ALLOW PEP
     NH1        C      CT2      HA2     9     0.000000     0.000000     3 ; ALLOW PEP
     NH1        C      CT2      HB2     9     0.000000     0.000000     1 ; ALLOW PEP
     NH1        C      CT2      NH1     9     0.000000     2.510400     1 ; ALLOW PEP
     NH1        C      CT3      HA3     9     0.000000     0.000000     3 ; ALLOW PEP
     NH1      CT1        C        N     9     0.000000     1.673600     1 ; ALLOW PEP PRO
     NH1      CT2        C        N     9     0.000000     1.673600     1 ; ALLOW PEP PRO
     NH2       CC      CP1      CP2     9     0.000000     1.673600     1 ; ALLOW PEP PRO
     NH2       CC      CP1      CP2     9     0.000000     2.510400     2 ; ALLOW PEP PRO
     NH2       CC      CP1      HB1     9   180.000000     1.673600     1 ; ALLOW PEP PRO
     NH2       CC      CP1      HB1     9     0.000000     2.510400     2 ; ALLOW PEP PRO
     NH2       CC      CP1        N     9     0.000000     1.255200     1 ; ALLOW PEP PRO
     NH2       CC      CP1        N     9     0.000000    -1.255200     4 ; ALLOW PEP PRO
     NH2       CC      CT2      HA2     9   180.000000     0.000000     3 ; ALLOW POL
     NH3      CT1        C        N     9     0.000000     1.673600     1 ; ALLOW PEP PRO
     NH3      CT1        C      NH1     9     0.000000     2.510400     1 ; ALLOW PEP PRO
     NH3      CT1       CC      NH2     9     0.000000     1.673600     1 ; ALLOW PEP PRO
     NH3      CT2        C        N     9     0.000000     1.673600     1 ; ALLOW PEP PRO
     NH3      CT2        C      NH1     9     0.000000     4.184000     1 ; ALLOW PEP PRO
     NH3      CT2       CC      NH2     9     0.000000     1.673600     1 ; ALLOW PEP PRO
      NP      CP1        C        N     9     0.000000     1.255200     1 ; ALLOW PEP PRO
      NP      CP1        C      NH1     9     0.000000     1.255200     1 ; ALLOW PEP PRO
      NP      CP1       CC      NH2     9     0.000000     1.255200     1 ; ALLOW PEP PRO
     NR1     CPH1     CPH1      CT2     9   180.000000    12.552000     2 ; ALLOW ARO
     NR1     CPH1     CPH1      CT3     9   180.000000    12.552000     2 ; ALLOW ARO
     NR1     CPH1     CPH1      HR3     9   180.000000    12.552000     2 ; ALLOW ARO
     NR1     CPH1      CT2      CT2     9     0.000000     0.794960     3 ; ALLOW ARO
     NR1     CPH1      CT2      CT3     9     0.000000     0.794960     3 ; ALLOW ARO
     NR1     CPH1      CT2      HA2     9     0.000000     0.794960     3 ; ALLOW ARO
     NR1     CPH1      CT3      HA3     9     0.000000     0.794960     3 ; ALLOW ARO
     NR1     CPH2      NR2     CPH1     9   180.000000    58.576000     2 ; ALLOW ARO
     NR2     CPH1     CPH1      CT2     9   180.000000    12.552000     2 ; ALLOW ARO
     NR2     CPH1     CPH1      CT3     9   180.000000    12.552000     2 ; ALLOW ARO
     NR2     CPH1     CPH1      HR3     9   180.000000    12.552000     2 ; ALLOW ARO
     NR2     CPH1     CPH1      NR1     9   180.000000    58.576000     2 ; ALLOW ARO
     NR2     CPH1      CT2      CT2     9     0.000000     0.794960     3 ; ALLOW ARO
     NR2     CPH1      CT2      CT3     9     0.000000     0.794960     3 ; ALLOW ARO
     NR2     CPH1      CT2      HA2     9     0.000000     0.794960     3 ; ALLOW ARO
     NR2     CPH1      CT3      HA3     9     0.000000     0.794960     3 ; ALLOW ARO
     NR2     CPH2      NR1     CPH1     9   180.000000    58.576000     2 ; ALLOW ARO
     NR2     CPH2      NR1        H     9   180.000000     4.184000     2 ; ALLOW ARO
     NR3     CPH1     CPH1      CT2     9   180.000000    10.460000     2 ; ALLOW ARO
     NR3     CPH1     CPH1      CT3     9   180.000000    10.460000     2 ; ALLOW ARO
     NR3     CPH1     CPH1      HR1     9   180.000000    10.460000     2 ; ALLOW ARO
     NR3     CPH1     CPH1      NR3     9   180.000000    50.208000     2 ; ALLOW ARO
     NR3     CPH1      CT2      CT2     9     0.000000     0.794960     3 ; ALLOW ARO
     NR3     CPH1      CT2      CT3     9     0.000000     0.794960     3 ; ALLOW ARO
     NR3     CPH1      CT2      HA2     9     0.000000     0.794960     3 ; ALLOW ARO
     NR3     CPH1      CT3      HA3     9     0.000000     0.794960     3 ; ALLOW ARO
     NR3     CPH2      NR3     CPH1     9   180.000000    50.208000     2 ; ALLOW ARO
     NR3     CPH2      NR3        H     9   180.000000     5.857600     2 ; ALLOW ARO
       O        C      CP1      CP2     9   180.000000     1.673600     1 ; ALLOW PEP PRO
       O        C      CP1      CP2     9     0.000000     2.510400     2 ; ALLOW PEP PRO
       O        C      CP1      HB1     9     0.000000     1.673600     1 ; ALLOW PEP PRO
       O        C      CP1      HB1     9     0.000000     2.510400     2 ; ALLOW PEP PRO
       O        C      CP1        N     9     0.000000    -1.255200     4 ; ALLOW PEP PRO
       O        C      CT1      CT1     9     0.000000     5.857600     1 ; ALLOW PEP
       O        C      CT1      CT2     9     0.000000     5.857600     1 ; ALLOW PEP
       O        C      CT1      CT3     9     0.000000     5.857600     1 ; ALLOW PEP
       O        C      CT1      HB1     9     0.000000     0.000000     1 ; ALLOW PEP
       O        C      CT1      NH1     9     0.000000     0.000000     1 ; ALLOW PEP
       O        C      CT1      NH3     9     0.000000     0.000000     1 ; ALLOW PEP PRO
       O        C      CT2      CT2     9     0.000000     5.857600     1 ; ALLOW PEP
       O        C      CT2      HA2     9   180.000000     0.000000     3 ; ALLOW POL
       O        C      CT2      HB2     9     0.000000     0.000000     1 ; ALLOW PEP
       O        C      CT2      NH1     9     0.000000     0.000000     1 ; ALLOW PEP
       O        C      CT2      NH3     9     0.000000     0.000000     1 ; ALLOW PEP PRO
       O        C      CT3      HA3     9   180.000000     0.000000     3 ; ALLOW POL
       O        C        N      CP1     9   180.000000    11.506000     2 ; ALLOW PRO
       O        C        N      CP1     9     0.000000     1.255200     4 ; ALLOW PRO
       O        C        N      CP3     9   180.000000    11.506000     2 ; ALLOW PRO
       O        C        N      CP3     9     0.000000     1.255200     4 ; ALLOW PRO
       O        C      NH1      CT1     9   180.000000    10.460000     2 ; ALLOW PEP
       O        C      NH1      CT2     9   180.000000    10.460000     2 ; ALLOW PEP
       O        C      NH1      CT3     9   180.000000    10.460000     2 ; ALLOW PEP
       O        C      NH1        H     9   180.000000    10.460000     2 ; ALLOW PEP
       O       CC      CP1      CP2     9   180.000000     1.673600     1 ; ALLOW PEP PRO
       O       CC      CP1      CP2     9     0.000000     2.510400     2 ; ALLOW PEP PRO
       O       CC      CP1      HB1     9     0.000000     1.673600     1 ; ALLOW PEP PRO
       O       CC      CP1      HB1     9     0.000000     2.510400     2 ; ALLOW PEP PRO
       O       CC      CP1        N     9     0.000000    -1.255200     4 ; ALLOW PEP PRO
       O       CC      CT2      HA2     9   180.000000     0.000000     3 ; ALLOW POL
       O       CC      NH2        H     9   180.000000     5.857600     2 ; ALLOW PEP POL ARO PRO
      OB       CD       OS      CT2     9   180.000000     4.037560     1 ; ALLOW   PEP POL
      OB       CD       OS      CT2     9   180.000000    16.108400     2 ; ALLOW   PEP POL
      OB       CD       OS      CT3     9   180.000000     4.037560     1 ; ALLOW   PEP POL
      OB       CD       OS      CT3     9   180.000000    16.108400     2 ; ALLOW   PEP POL
      OC       CA       CA       CA     9   180.000000    12.970400     2 ; ALLOW   ARO
      OC       CA       CA       HP     9   180.000000    17.572800     2 ; ALLOW   ARO
      OC       CC      CP1      CP2     9     0.000000     0.669440     3 ; ALLOW PEP PRO POL
      OC       CC      CP1      HB1     9     0.000000     0.669440     3 ; ALLOW PEP PRO POL
      OC       CC      CP1        N     9     0.000000     0.669440     3 ; ALLOW PEP PRO POL
      OC       CC      CP1       NP     9     0.000000     0.669440     3 ; ALLOW PEP PRO POL
      OC       CC      CT1      NH3     9   180.000000    13.388800     2 ; ALLOW PEP PRO
      OC       CC      CT2      NH3     9   180.000000    13.388800     2 ; ALLOW PEP PRO
     OH1       CA       CA       CA     9   180.000000    12.970400     2 ; ALLOW   ARO
     OH1       CA       CA       HP     9   180.000000    17.572800     2 ; ALLOW   ARO
       S      CT2      CT2      HA2     9     0.000000     0.041840     3 ; ALLOW   ALI SUL ION
      SM      CT2      CT2      HA2     9     0.000000     0.041840     3 ; ALLOW   ALI SUL ION
      SM       SM      CT2      CT1     9     0.000000     1.297040     3 ; ALLOW  SUL ALI
      SM       SM      CT2      CT2     9     0.000000     1.297040     3 ; ALLOW  SUL ALI
      SM       SM      CT2      CT3     9     0.000000     1.297040     3 ; ALLOW  SUL ALI
      SM       SM      CT2      HA2     9     0.000000     0.661072     3 ; ALLOW   ALI SUL ION
      SM       SM      CT3      HA3     9     0.000000     0.661072     3 ; ALLOW   ALI SUL ION
      SS       CS      CT3      HA3     9     0.000000     0.627600     3 ; ALLOW SUL
     NH1      CT1      CT1      HA1     9     0.000000     0.836800     3 ; From X    CT1  CT1  X
     HB1      CT1      CT1      HA1     9     0.000000     0.836800     3 ; From X    CT1  CT1  X
     HB1      CT1      CT1      CT3     9     0.000000     0.836800     3 ; From X    CT1  CT1  X
     HA1      CT1      CT1        C     9     0.000000     0.836800     3 ; From X    CT1  CT1  X
     NH1      CT1      CT2      HA2     9     0.000000     0.836800     3 ; From X    CT1  CT2  X
     HB1      CT1      CT2      HA2     9     0.000000     0.836800     3 ; From X    CT1  CT2  X
     HB1      CT1      CT2      OH1     9     0.000000     0.836800     3 ; From X    CT1  CT2  X
     HB1      CT1      CT2      CT2     9     0.000000     0.836800     3 ; From X    CT1  CT2  X
     HA2      CT2      CT1        C     9     0.000000     0.836800     3 ; From X    CT1  CT2  X
     HA2      CT2      OH1        H     9     0.000000     0.585760     3 ; From X    CT2  OH1  X
     CT1      CT2      CT2      HA2     9     0.000000     0.794960     3 ; From X    CT2  CT2  X
     HA2      CT2      CT2      HA2     9     0.000000     0.794960     3 ; From X    CT2  CT2  X
     HA2      CT2      CT2       CC     9     0.000000     0.794960     3 ; From X    CT2  CT2  X
     HB1      CT1      CT2        S     9     0.000000     0.836800     3 ; From X    CT1  CT2  X
     CT2      CT2      CT2      HA2     9     0.000000     0.794960     3 ; From X    CT2  CT2  X
     CT2      CT2      CT2      NC2     9     0.000000     0.794960     3 ; From X    CT2  CT2  X
     CT2      CT2      NC2       HC     9   180.000000     0.000000     6 ; From X    CT2  NC2  X
     CT2      CT2      NC2        C     9   180.000000     0.000000     6 ; From X    CT2  NC2  X
     HA2      CT2      CT2      NC2     9     0.000000     0.794960     3 ; From X    CT2  CT2  X
     CT2      NC2        C      NC2     9   180.000000     9.414000     2 ; From X    C    NC2  X
     HA2      CT2      NC2       HC     9   180.000000     0.000000     6 ; From X    CT2  NC2  X
     HA2      CT2      NC2        C     9   180.000000     0.000000     6 ; From X    CT2  NC2  X
     NC2        C      NC2       HC     9   180.000000     9.414000     2 ; From X    C    NC2  X
     HB1      CT1      CT2       CC     9     0.000000     0.836800     3 ; From X    CT1  CT2  X
     HB1      CT1      CT2       CY     9     0.000000     0.836800     3 ; From X    CT1  CT2  X
     HA2      CT2       CC       OC     9   180.000000     0.209200     6 ; From X    CT2  CC   X
     HB1      CT1      CT2     CPH1     9     0.000000     0.836800     3 ; From X    CT1  CT2  X
     CT1      CT1      CT3      HA3     9     0.000000     0.836800     3 ; From X    CT1  CT3  X
     CT1      CT1      CT2      HA2     9     0.000000     0.836800     3 ; From X    CT1  CT2  X
     HB1      CT1      CT1      CT2     9     0.000000     0.836800     3 ; From X    CT1  CT1  X
     CT1      CT2      CT3      HA3     9     0.000000     0.669440     3 ; From X    CT2  CT3  X
     HA1      CT1      CT3      HA3     9     0.000000     0.836800     3 ; From X    CT1  CT3  X
     HA1      CT1      CT2      HA2     9     0.000000     0.836800     3 ; From X    CT1  CT2  X
     HA1      CT1      CT2      CT3     9     0.000000     0.836800     3 ; From X    CT1  CT2  X
     CT3      CT1      CT2      HA2     9     0.000000     0.836800     3 ; From X    CT1  CT2  X
     CT3      CT1      CT2      CT3     9     0.000000     0.836800     3 ; From X    CT1  CT2  X
     HA3      CT3      CT1      CT2     9     0.000000     0.836800     3 ; From X    CT1  CT3  X
     HA2      CT2      CT3      HA3     9     0.000000     0.669440     3 ; From X    CT2  CT3  X
     CT1      CT2      CT1      HA1     9     0.000000     0.836800     3 ; From X    CT1  CT2  X
     HB1      CT1      CT2      CT1     9     0.000000     0.836800     3 ; From X    CT1  CT2  X
     CT3      CT1      CT3      HA3     9     0.000000     0.836800     3 ; From X    CT1  CT3  X
     CT2      CT2      CT2      NH3     9     0.000000     0.794960     3 ; From X    CT2  CT2  X
     CT2      CT2      NH3       HC     9     0.000000     0.418400     3 ; From X    CT2  NH3  X
     HA2      CT2      CT2      NH3     9     0.000000     0.794960     3 ; From X    CT2  CT2  X
     HA2      CT2      NH3       HC     9     0.000000     0.418400     3 ; From X    CT2  NH3  X
     HB1      CT1      CT2       CA     9     0.000000     0.836800     3 ; From X    CT1  CT2  X
     HA2      CT2       CA       CA     9     0.000000     0.000000     6 ; From X    CT2  CA   X
     HB1      CT1      CT1      OH1     9     0.000000     0.836800     3 ; From X    CT1  CT1  X
     HA1      CT1      OH1        H     9     0.000000     0.585760     3 ; From X    CT1  OH1  X
     OH1      CT1      CT3      HA3     9     0.000000     0.836800     3 ; From X    CT1  CT3  X
     CT2      CT2       CC        O     9   180.000000     0.209200     6 ; From X    CT2  CC   X
     CT2      CT2       CC      NH2     9   180.000000     0.209200     6 ; From X    CT2  CC   X
     CT2      CT2       CC       OC     9   180.000000     0.209200     6 ; From X    CT2  CC   X
     NH1      CT1     CT2A      HA2     9     0.000000     0.836800     3 ; From X    CT1  CT2  X
     NH3      CT1     CT2A      CT2     9     0.000000     0.836800     3 ; From X    CT1  CT2  X !N terminus
     CT1     CT2A      CT2      HA2     9     0.000000     0.794960     3 ; From X    CT2  CT2  X
     HB1      CT1     CT2A      HA2     9     0.000000     0.836800     3 ; From X    CT1  CT2  X
     HB1      CT1     CT2A      CT2     9     0.000000     0.836800     3 ; From X    CT1  CT2  X
     HA2     CT2A      CT1        C     9     0.000000     0.836800     3 ; From X    CT1  CT2  X
     HA2     CT2A      CT1       CC     9     0.000000     0.836800     3 ; RB: added for C-ter Glu
     HA2     CT2A      CT2      HA2     9     0.000000     0.794960     3 ; From X    CT2  CT2  X
     HA2     CT2A      CT2       CC     9     0.000000     0.794960     3 ; From X    CT2  CT2  X
     HB1      CT1     CT2A     CPH1     9     0.000000     0.836800     3 ; From X    CT1  CT2  X
       C      NH1      CT1     CT2A     9     0.000000     7.531200     1 ; from CT2  CT1  NH1  C
       H      NH1      CT1     CT2A     9     0.000000     0.000000     1 ; from H    NH1  CT1  CT2
    CT2A      CT1        C        O     9     0.000000     5.857600     1 ; from O    C    CT1  CT2
    CT2A      CT1        C      NH1     9     0.000000     0.000000     1 ; NH1  C    CT1  CT2
    CT2A      CT1        C        N     9     0.000000     0.000000     1 ; RB: added for GLU-PRO in UBQ
     CT1     CT2A      CT2       CD     9     0.000000     0.794960     3 ; From X    CT2  CT2  X
     HA2     CT2A      CT2       CD     9     0.000000     0.794960     3 ; From X    CT2  CT2  X
    CT2A     CPH1     CPH1      HR1     9   180.000000     4.184000     2 ; from HR1  CPH1 CPH1 CT2
    CT2A     CPH1     CPH1      NR3     9   180.000000    10.460000     2 ; from NR3  CPH1 CPH1 CT2
    CT2A     CPH1      NR3        H     9   180.000000    12.552000     2 ; from H    NR3  CPH1 CT2
    CT2A     CPH1      NR3     CPH2     9   180.000000    10.460000     2 ; from CT2  CPH1 NR3  CPH2
     HA2     CT2A     CPH1     CPH1     9     0.000000     0.000000     3 ; from HA2  CT2  CPH1 CPH1
     HA2     CT2A     CPH1      NR3     9     0.000000     0.794960     3 ; from NR3  CPH1 CT2  HA2
       C      CT1      CT2      CT2     9   180.000000     1.464400     1 ; 
       C      CT1      CT2      CT2     9   180.000000     1.757280     2 ; 
       C      CT1      CT2      CT2     9   180.000000     7.991440     3 ; 
     CT2      CT2      CT1      NH1     9   180.000000     3.681920     1 ; 
     CT2      CT2      CT1      NH1     9   180.000000     0.000000     2 ; 
     CT2      CT2      CT1      NH1     9     0.000000     7.949600     3 ; 
      CC      CT2      CT2      CT1     9   180.000000     7.698560     1 ; 
      CC      CT2      CT2      CT1     9   180.000000     3.514560     2 ; 
      CC      CT2      CT2      CT1     9   180.000000     1.631760     3 ; 
     CT1      CT2      CT2      CT2     9   180.000000     2.635920     1 ; 
     CT1      CT2      CT2      CT2     9     0.000000     0.041840     2 ; 
     CT1      CT2      CT2      CT2     9     0.000000     0.627600     3 ; 
     CT1      CT2      CT2        S     9   180.000000     0.585760     1 ; 
     CT1      CT2      CT2        S     9     0.000000     2.259360     2 ; 
     CT1      CT2      CT2        S     9     0.000000     2.886960     3 ; 
       C      CT1      CT2       CC     9   180.000000     5.899440     1 ; 
       C      CT1      CT2       CC     9   180.000000     5.397360     2 ; 
       C      CT1      CT2       CC     9   180.000000     2.468560     3 ; 
      CC      CT2      CT1      NH1     9   180.000000     1.171520     1 ; 
      CC      CT2      CT1      NH1     9   180.000000     2.092000     2 ; 
      CC      CT2      CT1      NH1     9     0.000000     1.589920     3 ; 
     CT1      CT2       CC      NH2     9   180.000000     2.594080     1 ; 
     CT1      CT2       CC      NH2     9   180.000000     2.761440     2 ; 
     CT1      CT2       CC      NH2     9   180.000000     3.012480     3 ; 
     CT1      CT2       CC        O     9   180.000000     1.757280     1 ; 
     CT1      CT2       CC        O     9   180.000000     0.627600     2 ; 
     CT1      CT2       CC        O     9   180.000000     3.974800     3 ; 
       C      CT1     CT2A       CC     9   180.000000     6.736240     1 ; 
       C      CT1     CT2A       CC     9   180.000000     5.397360     2 ; 
       C      CT1     CT2A       CC     9   180.000000     2.468560     3 ; 
      CC     CT2A      CT1      NH1     9   180.000000     2.845120     1 ; 
      CC     CT2A      CT1      NH1     9   180.000000     0.418400     2 ; 
      CC     CT2A      CT1      NH1     9     0.000000     1.589920     3 ; 
     CT1     CT2A       CC       OC     9     0.000000     3.514560     1 ; 
     CT1     CT2A       CC       OC     9   180.000000     4.100320     2 ; 
     CT1     CT2A       CC       OC     9     0.000000     6.108640     3 ; 
     CT1      CT2        S       HS     9     0.000000     0.836800     1 ; 
     CT1      CT2        S       HS     9     0.000000     2.719600     2 ; 
     CT1      CT2        S       HS     9     0.000000     0.920480     3 ; 
       C      CT1      CT2        S     9   180.000000     1.004160     1 ; 
       C      CT1      CT2        S     9   180.000000     3.138000     2 ; 
       C      CT1      CT2        S     9   180.000000     5.648400     3 ; 
     NH1      CT1      CT2        S     9     0.000000     1.422560     1 ; 
     NH1      CT1      CT2        S     9   180.000000     2.092000     2 ; 
     NH1      CT1      CT2        S     9     0.000000     5.983120     3 ; 
      CC      CT2     CT2A      CT1     9   180.000000     0.000000     1 ; 
      CC      CT2     CT2A      CT1     9   180.000000     1.589920     2 ; 
      CC      CT2     CT2A      CT1     9   180.000000     2.468560     3 ; 
       C      CT1     CT2A      CT2     9     0.000000     0.460240     1 ; 
       C      CT1     CT2A      CT2     9   180.000000     4.100320     2 ; 
       C      CT1     CT2A      CT2     9   180.000000     6.694400     3 ; 
      CC      CT1     CT2A      CT2     9   180.000000     6.694400     3 ; 
     CT2     CT2A      CT1      NH1     9     0.000000     1.255200     1 ; 
     CT2     CT2A      CT1      NH1     9     0.000000     1.464400     2 ; 
     CT2     CT2A      CT1      NH1     9     0.000000     7.363840     3 ; 
    CPH1     CPH1      CT2      CT1     9     0.000000     7.280160     1 ; 
    CPH1     CPH1      CT2      CT1     9     0.000000     0.627600     2 ; 
    CPH1     CPH1      CT2      CT1     9   180.000000     3.221680     3 ; 
     CT1      CT2     CPH1      NR1     9     0.000000     6.234160     1 ; 
     CT1      CT2     CPH1      NR1     9   180.000000     0.376560     2 ; 
     CT1      CT2     CPH1      NR1     9   180.000000     3.305360     3 ; 
     CT1      CT2     CPH1      NR2     9     0.000000     4.560560     1 ; 
     CT1      CT2     CPH1      NR2     9     0.000000     0.376560     2 ; 
     CT1      CT2     CPH1      NR2     9   180.000000     2.803280     3 ; 
       C      CT1      CT2     CPH1     9   180.000000     0.753120     1 ; 
       C      CT1      CT2     CPH1     9   180.000000     2.677760     2 ; 
       C      CT1      CT2     CPH1     9   180.000000     3.640080     3 ; 
    CPH1      CT2      CT1      NH1     9     0.000000     0.000000     1 ; 
    CPH1      CT2      CT1      NH1     9   180.000000     0.000000     2 ; 
    CPH1      CT2      CT1      NH1     9     0.000000     3.765600     3 ; 
    CPH1     CPH1     CT2A      CT1     9     0.000000     8.535360     1 ; 
    CPH1     CPH1     CT2A      CT1     9     0.000000     1.840960     2 ; 
    CPH1     CPH1     CT2A      CT1     9   180.000000     0.543920     3 ; 
     CT1     CT2A     CPH1      NR3     9   180.000000     2.217520     1 ; 
     CT1     CT2A     CPH1      NR3     9   180.000000     1.757280     2 ; 
     CT1     CT2A     CPH1      NR3     9   180.000000     1.255200     3 ; 
       C      CT1     CT2A     CPH1     9   180.000000     7.322000     1 ; 
       C      CT1     CT2A     CPH1     9     0.000000     0.543920     2 ; 
       C      CT1     CT2A     CPH1     9   180.000000     7.782240     3 ; 
    CPH1     CT2A      CT1      NH1     9   180.000000     4.560560     1 ; 
    CPH1     CT2A      CT1      NH1     9   180.000000     0.920480     2 ; 
    CPH1     CT2A      CT1      NH1     9     0.000000     9.706880     3 ; 
     CT1      CT1      CT2      CT3     9   180.000000     1.589920     1 ; 
     CT1      CT1      CT2      CT3     9   180.000000     0.543920     2 ; 
     CT1      CT1      CT2      CT3     9   180.000000     1.213360     3 ; 
       C      CT1      CT1      CT2     9   180.000000     0.418400     1 ; 
       C      CT1      CT1      CT2     9   180.000000     2.175680     2 ; 
       C      CT1      CT1      CT2     9   180.000000     1.213360     3 ; 
     CT2      CT1      CT1      NH1     9   180.000000     0.502080     1 ; 
     CT2      CT1      CT1      NH1     9   180.000000     1.506240     2 ; 
     CT2      CT1      CT1      NH1     9     0.000000     1.715440     3 ; 
     CT1      CT2      CT1      CT3     9     0.000000     0.209200     1 ; 
     CT1      CT2      CT1      CT3     9   180.000000     0.418400     2 ; 
     CT1      CT2      CT1      CT3     9   180.000000     0.041840     3 ; 
       C      CT1      CT2      CT1     9   180.000000     1.338880     1 ; 
       C      CT1      CT2      CT1     9   180.000000     2.552240     2 ; 
       C      CT1      CT2      CT1     9   180.000000     3.012480     3 ; 
     CT1      CT2      CT1      NH1     9   180.000000     2.008320     1 ; 
     CT1      CT2      CT1      NH1     9   180.000000     1.757280     2 ; 
     CT1      CT2      CT1      NH1     9     0.000000     2.719600     3 ; 
      CA       CA      CT2      CT1     9     0.000000     4.476880     1 ; 
      CA       CA      CT2      CT1     9   180.000000     1.004160     2 ; 
      CA       CA      CT2      CT1     9   180.000000     0.711280     3 ; 
       C      CT1      CT2       CA     9   180.000000     5.355520     1 ; 
       C      CT1      CT2       CA     9   180.000000     3.932960     2 ; 
       C      CT1      CT2       CA     9   180.000000     6.568880     3 ; 
      CA      CT2      CT1      NH1     9   180.000000     2.175680     1 ; 
      CA      CT2      CT1      NH1     9   180.000000     2.594080     2 ; 
      CA      CT2      CT1      NH1     9     0.000000     6.610720     3 ; 
     CT1      CT2      OH1        H     9     0.000000     0.083680     1 ; 
     CT1      CT2      OH1        H     9     0.000000     2.343040     2 ; 
     CT1      CT2      OH1        H     9     0.000000     2.050160     3 ; 
       C      CT1      CT2      OH1     9   180.000000     2.719600     1 ; 
       C      CT1      CT2      OH1     9   180.000000     1.046000     2 ; 
       C      CT1      CT2      OH1     9   180.000000     4.895280     3 ; 
     NH1      CT1      CT2      OH1     9   180.000000     0.753120     1 ; 
     NH1      CT1      CT2      OH1     9   180.000000     0.794960     2 ; 
     NH1      CT1      CT2      OH1     9     0.000000     6.108640     3 ; 
     CT1      CT1      OH1        H     9     0.000000     0.753120     1 ; 
     CT1      CT1      OH1        H     9     0.000000     0.251040     2 ; 
     CT1      CT1      OH1        H     9     0.000000     1.046000     3 ; 
       C      CT1      CT1      OH1     9   180.000000     3.305360     1 ; 
       C      CT1      CT1      OH1     9   180.000000     1.631760     2 ; 
       C      CT1      CT1      OH1     9   180.000000     4.142160     3 ; 
     NH1      CT1      CT1      OH1     9     0.000000     0.376560     1 ; 
     NH1      CT1      CT1      OH1     9   180.000000     0.794960     2 ; 
     NH1      CT1      CT1      OH1     9     0.000000     0.711280     3 ; 
      CA       CY      CT2      CT1     9     0.000000     0.125520     1 ; 
      CA       CY      CT2      CT1     9     0.000000     2.301200     2 ; 
      CA       CY      CT2      CT1     9   180.000000     1.631760     3 ; 
     CPT       CY      CT2      CT1     9   180.000000     1.506240     1 ; 
     CPT       CY      CT2      CT1     9     0.000000     0.209200     2 ; 
     CPT       CY      CT2      CT1     9   180.000000     0.794960     3 ; 
       C      CT1      CT2       CY     9   180.000000     4.560560     1 ; 
       C      CT1      CT2       CY     9   180.000000     2.092000     2 ; 
       C      CT1      CT2       CY     9   180.000000     4.895280     3 ; 
      CY      CT2      CT1      NH1     9   180.000000     1.213360     1 ; 
      CY      CT2      CT1      NH1     9   180.000000     2.761440     2 ; 
      CY      CT2      CT1      NH1     9     0.000000     4.895280     3 ; 
       C      CT1      CT1      CT3     9   180.000000     0.585760     1 ; 
       C      CT1      CT1      CT3     9   180.000000     1.087840     2 ; 
       C      CT1      CT1      CT3     9   180.000000     1.380720     3 ; 
     CT3      CT1      CT1      NH1     9     0.000000     0.753120     1 ; 
     CT3      CT1      CT1      NH1     9     0.000000     0.251040     2 ; 
     CT3      CT1      CT1      NH1     9     0.000000     2.468560     3 ; 
       H      NH1     CT2A       CC     9     0.000000     0.000000     1 ; 
     HB1      CT1     CT2A       CC     9     0.000000     0.836800     3 ; 
     HA2     CT2A       CC       OC     9   180.000000     0.209200     6 ; 
     NH3      CT1     CT2A      HA2     9     0.000000     0.836800     3 ; 
     NH3      CT1     CT2A       CC     9     0.000000     0.836800     3 ; 
      CC     CT2A      CT1       CC     9     0.000000     0.836800     3 ; 
    CPH1     CT2A      CT1       CC     9     0.000000     0.836800     3 ; 
    CPH1     CT2A      CT1      NH3     9     0.000000     0.836800     3 ; 
    CPH1     CT2A      CT1       CD     9     0.000000     0.836800     3 ; 
     HA2     CT2A      CT1       CD     9     0.000000     0.836800     3 ; 
     CT2     CT2A      CT1       CD     9     0.000000     0.836800     3 ; 
       H      NH2      CT1       CS     9     0.000000     0.460240     3 ; from H    NH2  CT1  CT2 or H    NH2  CT1  CT2 , kevo
      CS      CT1      NH1        C     9     0.000000     7.531200     1 ; from CT2  CT1  NH1  C   or CT2A CT1  NH1  C , kevo
       H      NH1      CT1       CS     9     0.000000     0.000000     1 ; from H    NH1  CT1  CT2 or H    NH1  CT1  CT2 , kevo
       N        C      CT1       CS     9     0.000000     0.000000     1 ; from N    C    CT1  CT2 or N    C    CT1  CT2 , kevo
     NH1        C      CT1       CS     9     0.000000     0.000000     1 ; from NH1  C    CT1  CT2 or NH1  C    CT1  CT2 , kevo
       O        C      CT1       CS     9     0.000000     5.857600     1 ; from O    C    CT1  CT2 or O    C    CT1  CT2 , kevo
     HA2       CS      CT1        C     9     0.000000     0.836800     3 ; from HA2  CT2  CT1  C   or HA2  CT2A CT1  C , kevo
     NH1      CT1       CS      HA2     9     0.000000     0.836800     3 ; from NH1  CT1  CT2  HA2 or NH1  CT1  CT2A HA2 , kevo
     HB1      CT1       CS      HA2     9     0.000000     0.836800     3 ; from HB1  CT1  CT2  HA2 or HB1  CT1  CT2A HA2 , kevo
     HB1      CT1       CS       SS     9     0.000000     0.836800     3 ; from HB1  CT1  CT2  S   or HB1  CT1  CT2A S , kevo
       C      CT1       CS       SS     9     0.000000     0.836800     3 ; from X    CT1  CT2  X , kevo
     NH1      CT1       CS       SS     9     0.000000     0.836800     3 ; from X    CT1  CT2  X , kevo
     NH3      CT1       CS      HA2     9     0.000000     0.836800     3 ; from X    CT1  CT2  X , kevo
     NH3      CT1       CS       SS     9     0.000000     0.836800     3 ; from X    CT1  CT2  X , kevo
     NH2      CT1       CS      HA2     9     0.000000     0.836800     3 ; from X    CT1  CT2  X , kevo
     NH2      CT1       CS       SS     9     0.000000     0.836800     3 ; from X    CT1  CT2  X , kevo
      CC      CT1       CS      HA2     9     0.000000     0.836800     3 ; from X    CT1  CT2  X , kevo
      CC      CT1       CS       SS     9     0.000000     0.836800     3 ; from X    CT1  CT2  X , kevo
      CD      CT1       CS      HA2     9     0.000000     0.836800     3 ; from X    CT1  CT2  X , kevo
      CD      CT1       CS       SS     9     0.000000     0.836800     3 ; from X    CT1  CT2  X , kevo
     NH1      CT1      CT2       OC     9     0.000000     0.836800     3 ; from X    CT1  CT2  X , kevo
     NH2      CT1      CT2       OC     9     0.000000     0.836800     3 ; from X    CT1  CT2  X , kevo
     NH3      CT1      CT2       OC     9     0.000000     0.836800     3 ; from X    CT1  CT2  X , kevo
       C      CT1      CT2       OC     9     0.000000     0.836800     3 ; from X    CT1  CT2  X , kevo
      CC      CT1      CT2       OC     9     0.000000     0.836800     3 ; from X    CT1  CT2  X , kevo
      CD      CT1      CT2       OC     9     0.000000     0.836800     3 ; from X    CT1  CT2  X , kevo
     HB1      CT1      CT2       OC     9     0.000000     0.836800     3 ; from X    CT1  CT2  X , kevo

; specific (non-wildcard) dihedral parameters from toppar_c36_jul22/silicates/toppar/par_silicates.inp
;      i        j        k        l  func         phi0         kphi  mult
    OSIE       SI     OSIE     SIH3     9     0.000000     0.753120     5 ; quartz, from sim1
    OSIE       SI     OSIE       SI     9     0.000000     0.753120     5 ; quartz, from sim1
    OSIA       SI     OSIA       SI     9     0.000000     0.753120     5 ; quartz, from sim1
    OSIE       SI     OSIA       SI     9     0.000000     0.753120     5 ; quartz, from sim1
    OSIE     SIH3     OSIE       SI     9     0.000000     0.753120     5 ; quartz, from sim1
    OSIH       SI     OSIE     SIH3     9     0.000000     0.502080     5 ; quartz, from sim1
      SI     OSIE       SI     OSIA     9     0.000000     0.502080     5 ; quartz, from sim1
    HSIA     SIH3     OSIE       SI     9     0.000000     0.836800     3 ; quartz, from sim1
    HSIA     SIH3     OSIE     SIH3     9     0.000000     0.836800     3 ; quartz, from sim1
    OSIE       SI     OSIH     HSIO     9     0.000000     1.255200     3 ; quartz, from sim2
    OSIH       SI     OSIH     HSIO     9     0.000000     1.464400     3 ; quartz, from sim2
      SI     OSIA       SI     OSIH     9     0.000000     0.502080     5 ; quartz, from sim1
    SIH3     OSIE     SIH3     OSIE     9     0.000000     0.753120     5 ; quartz, from sim1
      SI     OSIE       SI     HSIA     9     0.000000     0.836800     3 ; 
      SI     OSIE       SI     OSIH     9     0.000000     0.753120     5 ; 
    SIH3     OSIE       SI     OSIA     9     0.000000     0.753120     5 ; 
    OSIA       SI     OSIH     HSIO     9     0.000000     1.464400     3 ; quartz, from sim2
     OAL     ALSI      OAL      HAL     9     0.000000     0.418400     3 ; 
    ALSI      OAL       SI     OSIE     9     0.000000     0.418400     3 ; 
    ALSI      OAL     ALSI      OAL     9     0.000000     0.418400     3 ; 
    ALSI      OAL     ALSI      HAL     9     0.000000     1.255200     3 ; 
      SI      OAL     ALSI      OAL     9     0.000000     0.418400     3 ; 
      SI     OSIE       SI      OAL     9     0.000000     0.418400     3 ; 
      SI      OAL     ALSI      HAL     9     0.000000     1.255200     3 ; 
     HAL      OAL     ALSI      HAL     9     0.000000     1.255200     3 ; 
    ALSI     OSIE       SI     OSIE     9     0.000000     0.418400     3 ; 
    ALSI     OSIE     ALSI     OSIE     9     0.000000     0.418400     3 ; 
    ALSI     OSIE     ALSI      OAL     9     0.000000     0.418400     3 ; 
    ALSI      OAL     ALSI     OSIE     9     0.000000     0.418400     3 ; 
    ALSI     OSIE     ALSI      HAL     9     0.000000     1.255200     3 ; 
      SI     OSIE     ALSI     OSIE     9     0.000000     1.255200     3 ; 
      SI     OSIE     ALSI      OAL     9     0.000000     1.255200     3 ; 
      SI     OSIE     ALSI      HAL     9     0.000000     0.418400     3 ; 
    OSIE     ALSI      OAL      HAL     9     0.000000     0.418400     3 ; 

; specific (non-wildcard) dihedral parameters from toppar_c36_jul22/silicates/toppar/top_silicates.inp
;      i        j        k        l  func         phi0         kphi  mult

; specific (non-wildcard) dihedral parameters from toppar_c36_jul22/stream/carb/toppar_all36_carb_glycolipid.str
;      i        j        k        l  func         phi0         kphi  mult
  CC3161   CC3161    OC30P       PL     9   180.000000     0.083680     3 ; 
  CC3161    OC30P       PL    OC2DP     9     0.000000     1.380720     3 ; 
    HCA1   CC3161    OC30P       PL     9     0.000000     1.188256     3 ; dmp,eps, H-C3'-O3'-P || from the par_all27_na.prm
  CC3161    OC30P       PL     OSLP     9     0.000000     6.066800     2 ; CC311D OC30P PC OC312
  CC3161    OC30P       PL      O2L     9     0.000000     1.380720     3 ; CC311D OC30P PC OC2DP
    CTL2     CTL2     CTL2    OC301     9     0.000000     0.794960     3 ; par27 X CTL2 CTL2 X
  CC3162    OC301     CTL2     CTL2     9   180.000000     3.012480     1 ; pram, 1-ethoxy-THP2 QM phi-psi scan, updated param
  CC3162    OC301     CTL2     CTL2     9   180.000000     1.422560     2 ; " MCSA fit "
  CC3162    OC301     CTL2     CTL2     9   180.000000     0.502080     3 ; " MP2/cc-pVTZ//MP2/6-31G*
  CC3161   CC3162    OC301     CTL2     9   180.000000     2.426720     1 ; pram, 1-ethoxy-THP2 QM phi-psi scan, updated param
  CC3161   CC3162    OC301     CTL2     9   180.000000     2.886960     2 ; " MCSA fit "
  CC3161   CC3162    OC301     CTL2     9     0.000000     4.853440     3 ; " MP2/cc-pVTZ//MP2/6-31G*
    HAL2     CTL2     CTL2    OC301     9     0.000000     0.794960     3 ; par27 X CTL2 CTL2 X
  CC3162    OC301     CTL2     HAL2     9     0.000000     1.188256     3 ; par35 HCA2 CC32A OC30A CC32A
  OC3C61   CC3162    OC301     CTL2     9   180.000000     1.506240     1 ; pram, 1-ethoxy-THP2 QM phi-psi scan, updated param
  OC3C61   CC3162    OC301     CTL2     9     0.000000     2.175680     2 ; " MCSA fit "
  OC3C61   CC3162    OC301     CTL2     9   180.000000     3.472720     3 ; " MP2/cc-pVTZ//MP2/6-31G*
    CTL2    OC301     CTL1     HAL1     9     0.000000     1.188256     3 ; OMeTHP CC331   OC301   CC311D  HCA1
   OC301     CTL2     CTL3     HAL3     9     0.000000     0.836800     3 ; OC301   CTL2    CC3163  HCA1
    CTL2    OC301   CC311D   OC3C61     9   180.000000     1.506240     1 ; pr, 1-ethoxy-THP2 QM phi-psi scan
    CTL2    OC301   CC311D   OC3C61     9     0.000000     2.175680     2 ; " MCSA fit "
    CTL2    OC301   CC311D   OC3C61     9   180.000000     3.472720     3 ; " MP2/cc-pVTZ//MP2/6-31G*
    CTL2    OC301   CC311D   CC321C     9   180.000000     2.426720     1 ; pr, 1-ethoxy-THP2 QM phi-psi scan
    CTL2    OC301   CC311D   CC321C     9   180.000000     2.886960     2 ; " MCSA fit "
    CTL2    OC301   CC311D   CC321C     9     0.000000     4.853440     3 ; " MP2/cc-pVTZ//MP2/6-31G*
    HAL2     CTL2    OC301   CC3051     9     0.000000     1.188256     3 ; OMe-THF CC312D  OC301   CC331   HCA3
    HAL2     CTL2    OC301   CC3152     9     0.000000     1.188256     3 ; OMe-THF CC312D  OC301   CC331   HCA3
    HAL1   CC3152    OC301     CTL2     9     0.000000     1.188256     3 ; HCA1    CC3152  OC301   CC331
    CTL2    OC301   CC3162     HCA1     9     0.000000     1.188256     3 ; par35 HCA2 CC32A OC30A CC32A
   OC30P       PL     OSLP     CTL2     9   180.000000     5.020800     1 ; OSLP PL OSLP CTL2 ! phosphate, new NA, 4/98, adm jr.
   OC30P       PL     OSLP     CTL2     9   180.000000     0.418400     2 ; 
   OC30P       PL     OSLP     CTL2     9   180.000000     0.418400     3 ; 
   CG311    CG321    CG321    OG303     9     0.000000     0.815880     3 ; ! from CG321  CG321  CG321  OG303  ! PROT alkane update, adm jr., 3/2/92
   CG2D1    CG321    CG321    CG311     9   180.000000     0.585760     1 ; ! from CG2D1  CG321  CG321  CG321  ! 2-hexene, adm jr., 11/09
   CG2D1    CG321    CG321    CG311     9     0.000000     0.711280     2 ; ! from CG2D1  CG321  CG321  CG321  ! 2-hexene, adm jr., 11/09
   CG2D1    CG321    CG321    CG311     9   180.000000     0.209200     3 ; ! from CG2D1  CG321  CG321  CG321  ! 2-hexene, adm jr., 11/09
  CC3162    OG303      PG1    OG2P1     9     0.000000     1.380720     3 ; ! from CC3162 OC30P  PC     OC2DP
  CC3162    OG303      PG1    OG304     9     0.000000     6.066800     2 ; ! from CC3162 OC30P  PC     OC312
    HCA1   CC3162    OG303      PG1     9     0.000000     1.188256     3 ; ! from HCA1     CC3162    OC30P     PC
  OC3C61   CC3162    OG303      PG1     9     0.000000     1.589920     2 ; ! from OC3C61   CC3162    OC30P     PC
  OC3C61   CC3162    OG303      PG1     9   180.000000     1.715440     3 ; ! from OC3C61   CC3162    OC30P     PC
  CC3161   CC3162    OG303      PG1     9   180.000000     0.083680     3 ; ! from CC3161   CC3162    OC30P     PC
  CC3163   OC3C61   CC3162    OG303     9   180.000000    10.208960     3 ; ! from CC3163   OC3C61    CC3162    OC30P
    HCA1   CC3161   CC3162    OG303     9     0.000000     0.836800     3 ; ! from HCA1     CC3161    CC3162    OC30P
  CC3161   CC3161   CC3162    OG303     9     0.000000     7.363840     1 ; ! from CC3161   CC3161    CC3162    OC30P
  CC3161   CC3161   CC3162    OG303     9     0.000000    10.711040     2 ; ! from CC3161   CC3161    CC3162    OC30P
  CC3161   CC3161   CC3162    OG303     9     0.000000     0.041840     3 ; ! from CC3161   CC3161    CC3162    OC30P
   OG303   CC3162   CC3161    NC2D1     9     0.000000     0.836800     3 ; ! from OC301   CC3162  CC3161  NC2D1
   CC331   CC3163   CC3161    NC2D1     9     0.000000     0.836800     3 ; ! from CC312   CC3163  CC3161  NC2D1
   CG2D1    CG2D1    CG321    OG303     9   180.000000     7.949600     1 ; ! from CG2D2 CG2D1 CG321 OG311 and CG2DC1 CG2DC1 CG321 OG311 , RETINOL PROL
   CG2D1    CG2D1    CG321    OG303     9   180.000000     1.673600     2 ; ! from CG2D2 CG2D1 CG321 OG311 and CG2DC1 CG2DC1 CG321 OG311 , RETINOL PROL
   CG2D1    CG2D1    CG321    OG303     9   180.000000     2.510400     3 ; ! from CG2D2 CG2D1 CG321 OG311 and CG2DC1 CG2DC1 CG321 OG311 , RETINOL PROL
    HGA4    CG2D1    CG321    OG303     9     0.000000     0.836800     3 ; ! from HGA4  CG2D1 CG321 OG311 and HGA4   CG2DC1 CG321 OG311 , RETINOL PROL
   CG2D1    CG321    OG303      PG1     9   180.000000     2.510400     1 ; ! from CG321  CG321  OG303  PG1
   CG2D1    CG321    OG303      PG1     9     0.000000     2.719600     2 ; ! from CG321  CG321  OG303  PG1
   CG2D1    CG321    OG303      PG1     9     0.000000     0.209200     3 ; ! from CG321  CG321  OG303  PG1
  CC3162    OC301     CTO2     CTL1     9     0.000000     1.673600     1 ; par35
  CC3162    OC301     CTO2     CTL1     9     0.000000     2.050160     3 ; " CC33A CC32A OC30A CC32A
  CC3161   CC3162    OC301     CTO2     9     0.000000     0.920480     1 ; og OMeTHP compounds 2 and 3
  CC3161   CC3162    OC301     CTO2     9   180.000000     1.171520     2 ; "  MCSA fit
  CC3161   CC3162    OC301     CTO2     9     0.000000     3.723760     3 ; "  MP2/cc-pVTZ//MP2/6-31G*
  CC3162    OC301     CTO2     HAL2     9     0.000000     1.188256     3 ; par35 HCA2 CC32A OC30A CC32A
    CTO2    OC301   CC3162   OC3C61     9     0.000000     0.585760     1 ; og OMeTHP compounds 2 and 3
    CTO2    OC301   CC3162   OC3C61     9     0.000000     4.058480     2 ; "  MCSA fit
    CTO2    OC301   CC3162   OC3C61     9   180.000000     0.460240     3 ; "  MP2/cc-pVTZ//MP2/6-31G*
    CTO2    OC301   CC3162     HCA1     9     0.000000     1.188256     3 ; par35 HCA2 CC32A OC30A CC32A
  CC3162   CC3161    OC301     CTL2     9     0.000000     0.920480     1 ; CC3161  CC3162  OC301   CTL2
  CC3162   CC3161    OC301     CTL2     9   180.000000     1.171520     2 ; CC3161  CC3162  OC301   CTL2
  CC3162   CC3161    OC301     CTL2     9     0.000000     3.723760     3 ; CC3161  CC3162  OC301   CTL2
    CTL2    OC301   CC3161   CC3161     9     0.000000     0.920480     1 ; CC3161  CC3162  OC301   CTL2
    CTL2    OC301   CC3161   CC3161     9   180.000000     1.171520     2 ; CC3161  CC3162  OC301   CTL2
    CTL2    OC301   CC3161   CC3161     9     0.000000     3.723760     3 ; CC3161  CC3162  OC301   CTL2
  CC3161    OC301     CTL2     HAL2     9     0.000000     1.188256     3 ; CC3162  OC301   CTL2    HAL2
  CC3161    OC301     CTL2     CTL2     9     0.000000     1.673600     1 ; CC3162  OC301   CTL2    CTL2
  CC3161    OC301     CTL2     CTL2     9     0.000000     2.050160     3 ; CC3162  OC301   CTL2    CTL2
    HCA1   CC3161    OC301     CTL2     9     0.000000     1.188256     3 ; CTL2    OC301   CC3162  HCA1
  CC3162    OC301     CTL1     HAL1     9     0.000000     1.188256     3 ; CC3162  OC301   CTL2    HAL2
  CC3162    OC301     CTL1     CTL2     9     0.000000     1.673600     1 ; CC3162  OC301   CTL2    CTL2
  CC3162    OC301     CTL1     CTL2     9     0.000000     2.050160     3 ; CC3162  OC301   CTL2    CTL2
    HCA1   CC3162    OC301     CTL1     9     0.000000     1.188256     3 ; CTL2    OC301   CC3162  HCA1
  OC3C61   CC3162    OC301     CTL1     9   180.000000     1.506240     1 ; pram, 1-ethoxy-THP2 QM phi-psi scan, updated param
  OC3C61   CC3162    OC301     CTL1     9     0.000000     2.175680     2 ; " MCSA fit "
  OC3C61   CC3162    OC301     CTL1     9   180.000000     3.472720     3 ; " MP2/cc-pVTZ//MP2/6-31G*
  CC3161   CC3162    OC301     CTL1     9   180.000000     2.426720     1 ; pram, 1-ethoxy-THP2 QM phi-psi scan, updated param
  CC3161   CC3162    OC301     CTL1     9   180.000000     2.886960     2 ; " MCSA fit "
  CC3161   CC3162    OC301     CTL1     9     0.000000     4.853440     3 ; " MP2/cc-pVTZ//MP2/6-31G*
  CC3162    OC301     CTL2     CTL1     9     0.000000     1.673600     1 ; CC3162  OC301   CTL2    CTL2
  CC3162    OC301     CTL2     CTL1     9     0.000000     2.050160     3 ; CC3162  OC301   CTL2    CTL2
     OSL    CC321   CC3163     HCA1     9     0.000000     0.836800     3 ; par27 X CTL1 CTL2 X
     OSL    CC321   CC3163   OC3C61     9   180.000000     6.236670     1 ; OC301   CC321   CC3163  OC3C61
     OSL    CC321   CC3163   OC3C61     9     0.000000     1.572766     2 ; 
     OSL    CC321   CC3163   OC3C61     9     0.000000     2.475254     3 ; 
     OSL    CC321   CC3163   CC3161     9   180.000000     2.092000     1 ; 
     OSL    CC321   CC3163   CC3161     9   180.000000     1.548080     2 ; 
     OSL    CC321   CC3163   CC3161     9     0.000000     0.627600     3 ; 
      CL      OSL    CC321   CC3163     9   180.000000     1.117128     3 ; glycerol, gamma1 6/07
      CL      OSL    CC321   CC3163     9     0.000000     0.723832     2 ; 
      CL      OSL    CC321   CC3163     9   180.000000     3.267704     1 ; 
      CL      OSL    CC321     HCA2     9     0.000000     0.836800     3 ; 
    CTL2     CTL2   CC311C     HCA1     9     0.000000     0.836800     3 ; alkane, 3/92
    CTL2     CTL2   CC311C   CC321C     9     0.000000     0.836800     3 ; alkane, 3/92
    CTL2   CC311C   CC321C     HCA2     9     0.000000     0.836800     3 ; alkane, 3/92
    CTL2   CC311C   CC321C   CC321C     9     0.000000     0.836800     3 ; alkane, 3/92
    HAL2     CTL2   CC311C     HCA1     9     0.000000     0.836800     3 ; alkane, 3/92
    HAL2     CTL2   CC311C   CC321C     9     0.000000     0.836800     3 ; alkane, 3/92
       H      NHL       CL      OSL     9   180.000000    10.460000     2 ; 
       H      NHL       CL      OBL     9   180.000000    10.460000     2 ; O    C    NH1  H
     OSL       CL      NHL     CTL2     9   180.000000    10.460000     2 ; O    C    NH1  CT2
     OBL       CL      NHL     CTL2     9   180.000000    10.460000     2 ; 
      CL      NHL     CTL2     HAL2     9     0.000000     0.000000     1 ; HB2  CT2  NH1  C
      CL      NHL     CTL2     CTL2     9     0.000000     7.531200     1 ; CT2  CT1  NH1  C
   CC321    CC321      NHL        C     9     0.000000     7.531200     1 ; CT2  CT2  NH1  C
   CC321    CC321      NHL    CC322     9     0.000000     7.531200     1 ; CT2  CT2  NH1  C
  OC311M    CC321    CC321      NHL     9   180.000000     0.753120     1 ; NH1  CT1  CT2  OH1
  OC311M    CC321    CC321      NHL     9   180.000000     0.794960     2 ; 
  OC311M    CC321    CC321      NHL     9     0.000000     6.108640     3 ; 
    HCP1   OC311M    CC321    CC321     9     0.000000     0.083680     1 ; 
    HCP1   OC311M    CC321    CC321     9     0.000000     2.343040     2 ; 
    HCP1   OC311M    CC321    CC321     9     0.000000     2.050160     3 ; 
    HCA2    CC321    CC321      NHL     9     0.000000     0.836800     3 ; From X    CT1  CT2  X
     NHL    CC322    CC312     HCA1     9     0.000000     0.836800     3 ; From X    CT1  CT2  X
     NHL    CC322    CC312    OC311     9     0.000000     0.836800     3 ; From X    CT1  CT2  X
     NHL    CC322    CC312    CC312     9     0.000000     0.836800     3 ; From X    CT1  CT2  X
   CC321      NHL        C        O     9   180.000000    10.460000     2 ; O    C    NH1  CT2
   CC321      NHL        C     CTL2     9     0.000000     6.694400     1 ; CT2  C    NH1  CT2
   CC321      NHL        C     CTL2     9   180.000000    10.460000     2 ; 
   CC321      NHL    CC322     HCA2     9     0.000000     0.000000     3 ; from, HA2  CT2  NH1  C
   CC321      NHL    CC322    CC312     9     0.000000     7.531200     1 ; CT2  CT2  NH1  C
    HCA2    CC321      NHL        C     9     0.000000     0.000000     3 ; HA2  CT2  NH1  C
    HCA2    CC321      NHL    CC322     9     0.000000     0.000000     3 ; HA2  CT2  NH1  C
       C      NHL    CC322     HCA2     9     0.000000     0.000000     3 ; HA2  CT2  NH1  C
       C      NHL    CC322    CC312     9     0.000000     7.531200     1 ; CT2  CT2  NH1  C
       O        C      NHL    CC322     9   180.000000    10.460000     2 ; O    C    NH1  CT2
    CTL2        C      NHL    CC322     9     0.000000     6.694400     1 ; CT2  C    NH1  CT2
    CTL2        C      NHL    CC322     9   180.000000    10.460000     2 ; 
   CC331      NHL        C        O     9   180.000000    10.460000     2 ; O    C    NH1  CT3
   CC331      NHL        C     CTL2     9     0.000000     6.694400     1 ; CT2  C    NH1  CT3
   CC331      NHL        C     CTL2     9   180.000000    10.460000     2 ; 
   CC331      NHL    CC322     HCA2     9     0.000000     0.000000     1 ; 
   CC331      NHL    CC322    CC312     9     0.000000     6.694400     1 ; CT1  C    NH1  CT3
   CC331      NHL    CC322    CC312     9   180.000000    10.460000     2 ; 
    HCA3    CC331      NHL        C     9     0.000000     0.000000     3 ; 
    HCA3    CC331      NHL    CC322     9     0.000000     0.000000     3 ; 
  CG2R61    CG301    CG321     HGA2     9     0.000000     0.167360     3 ; CG2R61 CG321  CG321  HGA2
  CG2R61    CG301    CG321    CG301     9     0.000000     0.167360     3 ; CG331  CG311  CG321  CG2R61
  CG2R61   CG2R61    CG301    CG321     9   180.000000     0.962320     2 ; CG2R61 CG2R61 CG321  CG321
  CG2R61   CG2R61   CG2R61    OC301     9   180.000000    12.970400     2 ; CG2R61 CG2R61 CG2R61 OG301
  CG2R61   CG2R61    OC301    CC321     9   180.000000     6.778080     2 ; 
  CG2R61   CG2R61    OC301    CC321     9   180.000000     0.794960     4 ; 
   HGR61   CG2R61   CG2R61    OC301     9   180.000000    10.041600     2 ; OG301  CG2R61 CG2R61 HGR61
  CG2R61    OC301    CC321     HCA2     9     0.000000     0.397480     3 ; HGA2   CG321  OG301  CG2R61
  CG2R61    OC301    CC321    CC321     9     0.000000     1.004160     1 ; CG321  CG321  OG301  CG2R61
  CG2R61    OC301    CC321    CC321     9     0.000000     1.213360     2 ; 
  CG2R61    OC301    CC321    CC321     9     0.000000     0.083680     3 ; 
   CG301    CG321    CG301    CG331     9     0.000000     1.840960     1 ; CG331  CG301  CG321  CG33
   CG301    CG321    CG301    CG331     9   180.000000     0.083680     2 ; 
   CG301    CG321    CG301    CG331     9   180.000000     3.054320     3 ; 
       C     CTL2    CC301   CC311C     9     0.000000     0.836800     3 ; alkane, 3/92
    CTL2    CC301   CC311C   CC321C     9     0.000000     0.836800     3 ; alkane, 3/92
    HAL2     CTL2    CC301   CC311C     9     0.000000     0.836800     3 ; alkane, 3/92
   CC301   CC311C   CC321C     HCA2     9     0.000000     0.836800     3 ; par27 X CTL1 CTL2 X
   CC301   CC311C   CC321C   CC321C     9     0.000000     0.836800     3 ; par27 X CTL1 CTL2 X
    CTL2    CC301   CC311C     HCA1     9     0.000000     0.836800     3 ; par27 X CTL1 CTL2 X
    CTL2     CTL2    CC301   CC311C     9     0.000000     0.836800     3 ; par27 X CTL1 CTL2 X

; specific (non-wildcard) dihedral parameters from toppar_c36_jul22/stream/carb/toppar_all36_carb_glycopeptide.str
;      i        j        k        l  func         phi0         kphi  mult
  CC321C   OC3C61   CC311D    NC2D1     9     0.000000     2.594080     1 ; og OMeTHP compounds 2 and 3
  CC321C   OC3C61   CC311D    NC2D1     9     0.000000     6.443360     2 ; OC301    CC311D   OC3C61   CC321C
  CC321C   OC3C61   CC311D    NC2D1     9     0.000000     2.008320     3 ; "  MP2/cc-pVTZ//MP2/6-31G*
    HCP1    NC2D1   CC311D   OC3C61     9     0.000000     0.000000     1 ; par22 H NH1 CT1 CT1
   NC2D1   CC311D   CC311D    NC2D1     9   180.000000     2.468560     1 ; OC301   CC3161  CC3162  OC301 ! par35 OC30A CC32A CC32A OC30A
   NC2D1   CC311D   CC311D    NC2D1     9     0.000000     4.853440     2 ; OC301   CC3161  CC3162  OC301 ! " og/rmv RESMOR and FABYOW10
  CC311D    NC2D1    CC2O1    OC2D1     9   180.000000    10.460000     2 ; par22 O C NH1 CT1
  CC311D    NC2D1    CC2O1    CC331     9     0.000000     6.694400     1 ; par22 CT1 NH1 C CT3
  CC311D    NC2D1    CC2O1    CC331     9   180.000000    10.460000     2 ; "
    HCP1    NC2D1   CC311D     HCA1     9     0.000000     0.000000     1 ; par22 HB CT1 NH1 H
   CC2O1    NC2D1   CC311D     HCA1     9     0.000000     0.000000     1 ; par22 HB CT1 NH1 C
    HCP1    NC2D1   CC311D   CC321C     9     0.000000     0.000000     1 ; par22 H NH1 CT1 CT1
    HCA2   CC321C   CC311D    NC2D1     9     0.000000     0.836800     3 ; par27 X CTL1 CTL1 X
  CC321C   CC321C   CC311D    NC2D1     9     0.000000     0.836800     3 ; par27 X CTL1 CTL1 X
  CC311D   CC311D    NC2D1     HCP1     9     0.000000     0.000000     1 ; par22 H NH1 CT1 CT1
    HCA1   CC311D   CC311D    NC2D1     9     0.000000     0.836800     3 ; par27 X CTL1 CTL1 X
   NC2D1   CC311D   CC311D   CC321C     9     0.000000     0.836800     3 ; par27 X CTL1 CTL1 X
  OC3C61   CC311D   CC311D    NC2D1     9     0.000000     0.836800     3 ; par27 X CTL1 CTL1 X
   NC2D1   CC3162   OC3C61   CC3163     9     0.000000     2.594080     1 ; og OMeTHP compounds 2 and 3
   NC2D1   CC3162   OC3C61   CC3163     9     0.000000     6.443360     2 ; OC301    CC311D   OC3C61   CC321C
   NC2D1   CC3162   OC3C61   CC3163     9     0.000000     2.008320     3 ; "  MP2/cc-pVTZ//MP2/6-31G*
   NC2D1   CC3162   OC3C61   CC3263     9     0.000000     2.594080     1 ; og OMeTHP compounds 2 and 3
   NC2D1   CC3162   OC3C61   CC3263     9     0.000000     6.443360     2 ; OC301    CC311D   OC3C61   CC321C
   NC2D1   CC3162   OC3C61   CC3263     9     0.000000     2.008320     3 ; "  MP2/cc-pVTZ//MP2/6-31G*
    HCP1    NC2D1   CC3162   OC3C61     9     0.000000     0.000000     1 ; par22 H NH1 CT1 CT1
   NC2D1   CC3162   CC3161    NC2D1     9   180.000000     2.468560     1 ; OC301   CC3161  CC3162  OC301 ! par35 OC30A CC32A CC32A OC30A
   NC2D1   CC3162   CC3161    NC2D1     9     0.000000     4.853440     2 ; OC301   CC3161  CC3162  OC301 ! " og/rmv RESMOR and FABYOW10
  CC3162    NC2D1    CC2O1    OC2D1     9   180.000000    10.460000     2 ; par22 O C NH1 CT1
  CC3162    NC2D1    CC2O1    CC331     9     0.000000     6.694400     1 ; par22 CT1 NH1 C CT3
  CC3162    NC2D1    CC2O1    CC331     9   180.000000    10.460000     2 ; "
    HCA1   CC3162    NC2D1     HCP1     9     0.000000     0.000000     1 ; par22 HB CT1 NH1 H
    HCA1   CC3162    NC2D1    CC2O1     9     0.000000     0.000000     1 ; par22 HB CT1 NH1 C
   NC2D1   CC3162   CC3161     HCA1     9     0.000000     0.836800     3 ; par27 X CTL1 CTL1 X
   NC2D1   CC3162   CC3161   CC3161     9     0.000000     0.836800     3 ; par27 X CTL1 CTL1 X
    HCP1    NC2D1   CC3162   CC3161     9     0.000000     0.000000     1 ; par22 H NH1 CT1 CT1
   NC2D1   CC3162   CC3161    OC311     9     0.000000     0.836800     3 ; par27 X CTL1 CTL1 X
  CC311D   CC311D    NC2D1    CC2O1     9   180.000000     2.092000     1 ; og fit to IPAA
   CC2O1    NC2D1   CC311D   CC321C     9   180.000000     2.092000     1 ; og fit to IPAA
   CC2O1    NC2D1   CC311D   OC3C61     9   180.000000    11.296800     1 ; 
   CC2O1    NC2D1   CC311D   OC3C61     9     0.000000     5.355520     2 ; 
   CC2O1    NC2D1   CC3162   CC3161     9   180.000000     2.092000     1 ; og fit to IPAA
   CC2O1    NC2D1   CC3162   OC3C61     9   180.000000    11.296800     1 ; 
   CC2O1    NC2D1   CC3162   OC3C61     9     0.000000     5.355520     2 ; 
     NH3      CT1    CC321     HCA2     9     0.000000     0.836800     3 ; X    CT1  CT2  X        0.2000  3     0.00 ! ALLOW   ALI
     NH1      CT1    CC321     HCA2     9     0.000000     0.836800     3 ; X    CT1  CT2  X        0.2000  3     0.00 ! ALLOW   AL
     NH3      CT1    CC321    CC2O1     9     0.000000     0.836800     3 ; X    CT1  CT2  X        0.2000  3     0.00 ! ALLOW   ALI
     NH1      CT1    CC321    CC2O1     9     0.000000     0.836800     3 ; X    CT1  CT2  X        0.2000  3     0.00 ! ALLOW   ALI
     CT1    CC321    CC2O1    OC2D1     9   180.000000     0.209200     6 ; X    CT2  CC   X        0.0500  6   180.00 ! ALLOW   POL PEP
     CT1    CC321    CC2O1    NC2D1     9   180.000000     0.209200     6 ; X    CT2  CC   X        0.0500  6   180.00 ! ALLOW   POL PEP
     HB1      CT1    CC321     HCA2     9     0.000000     0.836800     3 ; X    CT1  CT2  X        0.2000  3     0.00 ! ALLOW   ALI
     HB1      CT1    CC321    CC2O1     9     0.000000     0.836800     3 ; X    CT1  CT2  X        0.2000  3     0.00 ! ALLOW   ALI
   CC321    CC2O1    NC2D1     HCP1     9   180.000000    10.460000     2 ; HCP1    NC2D1   CC2O1   CC331    2.50  2  180.0 ! par22 H NH1 C   CT3
   CC321    CC2O1    NC2D1   CC3162     9     0.000000     6.694400     1 ; CC3161  NC2D1   CC2O1   CC331    1.60  1    0.0 ! par22 CT1 NH1 C CT3
   CC321    CC2O1    NC2D1   CC3162     9   180.000000    10.460000     2 ; CC3161  NC2D1   CC2O1   CC331    2.50  2  180.0 ! "
    HCA2    CC321      CT1       CC     9     0.000000     0.836800     3 ; X    CT1  CT2  X        0.2000  3     0.00 ! ALLOW   ALI
    HCA2    CC321      CT1        C     9     0.000000     0.836800     3 ; X    CT1  CT2  X        0.2000  3     0.00 ! ALLOW   ALI
    HCA2    CC321    CC2O1    OC2D1     9   180.000000     0.000000     3 ; HCA3    CC331   CC2O1   OC2D1    0.00  3  180.0 ! par22 O C    CT3  HA
    HCA2    CC321    CC2O1    NC2D1     9     0.000000     0.000000     3 ; NC2D1   CC2O1   CC331   HCA3     0.00  3    0.0 ! par22 NH1 C CT3 HA
   CC2O1    CC321      CT1       CC     9     0.000000     0.836800     3 ; X    CT1  CT2  X        0.2000  3     0.00 ! ALLOW   ALI
   CC2O1    CC321      CT1        C     9     0.000000     0.836800     3 ; X    CT1  CT2  X        0.2000  3     0.00 ! ALLOW   ALI
   CC321      CT1        C        O     9     0.000000     5.857600     1 ; O    C    CT1  CT2      1.4000  1     0.00 !   ALLOW PEP
       H      NH1      CT1    CC321     9     0.000000     0.000000     1 ; H    NH1  CT1  CT2      0.0000  1     0.00 ! ALLOW PEP
       C      NH1      CT1    CC321     9     0.000000     7.531200     1 ; CT2  CT1  NH1  C        1.8000  1     0.00 ! ALLOW PEP
   CC321      CT1        C      NH1     9     0.000000     0.000000     1 ; NH1  C    CT1  CT2      0.0000  1     0.00 !   ALLOW PEP
  CC311D    OC301      CT2       HA     9     0.000000     1.188256     3 ; CC311D  OC301   CC331   HCA3     0.284 3    0.0 ! par35 HCA3 CC33A OC30A CC32A
  CC311D    OC301      CT2      HA2     9     0.000000     1.188256     3 ; CC311D  OC301   CC331   HCA3     0.284 3    0.0 ! par35 HCA3 CC33A OC30A CC32A
      HA      CT2    OC301   CC3162     9     0.000000     1.188256     3 ; CC3162  OC301   CC331   HCA3     0.284 3    0.0 ! par35 HCA3 CC33A OC30A CC32A
     HA2      CT2    OC301   CC3162     9     0.000000     1.188256     3 ; CC3162  OC301   CC331   HCA3     0.284 3    0.0 ! par35 HCA3 CC33A OC30A CC32A
  CC311D    OC301      CT1       HA     9     0.000000     1.188256     3 ; CC311D  OC301   CC331   HCA3     0.284 3    0.0 ! par35 HCA3 CC33A OC30A CC32A
  CC311D    OC301      CT1      HA1     9     0.000000     1.188256     3 ; CC311D  OC301   CC331   HCA3     0.284 3    0.0 ! par35 HCA3 CC33A OC30A CC32A
      HA      CT1    OC301   CC3162     9     0.000000     1.188256     3 ; CC3162  OC301   CC331   HCA3     0.284 3    0.0 ! par35 HCA3 CC33A OC30A CC32A
     HA1      CT1    OC301   CC3162     9     0.000000     1.188256     3 ; CC3162  OC301   CC331   HCA3     0.284 3    0.0 ! par35 HCA3 CC33A OC30A CC32A
     CT2    OC301   CC311D     HCA1     9     0.000000     1.188256     3 ; CC331   OC301   CC311D  HCA1     0.284 3    0.0 ! par35 HCA2 CC32A OC30A CC32A
     CT2    OC301   CC3162     HCA1     9     0.000000     1.188256     3 ; CC331   OC301   CC3162  HCA1     0.284 3    0.0 ! par35 HCA2 CC32A OC30A CC32A
     CT1    OC301   CC311D     HCA1     9     0.000000     1.188256     3 ; CC331   OC301   CC311D  HCA1     0.284 3    0.0 ! par35 HCA2 CC32A OC30A CC32A
     CT1    OC301   CC3162     HCA1     9     0.000000     1.188256     3 ; CC331   OC301   CC3162  HCA1     0.284 3    0.0 ! par35 HCA2 CC32A OC30A CC32A
  CC321C   CC311D    OC301      CT2     9   180.000000     5.773920     1 ; 
  CC321C   CC311D    OC301      CT2     9   180.000000     5.146320     2 ; 
  CC321C   CC311D    OC301      CT2     9     0.000000     1.046000     3 ; 
  CC321C   CC311D    OC301      CT1     9   180.000000     4.811600     1 ; 
  CC321C   CC311D    OC301      CT1     9   180.000000     6.443360     2 ; 
  CC321C   CC311D    OC301      CT1     9     0.000000     1.631760     3 ; 
     CT2    OC301   CC311D   OC3C61     9     0.000000     1.129680     1 ; 
     CT2    OC301   CC311D   OC3C61     9     0.000000     0.920480     2 ; 
     CT2    OC301   CC311D   OC3C61     9     0.000000     0.292880     3 ; 
     CT1    OC301   CC311D   OC3C61     9   180.000000     1.799120     1 ; 
     CT1    OC301   CC311D   OC3C61     9     0.000000     0.209200     2 ; 
     CT1    OC301   CC311D   OC3C61     9   180.000000     2.343040     3 ; 
  CC311D    OC301      CT1      CT3     9   180.000000     6.359680     1 ; 
  CC311D    OC301      CT1      CT3     9   180.000000     0.167360     2 ; 
  CC311D    OC301      CT1      CT3     9   180.000000     1.882800     3 ; 
  CC311D    OC301      CT2      CT1     9   180.000000     8.451680     1 ; 
  CC311D    OC301      CT2      CT1     9     0.000000     0.167360     2 ; 
  CC311D    OC301      CT2      CT1     9   180.000000     4.058480     3 ; 
  CC311D    OC301      CT1      CT1     9   180.000000     9.246640     1 ; 
  CC311D    OC301      CT1      CT1     9   180.000000     0.041840     2 ; 
  CC311D    OC301      CT1      CT1     9     0.000000     0.125520     3 ; 
     NH1      CT1      CT2    OC301     9   180.000000     1.757280     1 ; 
     NH1      CT1      CT2    OC301     9   180.000000     2.845120     2 ; 
     NH1      CT1      CT2    OC301     9     0.000000     4.435040     3 ; 
     NH1      CT1      CT1    OC301     9     0.000000     1.966480     1 ; 
     NH1      CT1      CT1    OC301     9     0.000000     6.694400     2 ; 
     NH1      CT1      CT1    OC301     9   180.000000     1.631760     3 ; 
     NH3      CT1      CT2    OC301     9   180.000000     1.757280     1 ; 
     NH3      CT1      CT2    OC301     9   180.000000     2.845120     2 ; 
     NH3      CT1      CT2    OC301     9     0.000000     4.435040     3 ; 
     NH3      CT1      CT1    OC301     9     0.000000     1.966480     1 ; 
     NH3      CT1      CT1    OC301     9     0.000000     6.694400     2 ; 
     NH3      CT1      CT1    OC301     9   180.000000     1.631760     3 ; 
       C      CT1      CT2    OC301     9   180.000000     1.715440     1 ; 
       C      CT1      CT2    OC301     9   180.000000     1.338880     2 ; 
       C      CT1      CT2    OC301     9   180.000000     4.978960     3 ; 
       C      CT1      CT1    OC301     9     0.000000     4.309520     1 ; 
       C      CT1      CT1    OC301     9     0.000000     5.899440     2 ; 
       C      CT1      CT1    OC301     9     0.000000     2.761440     3 ; 
  CC3161   CC3162    OC301      CT2     9   180.000000     5.773920     1 ; 
  CC3161   CC3162    OC301      CT2     9   180.000000     5.146320     2 ; 
  CC3161   CC3162    OC301      CT2     9     0.000000     1.046000     3 ; 
  CC3161   CC3162    OC301      CT1     9   180.000000     4.811600     1 ; 
  CC3161   CC3162    OC301      CT1     9   180.000000     6.443360     2 ; 
  CC3161   CC3162    OC301      CT1     9     0.000000     1.631760     3 ; 
     CT2    OC301   CC3162   OC3C61     9     0.000000     1.129680     1 ; 
     CT2    OC301   CC3162   OC3C61     9     0.000000     0.920480     2 ; 
     CT2    OC301   CC3162   OC3C61     9     0.000000     0.292880     3 ; 
     CT1    OC301   CC3162   OC3C61     9   180.000000     1.799120     1 ; 
     CT1    OC301   CC3162   OC3C61     9     0.000000     0.209200     2 ; 
     CT1    OC301   CC3162   OC3C61     9   180.000000     2.343040     3 ; 
  CC3162    OC301      CT1      CT3     9   180.000000     6.359680     1 ; 
  CC3162    OC301      CT1      CT3     9   180.000000     0.167360     2 ; 
  CC3162    OC301      CT1      CT3     9   180.000000     1.882800     3 ; 
  CC3162    OC301      CT2      CT1     9   180.000000     8.451680     1 ; 
  CC3162    OC301      CT2      CT1     9     0.000000     0.167360     2 ; 
  CC3162    OC301      CT2      CT1     9   180.000000     4.058480     3 ; 
  CC3162    OC301      CT1      CT1     9   180.000000     9.246640     1 ; 
  CC3162    OC301      CT1      CT1     9   180.000000     0.041840     2 ; 
  CC3162    OC301      CT1      CT1     9     0.000000     0.125520     3 ; 

; specific (non-wildcard) dihedral parameters from toppar_c36_jul22/stream/carb/toppar_all36_carb_imlab.str
;      i        j        k        l  func         phi0         kphi  mult
    HCA2    CC322    CC312   CC3163     9     0.000000     0.836800     3 ; X CTL1 CTL2 X             ; all36 lipid
  CC3163    CC312    CC322    OC311     9     0.000000     0.836800     3 ; X CTL1 CTL2 X
    HCA1   CC3163    CC312    CC322     9     0.000000     0.836800     3 ; X CTL1 CTL1 X
   CC322    CC312   CC3163   OC3C61     9     0.000000     0.836800     3 ; X CTL1 CTL1 X
  CC3161   CC3163    CC312    CC322     9     0.000000     0.836800     3 ; X CTL1 CTL1 X
   CC312   CC3163   CC3161    OC311     9     0.000000     0.836800     3 ; X CTL1 CTL1 X
  CC3261   CC3161   CC3161    OC311     9     0.000000     0.836800     3 ; CC3161  CC3161  CC3161  OC311
  CC3261   CC3161    OC301   CC3062     9   180.000000     0.543920     1 ; CC3161 CC3161 OC301 CC3062 ; all36 carb
  CC3261   CC3161    OC301   CC3062     9   180.000000     1.046000     2 ; "
  CC3261   CC3161    OC301   CC3062     9   180.000000     0.251040     3 ; "
  CC3062   CC3261   CC3161    OC301     9     0.000000     0.836800     3 ; CC3161 CC3261 CC3062 OC301 ; all36 carb
  CC3162   OC3C61   CC3163    CC312     9     0.000000     0.836800     3 ; CC321 CC3163 OC3C61 CC3162 ; all36 carb
   CC312   CC3163   CC3161    OC301     9     0.000000     0.836800     3 ; CC321  CC3163 CC3161 OC301 ; all36 carb
   OC30P   CC3161   CC3163    CC312     9     0.000000     0.836800     3 ; CC321 CC3163 CC3161 OC30P  ; all36 carb
  CC3163    CC312    CC322    OC301     9     0.000000     0.836800     3 ; CC3163 CC312 CC312 OC311   ; all36 carb
   CC312    CC322    OC301   CC3162     9   180.000000     2.677760     1 ; CC3163 CC321 OC301 CC3162  ; all36 carb
   CC312    CC322    OC301   CC3162     9   180.000000     0.125520     2 ; "
   CC312    CC322    OC301   CC3162     9     0.000000     2.552240     3 ; "
    HCA1   CC3162    OC301    CC322     9     0.000000     1.188256     3 ; CC321  OC301 CC3162 HCA1   ; all36 carb
   CC322    OC301   CC3162   OC3C61     9     0.000000     0.585760     1 ; CC321  OC301 CC3162 OC3C61 ; all36 carb
   CC322    OC301   CC3162   OC3C61     9     0.000000     4.058480     2 ; "
   CC322    OC301   CC3162   OC3C61     9   180.000000     0.460240     3 ; "
   CC322    OC301   CC3162   CC3161     9     0.000000     0.920480     1 ; CC321  OC301 CC3162 CC3161 ; all36 carb
   CC322    OC301   CC3162   CC3161     9   180.000000     1.171520     2 ; "
   CC322    OC301   CC3162   CC3161     9     0.000000     3.723760     3 ; "
    HCA2    CC322    OC301   CC3162     9     0.000000     1.188256     3 ; HCA2   CC321 OC301  CC3162 ; all36 carb
  CC3161    OC30P       PC    OC30P     9   180.000000     5.020800     1 ; OSLP PL   OSLP CTL2     1.20    1   180.00 ! phosphate, new NA, 4/98, adm jr.
  CC3161    OC30P       PC    OC30P     9   180.000000     0.418400     2 ; OSLP PL   OSLP CTL2     0.10    2   180.00 ! phosphate, new NA, 4/98, adm jr.
  CC3161    OC30P       PC    OC30P     9   180.000000     0.418400     3 ; OSLP PL   OSLP CTL2     0.10    3   180.00 ! phosphate, new NA, 4/98, adm jr.
   NG3P3    CG324    CG321    OC30P     9   180.000000     2.928800     1 ; based on "OG311  CG321  CG324  NG3P3"
   CG324    CG321    OC30P       PC     9     0.000000     1.702888     2 ; PL   OSLP CTL2 CTL2     0.407   2     0.00 ! Phos-gly, 8/05
   CG324    CG321    OC30P       PC     9   180.000000     1.008344     1 ; PL   OSLP CTL2 CTL2     0.241   1   180.00 ! Phos-gly, 8/05
   OC30P    CG321    CG324     HGA2     9     0.000000     0.794960     3 ; X    CTL2 CTL2 X        0.190   3     0.00 ! alkane, 4/98, yin and mackerell
   CC321    OC30P       PC    OC30P     9   180.000000     5.020800     1 ; OSLP PL   OSLP CTL2     1.20    1   180.00 ! phosphate, new NA, 4/98, adm jr.
   CC321    OC30P       PC    OC30P     9   180.000000     0.418400     2 ; OSLP PL   OSLP CTL2     0.10    2   180.00 ! phosphate, new NA, 4/98, adm jr.
   CC321    OC30P       PC    OC30P     9   180.000000     0.418400     3 ; OSLP PL   OSLP CTL2     0.10    3   180.00 ! phosphate, new NA, 4/98, adm jr.
   CG321    OC30P       PC    OC2DP     9     0.000000     0.418400     3 ; O2L  PL   OSLP CTL2     0.10    3     0.00 ! phosphate, new NA, 4/98, adm jr.
    HGA2    CG321    OC30P       PC     9     0.000000     0.000000     3 ; X    CTL2 OSLP X        0.00    3     0.00 ! phosphate, new NA, 4/98, adm jr.
   CG321    OC30P       PC    OC30P     9   180.000000     5.020800     1 ; OSLP PL   OSLP CTL2     1.20    1   180.00 ! phosphate, new NA, 4/98, adm jr.
   CG321    OC30P       PC    OC30P     9   180.000000     0.418400     2 ; OSLP PL   OSLP CTL2     0.10    2   180.00 ! phosphate, new NA, 4/98, adm jr.
   CG321    OC30P       PC    OC30P     9   180.000000     0.418400     3 ; OSLP PL   OSLP CTL2     0.10    3   180.00 ! phosphate, new NA, 4/98, adm jr.
   CC2O1    CC331      CT1      HA1     9     0.000000     0.836800     3 ; from, HA1  CT1  CT1  C, From X    CT1  CT1  X
   CC2O1    CC331      CT1      OH1     9   180.000000     3.305360     1 ; from, C    CT1  CT1  OH1
   CC2O1    CC331      CT1      OH1     9   180.000000     1.631760     2 ; 
   CC2O1    CC331      CT1      OH1     9   180.000000     4.142160     3 ; 
   CC2O1    CC331      CT1      CT3     9   180.000000     0.585760     1 ; from, C    CT1  CT1  CT3
   CC2O1    CC331      CT1      CT3     9   180.000000     1.087840     2 ; 
   CC2O1    CC331      CT1      CT3     9   180.000000     1.380720     3 ; 
   OC2D1    CC2O1    CC331      CT1     9     0.000000     5.857600     1 ; from, O    C    CT1  CT1,  ALLOW PEP
    HCA3    CC331      CT1      HA1     9     0.000000     0.836800     3 ; from, HB1  CT1  CT1  HA1, From X    CT1  CT1  X
    HCA3    CC331      CT1      OH1     9     0.000000     0.836800     3 ; from, HB1  CT1  CT1  OH1, From X    CT1  CT1  X
    HCA3    CC331      CT1      CT3     9     0.000000     0.836800     3 ; from, HB1  CT1  CT1  CT3, From X    CT1  CT1  X
   NC2D1    CC2O1    CC331      CT1     9     0.000000     0.000000     1 ; from, NH1  C    CT1  CT1,  ALLOW PEP
   CC2O1    CC321      CT1      HA1     9     0.000000     0.836800     3 ; from, HA1  CT1  CT1  C, From X    CT1  CT1  X
   CC2O1    CC321      CT1      OH1     9   180.000000     3.305360     1 ; from, C    CT1  CT1  OH1
   CC2O1    CC321      CT1      OH1     9   180.000000     1.631760     2 ; 
   CC2O1    CC321      CT1      OH1     9   180.000000     4.142160     3 ; 
   CC2O1    CC321      CT1      CT3     9   180.000000     0.585760     1 ; from, C    CT1  CT1  CT3
   CC2O1    CC321      CT1      CT3     9   180.000000     1.087840     2 ; 
   CC2O1    CC321      CT1      CT3     9   180.000000     1.380720     3 ; 
    HCA2    CC321      CT1      HA1     9     0.000000     0.836800     3 ; From X    CT1  CT2  X
    HCA2    CC321      CT1      OH1     9     0.000000     0.836800     3 ; From X    CT1  CT2  X
    HCA2    CC321      CT1      CT3     9     0.000000     0.836800     3 ; From X    CT1  CT2  X
  CC3162   OC3C61   CC3163    CC2O1     9     0.000000     0.836800     3 ; from, CC2O2   CC3163  OC3C61  CC3162, og/sng thp
  CC3163    CC2O1    NC2D1     HCP1     9   180.000000    10.460000     2 ; from, H    NH1  C    CT1,  ALLOW PEP
  CC3163    CC2O1    NC2D1      CT2     9     0.000000     6.694400     1 ; ALLOW PEP
  CC3163    CC2O1    NC2D1      CT2     9   180.000000    10.460000     2 ; from, CT2  NH1  C    CT1
    HCA1   CC3163    CC2O1    OC2D1     9     0.000000     0.000000     1 ; from, O    C    CT1  HB1,  ALLOW PEP
    HCA1   CC3163    CC2O1    NC2D1     9     0.000000     0.000000     1 ; from, NH1  C    CT1  HB1, ALLOW PEP PRO
  OC3C61   CC3163    CC2O1    OC2D1     9     0.000000     0.000000     1 ; 
  OC3C61   CC3163    CC2O1    NC2D1     9     0.000000     0.000000     1 ; from analogy of, NH1  C    CT1  CT1
  CC3161   CC3161   CC3163    CC2O1     9     0.000000     0.836800     3 ; from, CC3161  CC3161  CC3163  CC2O2, par27 X CTL1 CTL1 X
  CC3161   CC3163    CC2O1    OC2D1     9     0.000000     5.857600     1 ; from, O  C    CT1  CT1
  CC3161   CC3163    CC2O1    NC2D1     9     0.000000     0.000000     1 ; from, NH1  C    CT1  CT1,  ALLOW PEP
    HCA1   CC3161   CC3163    CC2O1     9     0.000000     0.836800     3 ; from, HA1  CT1  CT1  C, From X    CT1  CT1  X
   OC311   CC3161   CC3163    CC2O1     9   180.000000     3.305360     1 ; from, C    CT1  CT1  OH1
   OC311   CC3161   CC3163    CC2O1     9   180.000000     1.631760     2 ; 
   OC311   CC3161   CC3163    CC2O1     9   180.000000     4.142160     3 ; 
   CC2O1    NC2D1      CT2      HB2     9     0.000000     0.000000     1 ; from, HB2  CT2  NH1  C, /ALLOW PEP
   CC2O1    NC2D1      CT2       CC     9   180.000000     8.368000     1 ; from, CC   CT2  NH1  C, ALLOW PEP POL
   OC2D1    CC2O1    NC2D1      CT2     9   180.000000    10.460000     2 ; from, O    C    NH1  CT2,  ALLOW PEP
    HCP1    NC2D1      CT2      HB2     9     0.000000     0.000000     1 ; from, HB2  CT2  NH1  H, ALLOW PEP
    HCP1    NC2D1      CT2       CC     9     0.000000     0.000000     1 ; from, H    NH1  CT2  CC, ALLOW PEP POL
   CC2O1   CC3163   CC3161    OC301     9     0.000000     0.836800     3 ; par27 X CTL1 CTL1 X
  CC3161    NC2D1    CC2O1      CT1     9     0.000000     6.694400     1 ; ALLOW PEP
  CC3161    NC2D1    CC2O1      CT1     9   180.000000    10.460000     2 ; from, CT1  C    NH1  CT1
   NC2D1    CC2O1      CT1      HB1     9     0.000000     0.000000     1 ; from, NH1  C    CT1  HB1, ALLOW PEP
   NC2D1    CC2O1      CT1      NH3     9     0.000000     2.510400     1 ; from, NH3  CT1  C    NH1, ALLOW PEP PRO
   NC2D1    CC2O1      CT1      CT3     9     0.000000     0.000000     1 ; from, NH1  C    CT1  CT3, ALLOW PEP
    HCP1    NC2D1    CC2O1      CT1     9   180.000000    10.460000     2 ; from, H    NH1  C    CT1,  ALLOW PEP
   OC2D1    CC2O1      CT1      HB1     9     0.000000     0.000000     1 ; from, O    C    CT1  HB1, ALLOW PEP
   OC2D1    CC2O1      CT1      NH3     9     0.000000     0.000000     1 ; from, O    C    CT1  NH3, ALLOW PEP PRO
   OC2D1    CC2O1      CT1      CT3     9     0.000000     5.857600     1 ; from, O    C    CT1  CT3,  ALLOW PEP
  CC3162   OC3C61   CC3163      CT1     9     0.000000     0.836800     3 ; from, CC321   CC3163  OC3C61  CC3162, og/sng thp
  CC3163      CT1    OC30P       PC     9   180.000000     0.083680     3 ; 
    HCA1   CC3163      CT1     HCA1     9     0.000000     0.836800     3 ; From X    CT1  CT1  X
    HCA1   CC3163      CT1    OC30P     9     0.000000     0.836800     3 ; from, par27 X CTL1 CTL2 X
    HCA1   CC3163      CT1      CT2     9     0.000000     0.836800     3 ; from, par27 X CTL1 CTL2 X
  OC3C61   CC3163      CT1     HCA1     9     0.000000     0.836800     3 ; from, par27 X CTL1 CTL1 X
  OC3C61   CC3163      CT1    OC30P     9     0.000000     0.251040     1 ; from, OC3C61   CC3163    CC321     OC30P
  OC3C61   CC3163      CT1    OC30P     9     0.000000     3.263520     2 ; 
  OC3C61   CC3163      CT1    OC30P     9   180.000000     3.096160     3 ; 
  OC3C61   CC3163      CT1      CT2     9     0.000000     0.836800     3 ; from, par27 X CTL1 CTL1 X
  CC3161   CC3161   CC3163      CT1     9     0.000000     0.836800     3 ; from, par27 X CTL1 CTL1 X
  CC3161   CC3163      CT1     HCA1     9     0.000000     0.836800     3 ; from, par27 X CTL1 CTL2 X
  CC3161   CC3163      CT1    OC30P     9     0.000000     1.799120     3 ; from, CC3161   CC3163    CC321     OC30P
  CC3161   CC3163      CT1      CT2     9     0.000000     0.836800     3 ; from, par27 X CTL1 CTL2 X
    HCA1   CC3161   CC3163      CT1     9     0.000000     0.836800     3 ; from, par27 X CTL1 CTL2 X
   OC311   CC3161   CC3163      CT1     9     0.000000     0.836800     3 ; from, par27 X CTL1 CTL1 X
     CT1    OC30P       PC    OC2DP     9     0.000000     1.380720     3 ; from, CC3162   OC30P     PC        OC2DP
    HCA1      CT1    OC30P       PC     9     0.000000     1.188256     3 ; dmp,eps, H-C3'-O3'-P || from the par_all27_na.prm
      PC    OC30P      CT1      CT2     9   180.000000     0.083680     3 ; 
     CT2       OS       CC       OB     9   180.000000     4.037560     1 ; ALLOW   PEP POL
     CT2       OS       CC       OB     9   180.000000    16.108400     2 ; from, OB   CD   OS   CT2
     CT2       OS       CC      NH2     9   180.000000     8.577200     2 ; from, X    CD   OS   X, ALLOW   PEP POL
      OS       CC      NH2        H     9   180.000000     5.857600     2 ; from, O    CC   NH2  H, ALLOW PEP POL ARO PRO
      OB       CC      NH2        H     9   180.000000     5.857600     2 ; from, O    CC   NH2  H, ALLOW PEP POL ARO PRO
  CC3163    CC312    CC321     HCA2     9     0.000000     0.836800     3 ; from, par27 X CTL1 CTL2 X
  CC3163    CC312    CC321    OC2D2     9     0.000000     0.836800     3 ; from, par27 X CTL1 CTL2 X
    HCA1   CC3163    CC312    CC321     9     0.000000     0.836800     3 ; from, par27 X CTL1 CTL2 X
  OC3C61   CC3163    CC312    CC321     9     0.000000     0.836800     3 ; from, par27 X CTL1 CTL2 X
  CC3161   CC3163    CC312    CC321     9     0.000000     0.836800     3 ; from, par27 X CTL1 CTL2 X
   CC312    CC321    OC2D2    CC2O1     9     0.000000    -0.418400     3 ; ALLOW   PEP POL
    HCA1    CC312    CC321     HCA2     9     0.000000     0.836800     3 ; from, par27 X CTL1 CTL2 X
    HCA1    CC312    CC321    OC2D2     9     0.000000     0.836800     3 ; from, par27 X CTL1 CTL2 X
   OC311    CC312    CC321     HCA2     9     0.000000     0.836800     3 ; from, par27 X CTL1 CTL2 X
   OC311    CC312    CC321    OC2D2     9     0.000000     0.836800     3 ; from, par27 X CTL1 CTL2 X
    HCP1    OC311    CC312    CC321     9     0.000000     1.464400     1 ; from, CC322   CC312   OC311   HCP1
    HCP1    OC311    CC312    CC321     9     0.000000     1.548080     2 ; 
    HCP1    OC311    CC312    CC321     9   180.000000     0.794960     3 ; 
   CC321    OC2D2    CC2O1    OC2D1     9   180.000000     4.037560     1 ; ALLOW   PEP POL
   CC321    OC2D2    CC2O1    OC2D1     9   180.000000    16.108400     2 ; 
   CC321    OC2D2    CC2O1    NC2D1     9   180.000000     8.577200     2 ; from, X    CD   OS   X,
    HCA2    CC321    OC2D2    CC2O1     9     0.000000    -0.418400     3 ; ALLOW   PEP POL
   OC2D2    CC2O1    NC2D1     HCP1     9   180.000000     5.857600     2 ; from, O    CC   NH2  H
   OC30P    CC312    CC321     HCA2     9     0.000000     0.836800     3 ; from, par27 X CTL1 CTL2 X
   OC30P    CC312    CC321    OC2D2     9     0.000000     0.836800     3 ; from, par27 X CTL1 CTL2 X
      PC    OC30P    CC312    CC321     9   180.000000     0.083680     3 ; 
  CC3163    CC312    OC30P       PC     9     0.000000     1.702888     2 ; from, PL   OSLP CTL2 CTL1
  CC3163    CC312    OC30P       PC     9   180.000000     1.008344     1 ; 
    HCA1   CC3163    CC312    OC30P     9   180.000000     0.000000     6 ; from, HCA1     CC3163    CC321     OC30P
  OC3C61   CC3163    CC312    OC30P     9     0.000000     0.251040     1 ; from, OC3C61   CC3163    CC321     OC30P
  OC3C61   CC3163    CC312    OC30P     9     0.000000     3.263520     2 ; 
  OC3C61   CC3163    CC312    OC30P     9   180.000000     3.096160     3 ; 
  CC3161   CC3163    CC312    OC30P     9     0.000000     1.799120     3 ; from, CC3161   CC3163    CC321     OC30P
  CC3162   CC3161    OC301        C     9   180.000000     0.543920     1 ; from, CC3162  CC3161  OC301   CC3162, og THP-1-O-2-CYHX
  CC3162   CC3161    OC301        C     9   180.000000     1.046000     2 ; "  MCSA fit
  CC3162   CC3161    OC301        C     9   180.000000     0.251040     3 ; "  MP2/cc-pVTZ//MP2/6-31G*
  CC3161    OC301        C      CT3     9   180.000000     8.577200     2 ; from, X    CD   OS   X, ALLOW   PEP POL
  CC3161    OC301        C        O     9   180.000000     4.037560     1 ; from, OB   CD   OS   CT2, ALLOW   PEP POL
  CC3161    OC301        C        O     9   180.000000    16.108400     2 ; 
       C    OC301   CC3161     HCA1     9     0.000000     1.188256     3 ; from, par35 HCA2 CC32A OC30A CC32A
       C    OC301   CC3161   CC3161     9   180.000000     0.543920     1 ; from, CC3162  CC3161  OC301   CC3162, og THP-1-O-2-CYHX
       C    OC301   CC3161   CC3161     9   180.000000     1.046000     2 ; "  MCSA fit
       C    OC301   CC3161   CC3161     9   180.000000     0.251040     3 ; "  MP2/cc-pVTZ//MP2/6-31G*
   OC30P       PC    OC30P       PC     9     0.000000     0.125520     2 ; from, PG1    OG304  PG1    OG304,  NA ppi, jjp1/adm jr. 7/95 !Reorganization:METP re-optimize?
   OC30P       PC    OC30P       PC     9     0.000000     0.125520     3 ; 
      PC    OC30P       PC    OC2DP     9     0.000000     0.418400     2 ; NA ppi2 !Reorganization:PPI2
      PC    OC30P       PC    OC2DP     9     0.000000     0.125520     3 ; NA ppi2 !Reorganization:PPI2
  CC3162   OC3C61   CC3163    CC322     9     0.000000     0.836800     3 ; from, CC321   CC3163  OC3C61  CC3162
  CC3163    CC322    CC322     HCA2     9     0.000000     0.794960     3 ; from, X    CT2  CT2  X
  CC3163    CC322    CC322    OC311     9     0.000000     0.794960     3 ; from, X    CT2  CT2  X
    HCA1   CC3163    CC322     HCA2     9     0.000000     0.836800     3 ; from, par27 X CTL1 CTL2 X
    HCA1   CC3163    CC322    CC322     9     0.000000     0.836800     3 ; from, par27 X CTL1 CTL2 X
  OC3C61   CC3163    CC322     HCA2     9     0.000000     0.836800     3 ; from, par27 X CTL1 CTL2 X
  OC3C61   CC3163    CC322    CC322     9     0.000000     0.836800     3 ; from, par27 X CTL1 CTL2 X
  CC3161   CC3161   CC3163    CC322     9     0.000000     0.836800     3 ; par27 X CTL1 CTL1 X
  CC3161   CC3163    CC322     HCA2     9     0.000000     0.836800     3 ; from, par27 X CTL1 CTL2 X
  CC3161   CC3163    CC322    CC322     9     0.000000     0.836800     3 ; from, par27 X CTL1 CTL2 X
    HCA1   CC3161   CC3163    CC322     9     0.000000     0.836800     3 ; par27 X CTL1 CTL1 X
   OC311   CC3161   CC3163    CC322     9     0.000000     0.836800     3 ; par27 X CTL1 CTL1 X
   CC322    CC322    OC311     HCP1     9     0.000000     1.464400     1 ; from, CC312   CC322   OC311   HCP1 erh n=6 polyol
   CC322    CC322    OC311     HCP1     9     0.000000     1.548080     2 ; " RIMP2/cc-pVTZ//MP2/631gd
   CC322    CC322    OC311     HCP1     9   180.000000     0.794960     3 ; " C2-C1-O1-HO1
    HCA2    CC322    CC322     HCA2     9     0.000000     0.794960     3 ; from, X    CT2  CT2  X
    HCA2    CC322    CC322    OC311     9     0.000000     0.794960     3 ; from, X    CT2  CT2  X
  CC3062   OC3C61   CC3163    CC311     9     0.000000     0.836800     3 ; from, CC312   CC3163  OC3C61  CC3062
  CC3163    CC311    NC2D1     HCP1     9     0.000000     0.000000     1 ; par22 H NH1 CT1 CT1
  CC3163    CC311    NC2D1    CC2O1     9   180.000000     2.092000     1 ; from, CC2O1   NC2D1   CC3161  CC3163, og fit to IPAA
  CC3163    CC311    CC312     HCA1     9     0.000000     0.836800     3 ; from, HCA1    CC3161  CC3163  CC312 par27 X CTL1 CTL1 X
  CC3163    CC311    CC312    OC311     9     0.000000     0.836800     3 ; from, CC3161  CC3163  CC312   OC311, par27 X CTL1 CTL1 X
  CC3163    CC311    CC312    CC331     9     0.000000     0.836800     3 ; from, par27 X CTL1 CTL1 X
    HCA1   CC3163    CC311     HCA1     9     0.000000     0.836800     3 ; from, HCA1    CC3163  CC312   HCA1, par27 X CTL1 CTL1 X
    HCA1   CC3163    CC311    NC2D1     9     0.000000     0.836800     3 ; from, HCA1    CC3163  CC3161  NC2D1, par27 X CTL1 CTL1 X
    HCA1   CC3163    CC311    CC312     9     0.000000     0.836800     3 ; from, HCA1    CC3163  CC312   CC312, par27 X CTL1 CTL1 X
  OC3C61   CC3163    CC311     HCA1     9     0.000000     0.836800     3 ; from, HCA1    CC312   CC3163  OC3C61, par27 X CTL1 CTL1 X
  OC3C61   CC3163    CC311    NC2D1     9     0.000000     0.836800     3 ; from, OC3C61  CC3163  CC3161  NC2D1, par27 X CTL1 CTL1 X
  OC3C61   CC3163    CC311    CC312     9     0.000000     0.836800     3 ; from, CC312   CC312   CC3163  OC3C61, par27 X CTL1 CTL1 X
  CC3161   CC3161   CC3163    CC311     9     0.000000     0.836800     3 ; from, CC3161  CC3161  CC3163  CC312, par27 X CTL1 CTL1 X
  CC3161   CC3163    CC311     HCA1     9     0.000000     0.836800     3 ; from, HCA1    CC312   CC3163  CC3161, par27 X CTL1 CTL1 X
  CC3161   CC3163    CC311    NC2D1     9     0.000000     0.836800     3 ; from, par27 X CTL1 CTL1 X
  CC3161   CC3163    CC311    CC312     9     0.000000     0.836800     3 ; from, CC3161  CC3163  CC312   CC312, par27 X CTL1 CTL1 X
    HCA1   CC3161   CC3163    CC311     9     0.000000     0.836800     3 ; from, HCA1    CC3161  CC3163  CC312, par27 X CTL1 CTL1 X
   NC2D1   CC3161   CC3163    CC311     9     0.000000     0.836800     3 ; from, CC312   CC3163  CC3161  NC2D1, par27 X CTL1 CTL1 X
   CC311    CC312    OC311     HCP1     9     0.000000     1.464400     1 ; from, CC312   CC312   OC311   HCP1, erh n=6 polyol
   CC311    CC312    OC311     HCP1     9     0.000000     1.548080     2 ; " RIMP2/cc-pVTZ//MP2/631gd
   CC311    CC312    OC311     HCP1     9   180.000000     0.794960     3 ; " C2-C3-O3-HO3
   CC311    CC312    CC331     HCA3     9     0.000000     0.836800     3 ; from, par22 X CT1 CT3 X
    HCA1    CC311    CC312     HCA1     9     0.000000     0.836800     3 ; par27 X CTL1 CTL1 X
    HCA1    CC311    CC312    OC311     9     0.000000     0.585760     3 ; from, HCA1    CC312   CC312   OC311, og ethanol
    HCA1    CC311    CC312    CC331     9     0.000000     0.836800     3 ; par27 X CTL1 CTL1 X
   NC2D1    CC311    CC312     HCA1     9     0.000000     0.836800     3 ; from, HCA1    CC3163  CC3161  NC2D1, par27 X CTL1 CTL1 X
   NC2D1    CC311    CC312    OC311     9     0.000000     0.836800     3 ; from, OC3C61  CC3163  CC3161  NC2D1, par27 X CTL1 CTL1 X
   NC2D1    CC311    CC312    CC331     9     0.000000     0.836800     3 ; par27 X CTL1 CTL1 X
    HCP1    NC2D1    CC311    CC312     9     0.000000     0.000000     1 ; par22 H NH1 CT1 CT1
   CC2O1    NC2D1    CC311    CC312     9   180.000000     2.092000     1 ; from, CC2O1   NC2D1   CC3161  CC3163, og fit to IPAA
    HCA1    CC312    CC331     HCA3     9     0.000000     0.836800     3 ; from, par22 X CT1 CT3 X
   OC311    CC312    CC331     HCA3     9     0.000000     0.836800     3 ; from, par22 X CT1 CT3 X
    HCP1    OC311    CC312    CC331     9     0.000000     1.004160     3 ; from, HCP1    OC311M  CC311   CC331, og ethanol
    HCP1    OC311    CC312    CC331     9     0.000000     0.585760     2 ; "
    HCP1    OC311    CC312    CC331     9     0.000000     4.727920     1 ; "
   CC2O2    CC312    OC311     HCP1     9   180.000000     3.430880     3 ; og amol mp2/ccpvtz
   CC2O2    CC312    CC322     HCA2     9     0.000000     0.836800     3 ; par27 X CTL1 CTL2 X
   CC2O2    CC312    CC322    OC311     9     0.000000     0.836800     3 ; par27 X CTL1 CTL2 X
   OC2D2    CC2O2    CC312     HCA1     9   180.000000     0.209200     6 ; par22 X CT1  CC   X
   OC2D2    CC2O2    CC312    OC311     9   180.000000     0.209200     6 ; par22 X CT1  CC   X
   OC2D2    CC2O2    CC312    CC322     9   180.000000     0.209200     6 ; par22 X CT1  CC   X
  OC3C51   CC3251   CC3151   CC3151     9     0.000000     5.188160     3 ; from, CC3151  CC3151  CC3153  OC3C51
  OC3C51   CC3251   CC3151     HCA1     9     0.000000     0.836800     3 ; from, OC3C51  CC3153  CC3151  HCA1
  OC3C51   CC3251   CC3151    OC311     9   180.000000     1.338880     1 ; from, OC3C51  CC3051  CC3151  OC311
  OC3C51   CC3251   CC3151    OC311     9   180.000000     2.719600     2 ; "
  OC3C51   CC3251   CC3151    OC311     9     0.000000    10.962080     3 ; "
  CC3051   OC3C51   CC3251     HCA2     9     0.000000     0.836800     3 ; 
  CC3051   OC3C51   CC3251   CC3151     9     0.000000     1.799120     3 ; from, CC3051  OC3C51  CC3153  CC3151, erh ketopentose MCSA
  CC3051   CC3151   CC3151   CC3251     9     0.000000     9.916080     3 ; from, CC3051  CC3151  CC3151  CC3153
   OC311   CC3051   OC3C51   CC3251     9   180.000000     0.794960     1 ; 
   OC311   CC3051   OC3C51   CC3251     9   180.000000    11.924400     2 ; 
   OC311   CC3051   OC3C51   CC3251     9     0.000000     3.598240     3 ; 
  CC3251   OC3C51   CC3051    CC321     9     0.000000     1.004160     1 ; from, CC3153  OC3C51  CC3051  CC321
  CC3251   OC3C51   CC3051    CC321     9   180.000000    12.552000     2 ; "
  CC3251   OC3C51   CC3051    CC321     9   180.000000     5.773920     3 ; "
  CC3251   OC3C51   CC3051   CC3151     9     0.000000     2.552240     3 ; from, CC3153  OC3C51  CC3051  CC3151
  CC3251   CC3151   CC3151     HCA1     9     0.000000     0.836800     3 ; 
  CC3251   CC3151   CC3151    OC311     9   180.000000     0.041840     1 ; from, CC3153  CC3151  CC3151  OC311
  CC3251   CC3151   CC3151    OC311     9     0.000000     3.012480     2 ; 
  CC3251   CC3151   CC3151    OC311     9     0.000000     3.054320     3 ; 
    HCA2   CC3251   CC3151   CC3151     9     0.000000     0.836800     3 ; 
  OC3C51   CC3153    CC312     HCA1     9     0.000000     0.836800     3 ; par22 X CT1 CT1 X
  OC3C51   CC3153    CC312    OC311     9   180.000000     6.276000     1 ; from, OC3C51  CC3153  CC321   OC311
  OC3C51   CC3153    CC312    OC311     9     0.000000     2.426720     2 ; 
  OC3C51   CC3153    CC312    OC311     9     0.000000     2.259360     3 ; 
  OC3C51   CC3153    CC312    CC322     9     0.000000     0.836800     3 ; par22 X CT1 CT1 X
  CC3152   OC3C51   CC3153    CC312     9     0.000000     1.255200     3 ; from, CC3152  OC3C51  CC3153  CC321
  CC3153    CC312    OC311     HCP1     9     0.000000     0.502080     1 ; 
  CC3153    CC312    OC311     HCP1     9     0.000000     1.757280     2 ; 
  CC3153    CC312    OC311     HCP1     9     0.000000     1.213360     3 ; 
  CC3153    CC312    CC322     HCA2     9     0.000000     0.836800     3 ; par22 X CT2 CT1 X
  CC3153    CC312    CC322    OC311     9     0.000000     0.836800     3 ; par22 X CT2 CT1 X
    HCA1   CC3153    CC312     HCA1     9     0.000000     0.836800     3 ; par22 X CT1 CT1 X
    HCA1   CC3153    CC312    OC311     9     0.000000     0.585760     3 ; from, OC311   CC321   CC3153  HCA1
    HCA1   CC3153    CC312    CC322     9     0.000000     0.836800     3 ; par22 X CT1 CT1 X
  CC3151   CC3151   CC3153    CC312     9     0.000000     0.836800     3 ; par22 X CT1 CT1 X
  CC3151   CC3153    CC312     HCA1     9     0.000000     0.836800     3 ; par22 X CT1 CT1 X
  CC3151   CC3153    CC312    OC311     9     0.000000     0.041840     1 ; from, CC3151  CC3153  CC321   OC311
  CC3151   CC3153    CC312    OC311     9     0.000000     0.585760     2 ; 
  CC3151   CC3153    CC312    OC311     9   180.000000     2.928800     3 ; 
  CC3151   CC3153    CC312    CC322     9     0.000000     0.836800     3 ; par22 X CT1 CT1 X
    HCA1   CC3151   CC3153    CC312     9     0.000000     0.836800     3 ; par22 X CT1 CT1 X
   OC311   CC3151   CC3153    CC312     9   180.000000     3.179840     1 ; from, CC321   CC3153  CC3151  OC311
   OC311   CC3151   CC3153    CC312     9   180.000000     1.673600     2 ; 
   OC311   CC3151   CC3153    CC312     9   180.000000     1.673600     3 ; 
  OC3C51   CC3153    CC312    CC331     9     0.000000     0.836800     3 ; par22 X CT1 CT1 X
  CC3153    CC312    CC331     HCA3     9     0.000000     0.836800     3 ; 
    HCA1   CC3153    CC312    CC331     9     0.000000     0.836800     3 ; par22 X CT2 CT1 X
  CC3151   CC3153    CC312    CC331     9     0.000000     0.836800     3 ; par22 X CT1 CT1 X
  CC3163   CC3161    OC301    CC2O5     9   180.000000     0.543920     1 ; from, CC3162  CC3161  OC301   CC3162, og THP-1-O-2-CYHX
  CC3163   CC3161    OC301    CC2O5     9   180.000000     1.046000     2 ; "  MCSA fit
  CC3163   CC3161    OC301    CC2O5     9   180.000000     0.251040     3 ; "  MP2/cc-pVTZ//MP2/6-31G*
  CC3163    CC321    OC301    CC2O5     9   180.000000     2.677760     1 ; og compounds 11 and 12
  CC3163    CC321    OC301    CC2O5     9   180.000000     0.125520     2 ; "  MCSA fit
  CC3163    CC321    OC301    CC2O5     9     0.000000     2.552240     3 ; "  MP2/cc-pVTZ//MP2/6-31G*
   CC321    OC301    CC2O5    CC331     9   180.000000     8.577200     2 ; from, X    CD   OS   X, ALLOW   PEP POL
   CC321    OC301    CC2O5    OC2D1     9   180.000000     4.037560     1 ; from, OB   CD   OS   CT2, ALLOW   PEP POL
   CC321    OC301    CC2O5    OC2D1     9   180.000000    16.108400     2 ; 
   CC2O5    OC301    CC321     HCA2     9     0.000000     0.000000     3 ; from, HCA1    CC3161  OC301   CC2O5
  CC3163    CC312    OC301    CC2O5     9   180.000000     2.677760     1 ; og compounds 11 and 12
  CC3163    CC312    OC301    CC2O5     9   180.000000     0.125520     2 ; "  MCSA fit
  CC3163    CC312    OC301    CC2O5     9     0.000000     2.552240     3 ; "  MP2/cc-pVTZ//MP2/6-31G*
    HCA1   CC3163    CC312    OC301     9     0.000000     0.836800     3 ; par27 X CTL1 CTL1 X
  OC3C61   CC3163    CC312    OC301     9   180.000000     6.236670     1 ; from, OC301   CC321   CC3163  OC3C61
  OC3C61   CC3163    CC312    OC301     9     0.000000     1.572766     2 ; 
  OC3C61   CC3163    CC312    OC301     9     0.000000     2.475254     3 ; 
  CC3161   CC3163    CC312    OC301     9   180.000000     2.092000     1 ; from, CC3161  CC3163  CC321   OC301
  CC3161   CC3163    CC312    OC301     9   180.000000     1.548080     2 ; 
  CC3161   CC3163    CC312    OC301     9     0.000000     0.627600     3 ; 
   CC312    OC301    CC2O5    CC331     9   180.000000     8.577200     2 ; from, X    CD   OS   X, ALLOW   PEP POL
   CC312    OC301    CC2O5    OC2D1     9   180.000000     4.037560     1 ; from, OB   CD   OS   CT2, ALLOW   PEP POL
   CC312    OC301    CC2O5    OC2D1     9   180.000000    16.108400     2 ; 
   CC2O5    OC301    CC312     HCA1     9     0.000000     0.000000     3 ; from, HCA1    CC3161  OC301   CC2O5
   CC2O5    OC301    CC312    CC312     9   180.000000     0.543920     1 ; from, CC3162  CC3161  OC301   CC3162, og THP-1-O-2-CYHX
   CC2O5    OC301    CC312    CC312     9   180.000000     1.046000     2 ; "  MCSA fit
   CC2O5    OC301    CC312    CC312     9   180.000000     0.251040     3 ; "  MP2/cc-pVTZ//MP2/6-31G*
   OC301    CC312    CC312    CC322     9     0.000000     0.836800     3 ; par27 X CTL1 CTL1 X
   CC2O5    OC301    CC312    CC322     9   180.000000     0.543920     1 ; from, CC3162  CC3161  OC301   CC3162, og THP-1-O-2-CYHX
   CC2O5    OC301    CC312    CC322     9   180.000000     1.046000     2 ; "  MCSA fit
   CC2O5    OC301    CC312    CC322     9   180.000000     0.251040     3 ; "  MP2/cc-pVTZ//MP2/6-31G*
   CC312    CC322    OC301    CC2O5     9   180.000000     2.677760     1 ; og compounds 11 and 12
   CC312    CC322    OC301    CC2O5     9   180.000000     0.125520     2 ; "  MCSA fit
   CC312    CC322    OC301    CC2O5     9     0.000000     2.552240     3 ; "  MP2/cc-pVTZ//MP2/6-31G*
   CC322    OC301    CC2O5    CC331     9   180.000000     8.577200     2 ; from, X    CD   OS   X, ALLOW   PEP POL
   CC322    OC301    CC2O5    OC2D1     9   180.000000     4.037560     1 ; from, OB   CD   OS   CT2, ALLOW   PEP POL
   CC322    OC301    CC2O5    OC2D1     9   180.000000    16.108400     2 ; 
   CC2O5    OC301    CC322     HCA2     9     0.000000     0.000000     3 ; from, HCA1    CC3161  OC301   CC2O
   CC311    CC312    OC301    CC2O5     9   180.000000     2.677760     1 ; og compounds 11 and 12
   CC311    CC312    OC301    CC2O5     9   180.000000     0.125520     2 ; "  MCSA fit
   CC311    CC312    OC301    CC2O5     9     0.000000     2.552240     3 ; 
   CC2O5    OC301    CC312    CC331     9   180.000000     2.677760     1 ; og compounds 11 and 12
   CC2O5    OC301    CC312    CC331     9   180.000000     0.125520     2 ; "  MCSA fit
   CC2O5    OC301    CC312    CC331     9     0.000000     2.552240     3 ; 
  OC3C51   CC3152   CC3151    OC301     9     0.000000     0.585760     1 ; from, OC3C51  CC3153  CC3151  OC303
  OC3C51   CC3152   CC3151    OC301     9     0.000000     2.928800     2 ; 
  OC3C51   CC3152   CC3151    OC301     9     0.000000     0.753120     3 ; 
  CC3152   CC3151    OC301    CC2O5     9   180.000000     0.543920     1 ; CC3162  CC3161  OC301   CC3162
  CC3152   CC3151    OC301    CC2O5     9   180.000000     1.046000     2 ; 
  CC3152   CC3151    OC301    CC2O5     9   180.000000     0.251040     3 ; 
    HCA1   CC3152   CC3151    OC301     9     0.000000     0.585760     3 ; from, OC303   CC3151  CC3151  HCA1
   OC311   CC3152   CC3151    OC301     9   180.000000    12.008080     1 ; from, OC303   CC3151  CC3151  OC311
   OC311   CC3152   CC3151    OC301     9     0.000000     0.125520     2 ; 
   OC311   CC3152   CC3151    OC301     9     0.000000     0.962320     3 ; 
  CC3153   CC3151   CC3151    OC301     9   180.000000     0.041840     1 ; from,CC3153  CC3151  CC3151  OC303
  CC3153   CC3151   CC3151    OC301     9     0.000000     3.012480     2 ; 
  CC3153   CC3151   CC3151    OC301     9     0.000000     0.753120     3 ; 
  CC3151    OC301    CC2O5    CC331     9   180.000000     8.577200     2 ; from, X    CD   OS   X, ALLOW   PEP POL
  CC3151    OC301    CC2O5    OC2D1     9   180.000000     4.037560     1 ; from, OB   CD   OS   CT2, ALLOW   PEP POL
  CC3151    OC301    CC2O5    OC2D1     9   180.000000    16.108400     2 ; 
   CC2O5    OC301   CC3151     HCA1     9     0.000000     0.000000     3 ; from, HCA1    CC3161  OC301   CC2O5
   CC2O5    OC301   CC3151   CC3151     9   180.000000     0.543920     1 ; from, CC3162  CC3161  OC301   CC3162
   CC2O5    OC301   CC3151   CC3151     9   180.000000     1.046000     2 ; 
   CC2O5    OC301   CC3151   CC3151     9   180.000000     0.251040     3 ; 
   OC301   CC3151   CC3151     HCA1     9     0.000000     0.585760     3 ; from, OC303   CC3151  CC3151  HCA1
   OC301   CC3151   CC3151    OC311     9   180.000000    12.008080     1 ; from, OC303   CC3151  CC3151  OC311
   OC301   CC3151   CC3151    OC311     9     0.000000     0.125520     2 ; 
   OC301   CC3151   CC3151    OC311     9     0.000000     0.962320     3 ; 
   CC321   CC3163   CC3161    NC2D1     9     0.000000     0.836800     3 ; CC312   CC3163  CC3161  NC2D1    0.20  3    0.0
  CC3161    NC2D1    CC2O1     HCR1     9   180.000000    10.460000     2 ; ALLOW PEP
    HCP1    NC2D1    CC2O1     HCR1     9   180.000000    10.460000     2 ; ALLOW PEP
    HCA1   CC3162   CC3261     HCA2     9     0.000000     0.836800     3 ; HCA1    CC3162  CC3161  HCA1     0.20  3    0.0
    HCA1   CC3162   CC3261   CC3161     9     0.000000     0.836800     3 ; HCA1    CC3162  CC3161  CC3161   0.20  3    0.0
  CC3162   CC3261   CC3161     HCA1     9     0.000000     0.836800     3 ; HCA1    CC3161  CC3161  CC3162   0.20  3    0.0
  CC3162   CC3261   CC3161    OC311     9     0.000000     0.836800     3 ; CC3162  CC3161  CC3161  OC311    0.20  3    0.0
  CC3162   CC3261   CC3161   CC3161     9   180.000000     0.794960     3 ; CC3161  CC3161  CC3161  CC3162   0.19  3  180.0
  CC3261   CC3161   CC3161    OC301     9     0.000000     0.836800     3 ; CC3161  CC3161  CC3161  OC301    0.20  3    0.0
   OC311   CC3162   CC3261     HCA2     9     0.000000     0.585760     3 ; HCA1    CC3161  CC3162  OC311    0.14  3    0.0
   OC311   CC3162   CC3261   CC3161     9     0.000000     0.836800     3 ; CC3162  CC3161  CC3161  OC311    0.20  3    0.0
  OC3C61   CC3162   CC3261     HCA2     9     0.000000     0.836800     3 ; HCA1    CC3161  CC3162  OC3C61   0.20  3    0.0
  OC3C61   CC3162   CC3261   CC3161     9   180.000000     1.297040     3 ; CC3161  CC3161  CC3162  OC3C61   0.31  3  180.0
  CC3261   CC3161   CC3163    CC321     9     0.000000     0.836800     3 ; CC3161  CC3161  CC3163  CC321    0.20  3    0.0
    HCA1   CC3163   CC3261   CC3161     9     0.000000     0.836800     3 ; HCA1    CC3163  CC3161  CC3161   0.20  3    0.0
  OC3C61   CC3163   CC3261   CC3161     9   180.000000     1.297040     3 ; CC3161  CC3161  CC3163  OC3C61   0.31  3  180.0
  CC3162   CC3161   CC3161   CC3261     9   180.000000     0.794960     3 ; CC3161  CC3161  CC3161  CC3162   0.19  3  180.0
  CC3163   CC3261   CC3161   CC3161     9   180.000000     0.794960     3 ; CC3161  CC3161  CC3161  CC3163   0.19  3  180.0
  CC3163   CC3261   CC3161     HCA1     9     0.000000     0.836800     3 ; HCA1    CC3161  CC3161  CC3163   0.20  3    0.0
  CC3163   OC3C61   CC3162   CC3261     9     0.000000     0.836800     3 ; CC3161  CC3162  OC3C61  CC3163   0.20  3    0.0
  CC3163   CC3261   CC3161    OC301     9     0.000000     0.836800     3 ; CC3163  CC3161  CC3161  OC301    0.20  3    0.0
  CC3163   CC3261   CC3161    OC311     9     0.000000     0.836800     3 ; CC3163  CC3161  CC3161  OC311    0.20  3    0.0
  CC3162   OC3C61   CC3163   CC3261     9     0.000000     0.836800     3 ; CC3161  CC3163  OC3C61  CC3162   0.20  3    0.0
    HCA1   CC3163   CC3261     HCA2     9     0.000000     0.836800     3 ; HCA1    CC3161  CC3163  HCA1     0.20  3    0.0
  OC3C61   CC3163   CC3261     HCA2     9     0.000000     0.836800     3 ; HCA1    CC3161  CC3163  OC3C61   0.20  3    0.0
  CC3161   CC3261   CC3163    CC321     9     0.000000     0.836800     3 ; CC3161  CC3161  CC3163  CC321    0.20  3    0.0
  CC3261   CC3163    CC321     HCA2     9     0.000000     0.836800     3 ; HCA2    CC321   CC3163  CC3161   0.20  3    0.0
    HCA2   CC3261   CC3163    CC321     9     0.000000     0.836800     3 ; HCA1    CC3161  CC3163  CC321    0.20  3    0.0
  CC3261   OC3C61   CC3163   CC3161     9     0.000000     0.836800     3 ; CC3161  CC3163  OC3C61  CC3162   0.20  3    0.0
  CC3261   OC3C61   CC3163    CC321     9     0.000000     0.836800     3 ; CC321   CC3163  OC3C61  CC3162   0.20  3    0.0
  CC3261   OC3C61   CC3163   CC3261     9     0.000000     0.836800     3 ; CC3161  CC3163  OC3C61  CC3162   0.20  3    0.0
  CC3261   OC3C61   CC3163     HCA1     9     0.000000     1.188256     3 ; HCA1    CC3163  OC3C61  CC3162   0.284 3    0.0
    HCA2   CC3261   OC3C61   CC3163     9     0.000000     1.188256     3 ; HCA1    CC3162  OC3C61  CC3163   0.284 3    0.0
  CC3163   OC3C61   CC3261   CC3161     9     0.000000     0.836800     3 ; CC3161  CC3162  OC3C61  CC3163   0.20  3    0.0
  CC3261   CC3161   CC3161   CC3161     9   180.000000     0.794960     3 ; CC3161  CC3161  CC3161  CC3162   0.19  3  180.0
  OC3C61   CC3261   CC3161     HCA1     9     0.000000     0.836800     3 ; HCA1    CC3161  CC3162  OC3C61   0.20  3    0.0
  OC3C61   CC3261   CC3161   CC3161     9   180.000000     1.297040     3 ; CC3161  CC3161  CC3162  OC3C61   0.31  3  180.0
  OC3C61   CC3261   CC3161    OC311     9   180.000000    11.506000     1 ; OC311   CC3161  CC3162  OC3C61   2.75  1  180.0
  OC3C61   CC3261   CC3161    OC311     9   180.000000     1.087840     2 ; OC311   CC3161  CC3162  OC3C61   0.26  2  180.0
  OC3C61   CC3261   CC3161    OC311     9     0.000000     0.418400     3 ; OC311   CC3161  CC3162  OC3C61   0.10  3    0.0
  CC3261   CC3161    OC301   CC3162     9   180.000000     0.543920     1 ; CC3161  CC3161  OC301   CC3162   0.13  1  180.0
  CC3261   CC3161    OC301   CC3162     9   180.000000     1.046000     2 ; CC3161  CC3161  OC301   CC3162   0.25  2  180.0
  CC3261   CC3161    OC301   CC3162     9   180.000000     0.251040     3 ; CC3161  CC3161  OC301   CC3162   0.06  3  180.0
  CC3261   CC3163    CC321    OC311     9   180.000000     3.138000     1 ; OC311   CC321   CC3163  OC3C61   0.75  1  180.0
  CC3261   CC3163    CC321    OC311     9     0.000000     0.711280     2 ; OC311   CC321   CC3163  OC3C61   0.17  2    0.0
  CC3261   CC3163    CC321    OC311     9   180.000000     1.046000     3 ; OC311   CC321   CC3163  OC3C61   0.25  3  180.0
    HCP1    OC311   CC3162   CC3261     9     0.000000     1.213360     1 ; CC3161  CC3162  OC311   HCP1     0.29  1    0.0
    HCP1    OC311   CC3162   CC3261     9     0.000000     2.594080     2 ; CC3161  CC3162  OC311   HCP1     0.62  2    0.0
    HCP1    OC311   CC3162   CC3261     9     0.000000     0.209200     3 ; CC3161  CC3162  OC311   HCP1     0.05  3    0.0
  CC3162   CC3161    OC301    CC331     9     0.000000     0.920480     1 ; CC3161  CC3162  OC301   CC331    0.22  1    0.0
  CC3162   CC3161    OC301    CC331     9   180.000000     1.171520     2 ; CC3161  CC3162  OC301   CC331    0.28  2  180.0
  CC3162   CC3161    OC301    CC331     9     0.000000     3.723760     3 ; CC3161  CC3162  OC301   CC331    0.89  3    0.0
    HCA1   CC3161    OC301    CC331     9     0.000000     1.188256     3 ; CC331   OC301   CC3162  HCA1     0.284 3    0.0
  CC3161    OC301    CC331     HCA3     9     0.000000     1.188256     3 ; CC3162  OC301   CC331   HCA3     0.284 3    0.0
   CC331    OC301   CC3161   CC3161     9     0.000000     0.920480     1 ; CC3161  CC3162  OC301   CC331    0.22  1    0.0
   CC331    OC301   CC3161   CC3161     9   180.000000     1.171520     2 ; CC3161  CC3162  OC301   CC331    0.28  2  180.0
   CC331    OC301   CC3161   CC3161     9     0.000000     3.723760     3 ; CC3161  CC3162  OC301   CC331    0.89  3    0.0
  CC3163   CC3161    OC301    CC331     9     0.000000     0.920480     1 ; CC3161  CC3162  OC301   CC331    0.22  1    0.0
  CC3163   CC3161    OC301    CC331     9   180.000000     1.171520     2 ; CC3161  CC3162  OC301   CC331    0.28  2  180.0
  CC3163   CC3161    OC301    CC331     9     0.000000     3.723760     3 ; CC3161  CC3162  OC301   CC331    0.89  3    0.0
    FGA1   CC3261   OC3C61   CC3163     9     0.000000     0.836800     3 ; CG3C51  CG3C51  CG3C51  FGA1     0.200 3    0.00
    FGA1   CC3261   CC3161   CC3161     9     0.000000     0.836800     3 ; CG3C51  CG3C51  CG3C51  FGA1     0.200 3    0.00
    FGA1   CC3261   CC3161    OC311     9     0.000000     0.836800     3 ; OG303   CG3C51  CG3C51  FGA1     0.200 3    0.00
    FGA1   CC3261   CC3161     HCA1     9     0.000000     0.774040     3 ; FGA1    CG3C51  CG3C51  HGA1     0.185 3    0.00
    HCA1   CC3162   CC3261     FGA1     9     0.000000     0.774040     3 ; FGA1    CG3C51  CG3C51  HGA1     0.185 3    0.00
   OC311   CC3162   CC3261     FGA1     9     0.000000     0.836800     3 ; OG303   CG3C51  CG3C51  FGA1     0.200 3    0.00
  OC3C61   CC3162   CC3261     FGA1     9     0.000000     0.836800     3 ; FGA1    CG3C51  CG3C52  OG3C51   0.200 3    0.00
  CC3162   CC3161   CC3261     FGA1     9     0.000000     0.836800     3 ; CG3C51  CG3C51  CG3C51  FGA1     0.200 3    0.00
  CC3163   CC3161   CC3261     FGA1     9     0.000000     0.836800     3 ; CG3C51  CG3C51  CG3C51  FGA1     0.200 3    0.00
    HCA1   CC3163   CC3261     FGA1     9     0.000000     0.774040     3 ; FGA1    CG3C51  CG3C51  HGA1     0.185 3    0.00
  OC3C61   CC3163   CC3261     FGA1     9     0.000000     0.836800     3 ; FGA1    CG3C51  CG3C52  OG3C51   0.200 3    0.00
    FGA1   CC3261   CC3163    CC321     9     0.000000     0.836800     3 ; CG3C51  CG3C51  CG3C51  FGA1     0.200 3    0.00
    HGP3    SG311   CC3162   OC3C61     9   180.000000    14.225600     1 ; SG311   CG321   CG3C51  OG3C51   3.400 1  180.00
   SG311   CC3162   OC3C61   CC3163     9   180.000000     1.715440     1 ; CC3163  OC3C61  CC3162  OC311    0.41  1  180.0
   SG311   CC3162   OC3C61   CC3163     9     0.000000     3.723760     2 ; CC3163  OC3C61  CC3162  OC311    0.89  2    0.0
   SG311   CC3162   OC3C61   CC3163     9     0.000000     0.209200     3 ; CC3163  OC3C61  CC3162  OC311    0.05  3    0.0
   SG311   CC3162   CC3161    OC311     9   180.000000    11.087600     1 ; OC311   CC3162  CC3161  OC311    2.65  1  180.0
   SG311   CC3162   CC3161    OC311     9     0.000000     0.000000     2 ; OC311   CC3162  CC3161  OC311    0.00  2    0.0
   SG311   CC3162   CC3161    OC311     9   180.000000     0.543920     3 ; OC311   CC3162  CC3161  OC311    0.13  3  180.0
   SG311   CC3161   CC3161    OC311     9   180.000000    11.087600     1 ; OC311   CC3162  CC3161  OC311    2.65  1  180.0
   SG311   CC3161   CC3161    OC311     9     0.000000     0.000000     2 ; OC311   CC3162  CC3161  OC311    0.00  2    0.0
   SG311   CC3161   CC3161    OC311     9   180.000000     0.543920     3 ; OC311   CC3162  CC3161  OC311    0.13  3  180.0
   SG311   CC3161   CC3162    OC311     9   180.000000    11.087600     1 ; OC311   CC3162  CC3161  OC311    2.65  1  180.0
   SG311   CC3161   CC3162    OC311     9     0.000000     0.000000     2 ; OC311   CC3162  CC3161  OC311    0.00  2    0.0
   SG311   CC3161   CC3162    OC311     9   180.000000     0.543920     3 ; OC311   CC3162  CC3161  OC311    0.13  3  180.0
    HCA1   CC3162    SG311     HGP3     9     0.000000     0.836800     3 ; HGA2    CG321   SG311   HGP3     0.200 3    0.00
    HGP3    SG311   CC3161     HCA1     9     0.000000     0.836800     3 ; HGA2    CG321   SG311   HGP3     0.200 3    0.00
   SG311   CC3162   CC3161     HCA1     9     0.000000     0.041840     3 ; SG311   CG321   CG321   HGA2     0.010 3    0.00
   SG311   CC3161   CC3161     HCA1     9     0.000000     0.041840     3 ; SG311   CG321   CG321   HGA2     0.010 3    0.00
   SG311   CC3161   CC3163     HCA1     9     0.000000     0.041840     3 ; SG311   CG321   CG321   HGA2     0.010 3    0.00
    HCA1   CC3162   CC3161    SG311     9     0.000000     0.041840     3 ; SG311   CG321   CG321   HGA2     0.010 3    0.00
   SG311   CC3162   CC3161   CC3161     9     0.000000     0.815880     3 ; CG321   CG321   CG321   SG311    0.195 3    0.00
   SG311   CC3161   CC3161   CC3161     9     0.000000     0.815880     3 ; CG321   CG321   CG321   SG311    0.195 3    0.00
   SG311   CC3161   CC3161   CC3163     9     0.000000     0.815880     3 ; CG321   CG321   CG321   SG311    0.195 3    0.00
   SG311   CC3161   CC3163    CC321     9     0.000000     0.815880     3 ; CG321   CG321   CG321   SG311    0.195 3    0.00
  CC3162   CC3161   CC3161    SG311     9     0.000000     0.815880     3 ; CG321   CG321   CG321   SG311    0.195 3    0.00
    HGP3    SG311   CC3162   CC3161     9     0.000000     1.004160     1 ; CG321   CG321   SG311   HGP3     0.240 1    0.00
    HGP3    SG311   CC3162   CC3161     9     0.000000     0.627600     2 ; CG321   CG321   SG311   HGP3     0.150 2    0.00
    HGP3    SG311   CC3162   CC3161     9     0.000000     1.129680     3 ; CG321   CG321   SG311   HGP3     0.270 3    0.00
    HGP3    SG311   CC3161   CC3161     9     0.000000     1.004160     1 ; CG321   CG321   SG311   HGP3     0.240 1    0.00
    HGP3    SG311   CC3161   CC3161     9     0.000000     0.627600     2 ; CG321   CG321   SG311   HGP3     0.150 2    0.00
    HGP3    SG311   CC3161   CC3161     9     0.000000     1.129680     3 ; CG321   CG321   SG311   HGP3     0.270 3    0.00
  CC3162   CC3161    SG311     HGP3     9     0.000000     1.004160     1 ; CG321   CG321   SG311   HGP3     0.240 1    0.00
  CC3162   CC3161    SG311     HGP3     9     0.000000     0.627600     2 ; CG321   CG321   SG311   HGP3     0.150 2    0.00
  CC3162   CC3161    SG311     HGP3     9     0.000000     1.129680     3 ; CG321   CG321   SG311   HGP3     0.270 3    0.00
    HGP3    SG311   CC3161   CC3163     9     0.000000     1.004160     1 ; CG321   CG321   SG311   HGP3     0.240 1    0.00
    HGP3    SG311   CC3161   CC3163     9     0.000000     0.627600     2 ; CG321   CG321   SG311   HGP3     0.150 2    0.00
    HGP3    SG311   CC3161   CC3163     9     0.000000     1.129680     3 ; CG321   CG321   SG311   HGP3     0.270 3    0.00
   SG311   CC3161   CC3162   OC3C61     9   180.000000    11.506000     1 ; OC311   CC3161  CC3162  OC3C61   2.75  1  180.0
   SG311   CC3161   CC3162   OC3C61     9   180.000000     1.087840     2 ; OC311   CC3161  CC3162  OC3C61   0.26  2  180.0
   SG311   CC3161   CC3162   OC3C61     9     0.000000     0.418400     3 ; OC311   CC3161  CC3162  OC3C61   0.10  3    0.0
   SG311   CC3161   CC3163   OC3C61     9   180.000000    11.506000     1 ; OC311   CC3161  CC3162  OC3C61   2.75  1  180.0
   SG311   CC3161   CC3163   OC3C61     9   180.000000     1.087840     2 ; OC311   CC3161  CC3162  OC3C61   0.26  2  180.0
   SG311   CC3161   CC3163   OC3C61     9     0.000000     0.418400     3 ; OC311   CC3161  CC3162  OC3C61   0.10  3    0.0
  CC3162   CC3161    NG3P3     HGP2     9     0.000000     0.418400     3 ; PROT 0.715->0.10 METHYLAMMONIUM (KK)
  CC3161   CC3161    NG3P3     HGP2     9     0.000000     0.418400     3 ; PROT 0.715->0.10 METHYLAMMONIUM (KK)
    HCA1   CC3162   CC3161    NG3P3     9     0.000000     0.836800     3 ; HCA1   CC3162 CC3161 NC2D1    0.20  3     0.0  ! par27 X CTL1 CTL1 X
    HCA1   CC3161   CC3161    NG3P3     9     0.000000     0.836800     3 ; HCA1   CC3162 CC3161 NC2D1    0.20  3     0.0  ! par27 X CTL1 CTL1 X
   OC311   CC3162   CC3161    NG3P3     9     0.000000     0.836800     3 ; OC311  CC3162 CC3161 NC2D1    0.20  3     0.0  ! par27 X CTL1 CTL1 X
   OC301   CC3162   CC3161    NG3P3     9     0.000000     0.836800     3 ; OC311  CC3162 CC3161 NC2D1    0.20  3     0.0  ! par27 X CTL1 CTL1 X
   OC311   CC3161   CC3161    NG3P3     9     0.000000     0.836800     3 ; OC311  CC3162 CC3161 NC2D1    0.20  3     0.0  ! par27 X CTL1 CTL1 X
  OC3C61   CC3162   CC3161    NG3P3     9     0.000000     0.836800     3 ; OC3C61 CC3162 CC3161 NC2D1    0.20  3     0.0  ! par27 X CTL1 CTL1 X
    HCA1   CC3161    NG3P3     HGP2     9     0.000000     0.418400     3 ; HGA2   CG324  NG3P3  HGP2     0.10  3     0.0  ! PROT 0.715->0.10 METHYLAMMONIUM (KK)
  CC3161   CC3161   CC3161    NG3P3     9     0.000000     0.836800     3 ; NC2D1  CC3161 CC3161 CC3261   0.20  3     0.0  ! par27 X CTL1 CTL1 X
   CC312    CC322    OC301        C     9   180.000000     2.677760     1 ; from, CC3163  CC321   OC301   CC3162
   CC312    CC322    OC301        C     9   180.000000     0.125520     2 ; 
   CC312    CC322    OC301        C     9     0.000000     2.552240     3 ; 
   CC322    OC301        C      CT3     9   180.000000     8.577200     2 ; from, X    CD   OS   X,
   CC322    OC301        C        O     9   180.000000     4.037560     1 ; from, OB   CD   OS   CT2, ALLOW   PEP POL
   CC322    OC301        C        O     9   180.000000    16.108400     2 ; "
     HA3      CT3        C    OC301     9   180.000000     0.000000     6 ; from, par22 X CT3  CD X, OSL  CL   CTL3 HAL3, acetic acid
       C    OC301    CC322     HCA2     9     0.000000     1.188256     3 ; from, par35 HCA2 CC32A OC30A CC32A
  CC3161    NC2D1    CC2O1    CC321     9     0.000000     6.694400     1 ; from, CT2  C    NH1  CT1, ALLOW PEP
  CC3161    NC2D1    CC2O1    CC321     9   180.000000    10.460000     2 ; ALLOW PEP
  CC3162   OC3C61   CC3163    NC2D1     9     0.000000     2.594080     1 ; og OMeTHP compounds 2 and 3
  CC3162   OC3C61   CC3163    NC2D1     9     0.000000     6.443360     2 ; OC301    CC311D   OC3C61   CC321C
  CC3162   OC3C61   CC3163    NC2D1     9     0.000000     2.008320     3 ; "  MP2/cc-pVTZ//MP2/6-31G*
    HCA1   CC3163    NC2D1     HCP1     9     0.000000     0.000000     1 ; par22 HB CT1 NH1 H
  OC3C61   CC3163    NC2D1     HCP1     9     0.000000     0.000000     1 ; par22 H NH1 CT1 CT1
  CC3161   CC3161   CC3163    NC2D1     9     0.000000     0.836800     3 ; from, NC2D1   CC3161  CC3161  CC3161
  CC3161   CC3163    NC2D1     HCP1     9     0.000000     0.000000     1 ; par22 H NH1 CT1 CT1
    HCA1   CC3161   CC3163    NC2D1     9     0.000000     0.836800     3 ; from, HCA1    CC3163  CC3161  NC2D1, par27 X CTL1 CTL1 X
   OC311   CC3161   CC3163    NC2D1     9     0.000000     0.836800     3 ; par27 X CTL1 CTL1 X
  CC3163   CC3161    OC301    CC311     9   180.000000     0.543920     1 ; og THP-1-O-2-CYHX
  CC3163   CC3161    OC301    CC311     9   180.000000     1.046000     2 ; "  MCSA fit
  CC3163   CC3161    OC301    CC311     9   180.000000     0.251040     3 ; "
  CC3161   CC3161    OC301    CC311     9   180.000000     0.543920     1 ; og THP-1-O-2-CYHX
  CC3161   CC3161    OC301    CC311     9   180.000000     1.046000     2 ; "  MCSA fit
  CC3161   CC3161    OC301    CC311     9   180.000000     0.251040     3 ; "
  CC3161    OC301    CC311     HCA1     9     0.000000     1.188256     3 ; 
  CC3161    OC301    CC311    CC2O2     9     0.000000     0.836800     3 ; from, CC2O2   CC311   OC301   CC331
  CC3161    OC301    CC311    CC331     9   180.000000     3.012480     1 ; from, CC311D  OC301   CC321   CC331
  CC3161    OC301    CC311    CC331     9   180.000000     1.422560     2 ; 
  CC3161    OC301    CC311    CC331     9   180.000000     0.502080     3 ; 
    HCA1   CC3161    OC301    CC311     9     0.000000     1.188256     3 ; 
  CC3161    NC2D1    CC2O1      NC2     9   180.000000     9.414000     2 ; from, X    C    NC2  X
   NC2D1    CC2O1      NC2       HC     9   180.000000     9.414000     2 ; 
    HCP1    NC2D1    CC2O1      NC2     9   180.000000     9.414000     2 ; 
     NC2    CC2O1    CC331     HCA3     9     0.000000     0.000000     3 ; par22 NH1 C CT3 HA
      HC      NC2    CC2O1    CC331     9   180.000000     9.414000     2 ; from, X    C    NC2  X
  CC3162   CC3161   CC3161      NH1     9     0.000000     0.836800     3 ; from, NC2D1   CC3161  CC3161  CC3161, par27 X CTL1 CTL1 X
  CC3163   CC3161   CC3161      NH1     9     0.000000     0.836800     3 ; from, NC2D1   CC3161  CC3161  CC3161, par27 X CTL1 CTL1 X
  CC3161   CC3161      NH1        C     9   180.000000     2.092000     1 ; og fit to IPAA
  CC3161   CC3161      NH1        H     9     0.000000     0.000000     1 ; par22 H NH1 CT1 CT1
   OC311   CC3161   CC3161      NH1     9     0.000000     0.836800     3 ; par27 X CTL1 CTL1 X
  CC3161      NH1        C      CT1     9     0.000000     6.694400     1 ; ALLOW PEP
  CC3161      NH1        C      CT1     9   180.000000    10.460000     2 ; from, CT1  C    NH1  CT1
  CC3161      NH1        C      CT2     9     0.000000     6.694400     1 ; ALLOW PEP
  CC3161      NH1        C      CT2     9   180.000000    10.460000     2 ; from, CT2  C    NH1  CT1
  CC3161      NH1        C        O     9   180.000000    10.460000     2 ; par22 O C NH1 CT1
    HCA1   CC3161      NH1        C     9     0.000000     0.000000     1 ; par22 HB CT1 NH1 C
    HCA1   CC3161      NH1        H     9     0.000000     0.000000     1 ; par22 HB CT1 NH1 H
    HCA1   CC3161   CC3161      NH1     9     0.000000     0.836800     3 ; par27 X CTL1 CTL1 X
  CC3162   CC3161      NH1        C     9   180.000000     2.092000     1 ; og fit to IPAA
  CC3162   CC3161      NH1        H     9     0.000000     0.000000     1 ; par22 H NH1 CT1 CT1
    HCA1   CC3162   CC3161      NH1     9     0.000000     0.836800     3 ; par27 X CTL1 CTL1 X
  OC3C61   CC3162   CC3161      NH1     9     0.000000     0.836800     3 ; par27 X CTL1 CTL1 X
   OC311   CC3162   CC3161      NH1     9     0.000000     0.836800     3 ; par27 X CTL1 CTL1 X
   OC301   CC3162   CC3161      NH1     9     0.000000     0.836800     3 ; par27 X CTL1 CTL1 X
  CC3163   CC3161      NH1        C     9   180.000000     2.092000     1 ; og fit to IPAA
  CC3163   CC3161      NH1        H     9     0.000000     0.000000     1 ; par22 H NH1 CT1 CT1
    HCA1   CC3163   CC3161      NH1     9     0.000000     0.836800     3 ; par27 X CTL1 CTL1 X
  OC3C61   CC3163   CC3161      NH1     9     0.000000     0.836800     3 ; par27 X CTL1 CTL1 X
  CC3161   CC3161   CC3161      NH1     9     0.000000     0.836800     3 ; from, NC2D1   CC3161  CC3161  CC3161, par27 X CTL1 CTL1 X
   CC331   CC3163   CC3161      NH1     9     0.000000     0.836800     3 ; par27 X CTL1 CTL1 X
   CC321   CC3163   CC3161      NH1     9     0.000000     0.836800     3 ; par27 X CTL1 CTL1 X
   CC2O2   CC3163   CC3161      NH1     9     0.000000     0.836800     3 ; par27 X CTL1 CTL1 X
  CC3163   CC3161    CC2O1      CT2     9   180.000000     0.209200     6 ; par22 X CT1  CC   X
  CC3163   CC3161    CC2O1    OC2D1     9     0.000000     5.857600     1 ; 
    HCA1   CC3163   CC3161    CC2O1     9     0.000000     0.836800     3 ; from, HA1  CT1  CT1  C,
  OC3C61   CC3163   CC3161    CC2O1     9     0.000000     0.836800     3 ; par27 X CTL1 CTL1 X
  CC3161   CC3161   CC3161    CC2O1     9     0.000000     0.836800     3 ; par27 X CTL1 CTL1 X
  CC3161   CC3161    CC2O1      CT2     9   180.000000     0.209200     6 ; par22 X CT1  CC   X
  CC3161   CC3161    CC2O1    OC2D1     9     0.000000     5.857600     1 ; from, O    C    CT1  CT1
    HCA1   CC3161   CC3161    CC2O1     9     0.000000     0.836800     3 ; from, HA1  CT1  CT1  C,
   OC311   CC3161   CC3161    CC2O1     9     0.000000     0.836800     3 ; par27 X CTL1 CTL1 X
  CC3161    CC2O1      CT2    NC2D1     9     0.000000     2.510400     1 ; from, NH1  C    CT2  NH1
  CC3161    CC2O1      CT2      HB2     9     0.000000     0.000000     1 ; from, NH1  C    CT2  HB2
    HCA1   CC3161    CC2O1      CT2     9   180.000000     0.209200     6 ; par22 X CT1  CC   X
    HCA1   CC3161    CC2O1    OC2D1     9   180.000000     0.209200     6 ; par22 X CT1  CC   X
     CT3    CC2O1    NC2D1     HCP1     9   180.000000    10.460000     2 ; from, H    NH1  C    CT1,
     CT3    CC2O1    NC2D1      CT2     9     0.000000     6.694400     1 ; ALLOW PEP
     CT3    CC2O1    NC2D1      CT2     9   180.000000    10.460000     2 ; from, CT2  NH1  C    CT1
     HA3      CT3    CC2O1    OC2D1     9     0.000000     0.000000     3 ; from, O    C    CT3  HA3
     HA3      CT3    CC2O1    NC2D1     9     0.000000     0.000000     3 ; from, N    C    CT3  HA3
   CC2O1    NC2D1      CT2    CC2O1     9   180.000000     0.836800     1 ; ALLOW PEP
   NC2D1      CT2    CC2O1    OC2D1     9     0.000000     0.000000     1 ; from, O    C    CT2  NH1
    HCP1    NC2D1      CT2    CC2O1     9     0.000000     0.000000     1 ; 
     HB2      CT2    CC2O1    OC2D1     9     0.000000     0.000000     1 ; from, NH1  C    CT2  HB2
   CC2O1   CC3161   CC3163    CC321     9     0.000000     0.836800     3 ; par27 X CTL1 CTL1 X
  CC3163    CC2O1    NC2D1      CT1     9     0.000000     6.694400     1 ; ALLOW PEP
  CC3163    CC2O1    NC2D1      CT1     9   180.000000    10.460000     2 ; from, CT1  C    NH1  CT1
   CC2O1    NC2D1      CT1      HB1     9     0.000000     0.000000     1 ; par22 HB CT1 NH1 C
   CC2O1    NC2D1      CT1      CT1     9   180.000000     2.092000     1 ; og fit to IPAA
   CC2O1    NC2D1      CT1       CC     9   180.000000     8.368000     1 ; from, CC   CT2  NH1  C, ALLOW PEP POL
   OC2D1    CC2O1    NC2D1      CT1     9   180.000000    10.460000     2 ; from, O    C    NH1  CT2,  ALLOW PEP
    HCP1    NC2D1      CT1      HB1     9     0.000000     0.000000     1 ; 
    HCP1    NC2D1      CT1      CT1     9     0.000000     0.000000     1 ; par22 H NH1 CT1 CT1
    HCP1    NC2D1      CT1       CC     9     0.000000     0.000000     1 ; 
   CC2O1    NC2D1      CT1      CT3     9     0.000000     7.531200     1 ; from, CT3  CT1  NH1  C
    HCP1    NC2D1      CT1      CT3     9     0.000000     0.000000     1 ; from, H    NH1  CT1  CT3
  CC3163    CC312    CC2O1    OC2D1     9     0.000000     5.857600     1 ; from, O    C    CT1  CT1
  CC3163    CC312    CC2O1    NC2D1     9     0.000000     0.000000     1 ; from, NH1  C    CT1  CT1,
    HCA1   CC3163    CC312    CC2O1     9     0.000000     0.836800     3 ; From X    CT1  CT1  X
  OC3C61   CC3163    CC312    CC2O1     9     0.000000     0.836800     3 ; From X    CT1  CT1  X
  CC3161   CC3163    CC312    CC2O1     9   180.000000     0.418400     1 ; from, C    CT1  CT1  CT2
  CC3161   CC3163    CC312    CC2O1     9   180.000000     2.175680     2 ; 
  CC3161   CC3163    CC312    CC2O1     9   180.000000     1.213360     3 ; 
   CC312    CC2O1    NC2D1     HCP1     9   180.000000    10.460000     2 ; from, H    NH1  C    CT1,
   CC312    CC2O1    NC2D1      CT2     9     0.000000     6.694400     1 ; ALLOW PEP
   CC312    CC2O1    NC2D1      CT2     9   180.000000    10.460000     2 ; from, CT2  NH1  C    CT1
    HCA1    CC312    CC2O1    OC2D1     9     0.000000     0.000000     1 ; from, O    C    CT1  HB1
    HCA1    CC312    CC2O1    NC2D1     9     0.000000     0.000000     1 ; from, NH1  C    CT1  HB1
   OC311    CC312    CC2O1    OC2D1     9   180.000000     0.711280     2 ; from, OC2D3   CC2O3   CC312   OC311 " RIMP2/cc-pVTZ//MP2/631gd
   OC311    CC312    CC2O1    OC2D1     9   180.000000     8.995600     3 ; " O2-C2-C3-O3
   OC311    CC312    CC2O1    OC2D1     9     0.000000    11.715200     1 ; erh ketone, fit psicose
   OC311    CC312    CC2O1    NC2D1     9     0.000000     0.000000     1 ; from analogy of, NH1  C    CT1  CT1
    HCP1    OC311    CC312    CC2O1     9     0.000000     0.585760     3 ; from, X    CT1  OH1  X
   OC30P    CC312    CC2O1    OC2D1     9     0.000000     0.000000     1 ; ALLOW PEP
   OC30P    CC312    CC2O1    NC2D1     9     0.000000     0.000000     1 ; ALLOW PEP
      PC    OC30P    CC312    CC2O1     9     0.000000     0.000000     3 ; phosphate, new NA, 4/98, adm jr.
  CC3163    CC311    NC2D1      CT1     9     0.000000     6.694400     1 ; ALLOW PEP
  CC3163    CC311    NC2D1      CT1     9   180.000000    10.460000     2 ; 
   CC311    NC2D1      CT1      HB1     9     0.000000     0.000000     1 ; 
   CC311    NC2D1      CT1      CT3     9   180.000000     0.836800     1 ; 
   CC311    NC2D1      CT1       CC     9     0.000000     0.000000     1 ; 
    HCA1    CC311    NC2D1      CT1     9     0.000000     0.000000     1 ; 
     CT1    NC2D1    CC311    CC312     9     0.000000     6.694400     1 ; 
     CT1    NC2D1    CC311    CC312     9   180.000000    10.460000     2 ; 
  CC3163    CC312    OC301   CC3162     9   180.000000     2.677760     1 ; from CC3163  CC321   OC301   CC3162
  CC3163    CC312    OC301   CC3162     9   180.000000     0.125520     2 ; "
  CC3163    CC312    OC301   CC3162     9     0.000000     2.552240     3 ; "
   CC312    OC301   CC3162     HCA1     9     0.000000     1.188256     3 ; 
   CC312    OC301   CC3162   OC3C61     9     0.000000     5.633338     1 ; from, OC3C61  CC3062  OC301   CC312
   CC312    OC301   CC3162   OC3C61     9     0.000000    12.862871     2 ; "
   CC312    OC301   CC3162   OC3C61     9   180.000000     3.505355     3 ; "
   CC312    OC301   CC3162   CC3161     9     0.000000     0.920480     1 ; CC321  OC301 CC3162 CC3161 ; all36 carb
   CC312    OC301   CC3162   CC3161     9   180.000000     1.171520     2 ; "
   CC312    OC301   CC3162   CC3161     9     0.000000     3.723760     3 ; "
    HCA1    CC312    OC301   CC3162     9     0.000000     1.188256     3 ; from CC3162  OC301   CC321   HCA2
   CC312    CC312    OC301   CC3162     9   180.000000    12.944041     1 ; from, CC312   CC312   OC301   CC3062
   CC312    CC312    OC301   CC3162     9   180.000000     2.968966     2 ; 
   CC312    CC312    OC301   CC3162     9     0.000000     0.102508     3 ; 
  CC3163    CC311    CC312    OC301     9   180.000000     1.056042     1 ; from, CC3163  CC312   CC312   OC301
  CC3163    CC311    CC312    OC301     9     0.000000     1.919201     2 ; 
  CC3163    CC311    CC312    OC301     9   180.000000     4.940049     3 ; 
   CC311    CC312    OC301   CC3162     9   180.000000    12.944041     1 ; from, CC312   CC312   OC301   CC3062
   CC311    CC312    OC301   CC3162     9   180.000000     2.968966     2 ; 
   CC311    CC312    OC301   CC3162     9     0.000000     0.102508     3 ; 
    HCA1    CC311    CC312    OC301     9     0.000000     0.585760     3 ; from, OC301   CC312   CC312   HCA1
   NC2D1    CC311    CC312    OC301     9     0.000000     0.836800     3 ; par27 X CTL1 CTL1 X
   OC301    CC312    CC331     HCA3     9     0.000000     0.836800     3 ; from, OC301   CC321   CC331   HCA3
   CC331    CC312    OC301   CC3162     9   180.000000    12.944041     1 ; from, CC312   CC312   OC301   CC3062
   CC331    CC312    OC301   CC3162     9   180.000000     2.968966     2 ; 
   CC331    CC312    OC301   CC3162     9     0.000000     0.102508     3 ; 
  CC3163   CC3161    OC301   CC3062     9   180.000000     0.543920     1 ; from CC3161  CC3161  OC301   CC3062
  CC3163   CC3161    OC301   CC3062     9   180.000000     1.046000     2 ; "
  CC3163   CC3161    OC301   CC3062     9   180.000000     0.251040     3 ; "
   CC322    CC312    OC301   CC3162     9   180.000000    12.944041     1 ; from, CC312   CC312   OC301   CC3062
   CC322    CC312    OC301   CC3162     9   180.000000     2.968966     2 ; 
   CC322    CC312    OC301   CC3162     9     0.000000     0.102508     3 ; 
   OC301    CC312    CC312    CC312     9     0.000000     0.836800     3 ; par27 X CTL1 CTL2 X
   CC322    CC312    CC322    OC301     9     0.000000     0.836800     3 ; par27 X CTL1 CTL2 X
  CC3152   CC3151   CC3151    OC303     9   180.000000     0.041840     1 ; from, CC3153  CC3151  CC3151  OC303
  CC3152   CC3151   CC3151    OC303     9     0.000000     3.012480     2 ; 
  CC3152   CC3151   CC3151    OC303     9     0.000000     3.054320     3 ; 
   OC303   CC3151   CC3153    CC312     9   180.000000     3.179840     1 ; CC321   CC3153  CC3151  OC303
   OC303   CC3151   CC3153    CC312     9   180.000000     1.673600     2 ; 
   OC303   CC3151   CC3153    CC312     9   180.000000     1.673600     3 ; 
   OC303   CC3162   CC3161    NC2D1     9     0.000000     0.836800     3 ; par27 X CTL1 CTL1 X
  CC3153    CC312    CC322    OC301     9     0.000000     0.836800     3 ; par27 X CTL1 CTL1 X
  OC3C51   CC3152   CC3151    OC303     9     0.000000     0.585760     1 ; from, OC3C51  CC3153  CC3151  OC303
  OC3C51   CC3152   CC3151    OC303     9     0.000000     2.928800     2 ; 
  OC3C51   CC3152   CC3151    OC303     9     0.000000     0.753120     3 ; 
  CC3152   CC3151    OC303   CC3162     9   180.000000     0.292880     1 ; from, CC3162  OC303   CC3151  CC3151
  CC3152   CC3151    OC303   CC3162     9     0.000000     0.167360     2 ; 
  CC3152   CC3151    OC303   CC3162     9     0.000000     0.585760     3 ; 
    HCA1   CC3152   CC3151    OC303     9     0.000000     0.585760     3 ; from, OC303   CC3151  CC3151  HCA1
   OC311   CC3152   CC3151    OC303     9   180.000000    12.008080     1 ; 
   OC311   CC3152   CC3151    OC303     9     0.000000     0.125520     2 ; 
   OC311   CC3152   CC3151    OC303     9     0.000000     0.962320     3 ; 
  CC3163   CC3161    OC301   CC3152     9   180.000000     0.543920     1 ; from, CC3163  CC3161  OC301   CC3162  og THP-1-O-2-CYHX
  CC3163   CC3161    OC301   CC3152     9   180.000000     1.046000     2 ; 
  CC3163   CC3161    OC301   CC3152     9   180.000000     0.251040     3 ; 
  CC3163    CC321    OC301   CC3152     9   180.000000     2.677760     1 ; from CC3163  CC321   OC301   CC3162
  CC3163    CC321    OC301   CC3152     9   180.000000     0.125520     2 ; 
  CC3163    CC321    OC301   CC3152     9     0.000000     2.552240     3 ; 
  CC3162   CC3161    OC301    CC321     9     0.000000     0.920480     1 ; from, CC3161  CC3162  OC301   CC321
  CC3162   CC3161    OC301    CC321     9   180.000000     1.171520     2 ; 
  CC3162   CC3161    OC301    CC321     9     0.000000     3.723760     3 ; 
  CC3161    OC301    CC321   CC3051     9   180.000000     2.677760     1 ; from, CC3153  CC321   OC301   CC3162
  CC3161    OC301    CC321   CC3051     9   180.000000     0.125520     2 ; 
  CC3161    OC301    CC321   CC3051     9     0.000000     2.552240     3 ; 
  CC3161    OC301    CC321     HCA2     9     0.000000     1.188256     3 ; from, CC3162  OC301   CC321   HCA2
    HCA1   CC3161    OC301    CC321     9     0.000000     1.188256     3 ; from, CC321   OC301   CC3162  HCA1
  CC3161   CC3161    OC301    CC321     9     0.000000     0.920480     1 ; from, CC3161  CC3162  OC301   CC321
  CC3161   CC3161    OC301    CC321     9   180.000000     1.171520     2 ; 
  CC3161   CC3161    OC301    CC321     9     0.000000     3.723760     3 ; 
   OC311   CC3051    CC321    OC301     9     0.000000     0.292880     1 ; OC311   CC3051  CC321   OC311, ketopentose monosac
   OC311   CC3051    CC321    OC301     9   180.000000     8.326160     2 ; 
   OC311   CC3051    CC321    OC301     9   180.000000     7.196480     3 ; 
  OC3C51   CC3153    CC312    OC301     9   180.000000     8.075120     1 ; from, OC3C51  CC3153  CC321   OC301
  OC3C51   CC3153    CC312    OC301     9     0.000000     1.799120     2 ; 
  OC3C51   CC3153    CC312    OC301     9   180.000000     0.502080     3 ; 
  CC3153    CC312    OC301   CC3152     9   180.000000     2.677760     1 ; from, CC3153  CC321   OC301   CC3051
  CC3153    CC312    OC301   CC3152     9   180.000000     0.125520     2 ; 
  CC3153    CC312    OC301   CC3152     9     0.000000     2.552240     3 ; 
    HCA1   CC3153    CC312    OC301     9     0.000000     0.585760     3 ; OC311   CC321   CC3153  HCA1
  CC3151   CC3153    CC312    OC301     9   180.000000     4.602400     1 ; from, OC301   CC321   CC3153  CC3151
  CC3151   CC3153    CC312    OC301     9   180.000000     0.292880     2 ; 
  CC3151   CC3153    CC312    OC301     9     0.000000     0.627600     3 ; 
   CC312    OC301   CC3152   OC3C51     9     0.000000     4.100320     2 ; from, CC321   OC301   CC3152  OC3C51
   CC312    OC301   CC3152   OC3C51     9     0.000000     6.276000     3 ; 
   CC312    OC301   CC3152     HCA1     9     0.000000     1.188256     3 ; HCA1    CC3152  OC301   CC321
   CC312    OC301   CC3152   CC3151     9   180.000000     4.058480     1 ; 
   CC312    OC301   CC3152   CC3151     9   180.000000     1.840960     3 ; 
    HCA1    CC312    OC301   CC3152     9     0.000000     1.188256     3 ; from, HCA2    CC321   OC301   CC3152
   CC322    CC312    OC301   CC3152     9     0.000000     1.673600     1 ; par35, from, CC3162  OC301   CC321   CC321
   CC322    CC312    OC301   CC3152     9     0.000000     2.050160     3 ; 
  CC3162   CC3161    OC301   CC3051     9   180.000000     0.502080     1 ; from, CC3152  OC301   CC3161  CC3162
  CC3162   CC3161    OC301   CC3051     9   180.000000     0.125520     2 ; 
  CC3162   CC3161    OC301   CC3051     9     0.000000     0.585760     3 ; 
  CC3161    OC301   CC3051   OC3C51     9   180.000000     2.175680     1 ; pram model compound 4 (raman et al)
  CC3161    OC301   CC3051   OC3C51     9     0.000000     6.276000     2 ; 
  CC3161    OC301   CC3051   OC3C51     9     0.000000     4.100320     3 ; 
  CC3161    OC301   CC3051    CC321     9   180.000000     0.292880     1 ; pram model compound 3 (raman et al)
  CC3161    OC301   CC3051    CC321     9     0.000000     0.167360     2 ; " MCSA fit
  CC3161    OC301   CC3051    CC321     9     0.000000     0.585760     3 ; 
  CC3161    OC301   CC3051   CC3151     9   180.000000     0.292880     1 ; pram model compound 3 (raman et al)
  CC3161    OC301   CC3051   CC3151     9     0.000000     0.167360     2 ; " MCSA fit
  CC3161    OC301   CC3051   CC3151     9     0.000000     0.585760     3 ; 
    HCA1   CC3161    OC301   CC3051     9     0.000000     1.188256     3 ; from CC3161 OC301 CC3162 HCA1
   OC301   CC3051   OC3C51   CC3251     9   180.000000     0.794960     1 ; OC311   CC3051  OC3C51  CC3153 BFRU
   OC301   CC3051   OC3C51   CC3251     9   180.000000    11.924400     2 ; 
   OC301   CC3051   OC3C51   CC3251     9     0.000000     3.598240     3 ; 
  CC3161   CC3161    OC301   CC3051     9   180.000000     0.502080     1 ; from, CC3152  OC301   CC3161  CC3162
  CC3161   CC3161    OC301   CC3051     9   180.000000     0.125520     2 ; 
  CC3161   CC3161    OC301   CC3051     9     0.000000     0.585760     3 ; 
   CC322    OC30P       PC    OC2DP     9   180.000000     5.020800     1 ; OSLP PL   OSLP CTL2
   CC322    OC30P       PC    OC2DP     9   180.000000     0.418400     2 ; 
   CC322    OC30P       PC    OC2DP     9   180.000000     0.418400     3 ; 
   CC322    OC30P       PC    OC30P     9     0.000000     0.418400     3 ; phosphate, new NA, 4/98, adm jr.
    HCA2    CC322    OC30P       PC     9     0.000000     0.000000     3 ; phosphate, new NA, 4/98, adm jr.
   OC30P    CC322    CC312     HCA1     9     0.000000     0.836800     3 ; alkane, 3/92; X CTL1 CTL2 X
   OC30P    CC322    CC312    OC311     9     0.000000     0.836800     3 ; alkane, 3/92; X CTL1 CTL2 X
   OC30P    CC322    CC312    CC322     9     0.000000     0.836800     3 ; alkane, 3/92; X CTL1 CTL2 X
      PC    OC30P    CC322    CC312     9     0.000000     1.702888     2 ; Phos-gly, 8/05
      PC    OC30P    CC322    CC312     9   180.000000     1.008344     1 ; Phos-gly, 8/05
   CC322    CC312    OC30P       PC     9     0.000000     1.702888     2 ; Phos-gly, 8/05
   CC322    CC312    OC30P       PC     9   180.000000     1.008344     1 ; Phos-gly, 8/05
    HCA2    CC322    CC312    OC30P     9     0.000000     0.836800     3 ; alkane, 3/92; X CTL1 CTL2 X
   OC311    CC322    CC312    OC30P     9     0.000000     0.836800     3 ; alkane, 3/92; X CTL1 CTL2 X
   CC312    OC30P       PC    OC2DP     9     0.000000     0.418400     3 ; phosphate, new NA, 4/98, adm jr., PIP
   CC312    OC30P       PC    OC30P     9   180.000000     5.020800     1 ; phosphate, new NA, 4/98, adm jr., PIP
   CC312    OC30P       PC    OC30P     9   180.000000     0.418400     2 ; 
   CC312    OC30P       PC    OC30P     9   180.000000     0.418400     3 ; 
    HCA1    CC312    OC30P       PC     9     0.000000     0.000000     3 ; phosphate, new NA, 4/98, adm jr.
   CC312    CC312    CC322    OC30P     9     0.000000     0.000000     1 ; from, CTL1 CTL1 CTL2 OSLP
  CC3163    CC312    CC322    OC30P     9     0.000000     0.000000     1 ; from, CTL1 CTL1 CTL2 OSLP
   CC2O2    CC312    OC30P       PC     9     0.000000     1.702888     2 ; Phos-gly, 8/05
   CC2O2    CC312    OC30P       PC     9   180.000000     1.008344     1 ; Phos-gly, 8/05
   OC2D2    CC2O2    CC312    OC30P     9   180.000000     0.209200     6 ; par22 X CT1  CC   X
   OC30P   CC3161   CC3163    CC331     9     0.000000     0.836800     3 ; alkane, 3/92; X CTL1 CTL2 X
   OC30P    CC312    CC312     HCA1     9     0.000000     0.836800     3 ; alkane, 3/92; X CTL1 CTL1 X
   OC30P    CC312    CC312    OC311     9     0.000000     0.836800     3 ; alkane, 3/92; X CTL1 CTL1 X
   OC30P    CC312    CC312    CC312     9     0.000000     0.836800     3 ; alkane, 3/92; X CTL1 CTL1 X
      PC    OC30P    CC312    CC312     9     0.000000     1.702888     2 ; Phos-gly, 8/05
      PC    OC30P    CC312    CC312     9   180.000000     1.008344     1 ; 
   CC2O1   CC3161   CC3163    CC331     9     0.000000     0.836800     3 ; from, CC3161  CC3161  CC3163  CC2O2, par27 X CTL1 CTL1 X
     NH1   CC3161   CC3161    OC301     9     0.000000     0.836800     3 ; par27 X CTL1 CTL1 X
   OC301   CC3152   CC3151    OC303     9   180.000000    12.008080     1 ; from, OC303   CC3151  CC3151  OC311
   OC301   CC3152   CC3151    OC303     9     0.000000     0.125520     2 ; 
   OC301   CC3152   CC3151    OC303     9     0.000000     0.962320     3 ; 
   OC301   CC3161   CC3161    CC2O1     9     0.000000     0.836800     3 ; par27 X CTL1 CTL1 X
   OC303   CC3162   CC3161    OC301     9   180.000000     2.468560     1 ; from OC301 CC3161 CC3162 OC301
   OC301   CC3151   CC3151    OC303     9   180.000000    12.008080     1 ; from, OC303   CC3151  CC3151  OC311
   OC301   CC3151   CC3151    OC303     9     0.000000     0.125520     2 ; 
   OC301   CC3151   CC3151    OC303     9     0.000000     0.962320     3 ; 
   OC301   CC3152   CC3151    OC301     9   180.000000    12.008080     1 ; from, OC303   CC3151  CC3151  OC311
   OC301   CC3152   CC3151    OC301     9     0.000000     0.125520     2 ; 
   OC301   CC3152   CC3151    OC301     9     0.000000     0.962320     3 ; 
   OC30P    CC322    CC312    OC301     9     0.000000     0.836800     3 ; alkane, 3/92; X CTL1 CTL2 X
  CC3163    CC321    NC2D1    CC312     9   180.000000     2.677760     1 ; CC3163 CC321 OC301 CC3162
  CC3163    CC321    NC2D1     HCP1     9     0.000000     0.000000     1 ; from H    NH1  CT1  CT2
    HCA1   CC3163    CC321    NC2D1     9     0.000000     0.836800     3 ; From X    CT1  CT2  X
  OC3C61   CC3163    CC321    NC2D1     9   180.000000     6.236670     1 ; from, OC301   CC321   CC3163  OC3C61
  OC3C61   CC3163    CC321    NC2D1     9     0.000000     1.572766     2 ; 
  OC3C61   CC3163    CC321    NC2D1     9     0.000000     2.475254     3 ; 
  CC3161   CC3163    CC321    NC2D1     9   180.000000     2.092000     1 ; from, CC3161  CC3163  CC321   OC301
  CC3161   CC3163    CC321    NC2D1     9   180.000000     1.548080     2 ; 
  CC3161   CC3163    CC321    NC2D1     9     0.000000     0.627600     3 ; 
   CC321    NC2D1    CC312    CC322     9     0.000000     1.673600     1 ; par35, from, CC3162  OC301   CC321   CC321
   CC321    NC2D1    CC312     HCA1     9     0.000000     1.188256     3 ; from,  CC3162  OC301   CC321   HCA2
    HCA2    CC321    NC2D1    CC312     9     0.000000     1.188256     3 ; from,  CC3162  OC301   CC321   HCA2
    HCA2    CC321    NC2D1     HCP1     9     0.000000     0.000000     1 ; from, HCP1    NC2D1   CC311   HCA1
   CC322    CC312    NC2D1     HCP1     9     0.000000     0.000000     1 ; from H    NH1  CT1  CT2
    HCA2    CC322    CC312    NC2D1     9     0.000000     0.836800     3 ; par27 X CTL1 CTL1 X
   OC311    CC322    CC312    NC2D1     9   180.000000     7.426182     1 ; from, OC301   CC312   CC322   OC311
   OC311    CC322    CC312    NC2D1     9     0.000000     6.574319     2 ; 
   OC311    CC322    CC312    NC2D1     9     0.000000     7.620738     3 ; 
    HCA1    CC312    NC2D1     HCP1     9     0.000000     0.000000     1 ; from, HCP1    NC2D1   CC311   HCA1
  CC3163    CC2O1    NC2D1    CC312     9     0.000000     6.694400     1 ; ALLOW PEP
  CC3163    CC2O1    NC2D1    CC312     9   180.000000    10.460000     2 ; from, CT2  NH1  C    CT1
   CC2O1    NC2D1    CC312    CC322     9     0.000000     7.531200     1 ; from CT2  CT1  NH1  C
   CC2O1    NC2D1    CC312     HCA1     9     0.000000     0.000000     3 ; HA2  CT2  NH1  C
   OC2D1    CC2O1    NC2D1    CC312     9   180.000000    10.460000     2 ; from, O    C    NH1  CT2
  CC3163   CC3161   OC3C61    CC301     9     0.000000     0.836800     3 ; og/sng thp
  CC3163   CC3261   OC3C61    CC301     9     0.000000     0.836800     3 ; og/sng thp
    HCA1   CC3163   CC3261   OC3C61     9     0.000000     0.836800     3 ; HCA1    CC3161  CC3162  OC3C61
  OC3C61   CC3163   CC3261   OC3C61     9   180.000000     1.297040     3 ; og/sng thp
  CC3161   CC3161   CC3163   CC3261     9   180.000000     0.794960     3 ; from CC3161  CC3161  CC3161  CC3163
  CC3161   CC3163   CC3261     HCA2     9     0.000000     0.836800     3 ; from HCA1    CC3161  CC3161  CC3162
  CC3161   CC3163   CC3261   OC3C61     9   180.000000     1.297040     3 ; from CC3161  CC3161  CC3162  OC3C61
    HCA1   CC3161   CC3163   CC3261     9     0.000000     0.836800     3 ; from HCA1    CC3161  CC3161  CC3162
  OC3C61   CC3161   CC3163   CC3261     9   180.000000     1.297040     3 ; from CC3161  CC3161  CC3162  OC3C61
  OC3C61    CC301   OC3C61   CC3261     9   180.000000     1.297040     3 ; from CC3161  CC3161  CC3162  OC3C61
  CC3261   OC3C61    CC301    CC2O2     9     0.000000     0.836800     3 ; from, CC2O2   CC3062  OC3C61  CC3163
  CC3261   OC3C61    CC301    CC331     9     0.000000     0.836800     3 ; og/sng thp CC321C CC321C OC3C61 CC321C
    HCA2   CC3261   OC3C61    CC301     9     0.000000     0.836800     3 ; from HCA1    CC3161  CC3161  CC3162
    HCA1   CC3163   CC3161   OC3C61     9     0.000000     0.836800     3 ; HCA1    CC3161  CC3162  OC3C61
  OC3C61   CC3163   CC3161   OC3C61     9   180.000000     1.297040     3 ; og/sng thp
  CC3161   CC3161   CC3161   OC3C61     9   180.000000     1.297040     3 ; from, CC3161  CC3161  CC3162  OC3C61
  CC3161   CC3161   OC3C61    CC301     9     0.000000     0.836800     3 ; og/sng thp CC321C CC321C OC3C61 CC321C
    HCA1   CC3161   CC3161   OC3C61     9     0.000000     0.836800     3 ; HCA1    CC3161  CC3162  OC3C61
   OC311   CC3161   CC3161   OC3C61     9   180.000000    11.506000     1 ; from, OC311   CC3161  CC3162  OC3C61
   OC311   CC3161   CC3161   OC3C61     9   180.000000     1.087840     2 ; 
   OC311   CC3161   CC3161   OC3C61     9     0.000000     0.418400     3 ; 
  CC3161   OC3C61    CC301   OC3C61     9   180.000000     1.297040     3 ; og/sng thp
  CC3161   OC3C61    CC301    CC2O2     9     0.000000     0.836800     3 ; from, CC2O2   CC3062  OC3C61  CC3163
  CC3161   OC3C61    CC301    CC331     9     0.000000     0.836800     3 ; from, CC3161  CC3163  OC3C61  CC3062
    HCA1   CC3161   OC3C61    CC301     9     0.000000     1.188256     3 ; from, HCA1    CC3163  OC3C61  CC3062
  OC3C61    CC301    CC2O2    OC2D2     9   180.000000     2.677760     2 ; from, OC3C61  CC3062  CC2O2   OC2D2
  OC3C61    CC301    CC331     HCA3     9     0.000000     0.836800     3 ; from, HCA3    CC331   CC3163  OC3C61
   OC301   CC3161   CC3161   OC3C61     9   180.000000    11.506000     1 ; from, OC301   CC3161  CC3162  OC3C61
   OC301   CC3161   CC3161   OC3C61     9   180.000000     1.087840     2 ; 
   OC301   CC3161   CC3161   OC3C61     9     0.000000     0.418400     3 ; 
  CC3062   OC3C61   CC3163    CC2O2     9     0.000000     0.836800     3 ; CC3062   OC3C61   CC3163   CC311
  CC3162    CC321    OC311     HCP1     9     0.000000     1.213360     1 ; from CC3163 CC321 OC311 HCP1
  CC3162    CC321    OC311     HCP1     9     0.000000     2.594080     2 ; 
  CC3162    CC321    OC311     HCP1     9     0.000000     0.209200     3 ; 
   OC311   CC3162    CC321     HCA2     9     0.000000     0.585760     3 ; ethanol, par_carb HCA2 CC3263 CC3161 OC311; erh 3/08
   OC311   CC3162    CC321    OC311     9     0.000000     0.292880     1 ; from OC311 CC3051 CC321 OC311
   OC311   CC3162    CC321    OC311     9   180.000000     8.326160     2 ; 
   OC311   CC3162    CC321    OC311     9   180.000000     7.196480     3 ; 
    HCP1    OC311   CC3162    CC321     9   180.000000     1.673600     1 ; from CC321 CC3051 OC311 HCP1
    HCP1    OC311   CC3162    CC321     9     0.000000     2.008320     2 ; 
    HCP1    OC311   CC3162    CC321     9     0.000000     0.794960     3 ; 
  CC3263   OC3C61   CC3162    CC321     9     0.000000     0.836800     3 ; from CC321 CC3163 OC3C61 CC3162
  OC3C61   CC3162    CC321     HCA2     9     0.000000     0.836800     3 ; from HCA2  CC321  CC3163 OC3C61
  OC3C61   CC3162    CC321    OC311     9   180.000000     3.138000     1 ; from OC311 CC321  CC3163 OC3C61
  OC3C61   CC3162    CC321    OC311     9     0.000000     0.711280     2 ; 
  OC3C61   CC3162    CC321    OC311     9   180.000000     1.046000     3 ; 
  CC3161   CC3162    CC321     HCA2     9     0.000000     0.836800     3 ; from HCA1 CC3163 CC312 CC321
  CC3161   CC3162    CC321    OC311     9   180.000000     3.138000     1 ; from CC3261 CC3163 CC321 OC311
  CC3161   CC3162    CC321    OC311     9     0.000000     0.711280     2 ; 
  CC3161   CC3162    CC321    OC311     9   180.000000     1.046000     3 ; 
    HCA1   CC3161   CC3162    CC321     9     0.000000     0.836800     3 ; from HCA2 CC3261 CC3163 CC321
   OC311   CC3161   CC3162    CC321     9     0.000000     0.836800     3 ; from CC321 CC3163 CC3161 OC311
  CC3161   CC3161   CC3162    CC321     9     0.000000     0.836800     3 ; from CC3161  CC3161  CC3163  CC321
   CC321     CEL1     CEL2     HEL2     9   180.000000    21.756800     2 ; CTL2 CEL1 CEL2 HEL2
  CC3062    OC301    CC321     CEL1     9   180.000000     2.677760     1 ; from CC312C CC321    OC301   CC331
  CC3062    OC301    CC321     CEL1     9   180.000000     0.125520     2 ; 
  CC3062    OC301    CC321     CEL1     9     0.000000     2.552240     3 ; 
   OC301    CC321     CEL1     HEL1     9     0.000000     0.836800     3 ; from OC301   CC311C  CC321D  HCA2
   OC301    CC321     CEL1     CEL2     9     0.000000     0.836800     3 ; from OC301   CC311C  CC321C  CC321C
    HCA2    CC321     CEL1     CEL2     9     0.000000     0.502080     3 ; from CEL2 CEL1 CTL2 HAL2
    HCA2    CC321     CEL1     HEL1     9     0.000000     0.000000     3 ; from HEL1 CEL1 CTL2 HAL2
  CC3162    SG311    CC311     HCA1     9     0.000000     1.171520     3 ; from HGA3   CG331  SG311  CG321
   CC311    SG311   CC3162     HCA1     9     0.000000     1.171520     3 ; from HGA3   CG331  SG311  CG321
  CC3162    SG311    CC311    CC331     9   180.000000     1.004160     1 ; from CG331  CG321  SG311  CG331
  CC3162    SG311    CC311    CC331     9     0.000000     1.548080     3 ; 
   SG311    CC311    CC331     HCA3     9     0.000000     0.669440     3 ; from SG311  CG321  CG331  HGA3
   CC311    SG311   CC3162   OC3C61     9   180.000000     1.004160     1 ; from CG331  CG321  SG311  CG331
   CC311    SG311   CC3162   OC3C61     9     0.000000     1.548080     3 ; 
   CC311    SG311   CC3162   CC3161     9   180.000000     1.004160     1 ; from CG331  CG321  SG311  CG331
   CC311    SG311   CC3162   CC3161     9     0.000000     1.548080     3 ; 
  CC3162   OC3C61   CC3163       CD     9     0.000000     0.836800     3 ; CC2O2   CC3163  OC3C61  CC3162
  CC3161   CC3161   CC3163       CD     9     0.000000     0.836800     3 ; CC3161  CC3161  CC3163  CC2O2
    HCA1   CC3163       CD       OB     9   180.000000     0.000000     6 ; X    CT1  CD   X
    HCA1   CC3163       CD       OS     9   180.000000     0.000000     6 ; X    CT1  CD   X
  OC3C61   CC3163       CD       OB     9   180.000000     0.000000     6 ; X    CT1  CD   X
  OC3C61   CC3163       CD       OS     9   180.000000     0.000000     6 ; X    CT1  CD   X
  CC3161   CC3163       CD       OB     9   180.000000     0.000000     6 ; X    CT1  CD   X
  CC3161   CC3163       CD       OS     9   180.000000     0.000000     6 ; X    CT1  CD   X
    HCA1   CC3161   CC3163       CD     9     0.000000     0.836800     3 ; HA1  CT1  CT1  C
   OC301   CC3161   CC3163       CD     9     0.000000     0.836800     3 ; par27 X CT1 CT1 X
   OC311   CC3161   CC3163       CD     9   180.000000     3.305360     1 ; from, C    CT1  CT1  OH1
   OC311   CC3161   CC3163       CD     9   180.000000     1.631760     2 ; 
   OC311   CC3161   CC3163       CD     9   180.000000     4.142160     3 ; 
  OC3C51   CC3152    OC30P       PC     9     0.000000     1.589920     2 ; OC3C61   CC3162    OC30P     PC
  OC3C51   CC3152    OC30P       PC     9   180.000000     1.715440     3 ; 
  CC3152    OC30P       PC    OC2DP     9     0.000000     1.380720     3 ; CC3162   OC30P     PC        OC2DP
    HCA1   CC3152    OC30P       PC     9     0.000000     1.188256     3 ; HCA1     CC3162    OC30P     PC
   OC30P   CC3152   OC3C51   CC3153     9   180.000000    10.208960     3 ; CC3163   OC3C61    CC3162    OC30P
   OC30P   CC3152   CC3151     HCA1     9     0.000000     0.836800     3 ; HCA1     CC3161    CC3162    OC30P
   OC30P   CC3152   CC3151    OC311     9   180.000000    10.460000     1 ; OC30P    CC3162    CC3161    OC311
   OC30P   CC3152   CC3151    OC311     9     0.000000     8.368000     2 ; 
   OC30P   CC3152   CC3151    OC311     9     0.000000    10.460000     3 ; 
   OC30P   CC3152   CC3151   CC3151     9     0.000000     7.363840     1 ; CC3161   CC3161    CC3162    OC30P
   OC30P   CC3152   CC3151   CC3151     9     0.000000    10.711040     2 ; 
   OC30P   CC3152   CC3151   CC3151     9     0.000000     0.041840     3 ; 
      PC    OC30P   CC3152   CC3151     9   180.000000     0.083680     3 ; CC3161   CC3162    OC30P     PC
  CC3152    OC30P       PC    OC30P     9   180.000000     5.020800     1 ; CC3162   OC30P    PC       OC30P
  CC3152    OC30P       PC    OC30P     9   180.000000     0.418400     2 ; 
  CC3152    OC30P       PC    OC30P     9   180.000000     0.418400     3 ; 
  CC3162    OC301    CC312    CC2O2     9     0.000000     0.836800     3 ; CC3161   OC301    CC311    CC2O2
   OC301    CC312    CC2O2    OC2D2     9   180.000000     2.677760     2 ; OC2D2    CC2O2    CC311    OC301
  OC3C51   CC3152    NC2D1     HCP1     9     0.000000     0.000000     1 ; HCP1    NC2D1   CC3162  OC3C61
  OC3C51   CC3152    NC2D1    CC2O1     9   180.000000    11.296800     1 ; CC2O1   NC2D1   CC3162  OC3C61
  OC3C51   CC3152    NC2D1    CC2O1     9     0.000000     5.355520     2 ; 
  CC3152    NC2D1    CC2O1    OC2D1     9   180.000000    10.460000     2 ; par22 O C NH1 CT1
  CC3152    NC2D1    CC2O1      CT2     9     0.000000     6.694400     1 ; CT1 NH1 C CT3
    HCA1   CC3152    NC2D1     HCP1     9     0.000000     0.000000     1 ; par22 HB CT1 NH1 H
    HCA1   CC3152    NC2D1    CC2O1     9     0.000000     0.000000     1 ; HB CT1 NH1 C
   NC2D1   CC3152   OC3C51   CC3153     9     0.000000     2.594080     1 ; og OMeTHP compounds 2 and 3
   NC2D1   CC3152   OC3C51   CC3153     9     0.000000     6.443360     2 ; OC301    CC311D   OC3C61   CC321C
   NC2D1   CC3152   OC3C51   CC3153     9     0.000000     2.008320     3 ; "  MP2/cc-pVTZ//MP2/6-31G*
   NC2D1   CC3152   CC3151     HCA1     9     0.000000     0.836800     3 ; NC2D1   CC3162  CC3161  HCA1
   NC2D1   CC3152   CC3151    OC311     9     0.000000     0.836800     3 ; NC2D1   CC3162  CC3161  OC311
   NC2D1   CC3152   CC3151   CC3151     9     0.000000     0.836800     3 ; NC2D1   CC3161  CC3161  CC3161
   NC2D1    CC2O1      CT2      HB2     9     0.000000     0.000000     3 ; HCA2    CC321   CC2O1   NC2D1
   NC2D1    CC2O1      CT2      NH2     9     0.000000     2.510400     1 ; from, NH3  CT1  C    NH1
    HCP1    NC2D1   CC3152   CC3151     9     0.000000     0.000000     1 ; HCP1    NC2D1   CC3162  CC3161
    HCP1    NC2D1    CC2O1      CT2     9   180.000000    10.460000     2 ; H NH1 C CT2
   CC2O1    NC2D1   CC3152   CC3151     9   180.000000     2.092000     1 ; CC2O1   NC2D1   CC3162  CC3161
   CC2O1      CT2      NH2        H     9     0.000000     0.000000     1 ; H    NH2  CT2  C
   OC2D1    CC2O1      CT2      NH2     9     0.000000     0.000000     1 ; NH2  CT2  C    O
  CC3163    CC321    OC301     CTL2     9   180.000000     2.677760     1 ; CC3163  CC321   OC301   CC3162
  CC3163    CC321    OC301     CTL2     9   180.000000     0.125520     2 ; 
  CC3163    CC321    OC301     CTL2     9     0.000000     2.552240     3 ; 
   CC321    OC301     CTL2     CTL2     9     0.000000     1.673600     1 ; CC3162  OC301   CTL2    CTL2
   CC321    OC301     CTL2     CTL2     9     0.000000     2.050160     3 ; 
   CC321    CC321    OC301     CTL2     9     0.000000     1.673600     1 ; CC3162  OC301   CC321   CC321
   CC321    CC321    OC301     CTL2     9     0.000000     2.050160     3 ; 
   CC321    OC301     CTL2     HAL2     9     0.000000     1.188256     3 ; HCA2 CC32A OC30A CC32A
    HCA2    CC321    OC301     CTL2     9     0.000000     1.188256     3 ; HCA2 CC32A OC30A CC32A
    CTO2     CTL1    OC301     CTL2     9     0.000000     1.673600     1 ; CC3162  OC301   CTL2    CTL2
    CTO2     CTL1    OC301     CTL2     9     0.000000     2.050160     3 ; 
    CTL1    OC301     CTL2     CTL2     9     0.000000     1.673600     1 ; CC3162  OC301   CTL2    CTL2
    CTL1    OC301     CTL2     CTL2     9     0.000000     2.050160     3 ; 
    CTL1     CTL2    OC301     CTL2     9     0.000000     1.673600     1 ; CC3162  OC301   CTL2    CTL2
    CTL1     CTL2    OC301     CTL2     9     0.000000     2.050160     3 ; 
    CTL2    OC301     CTL1     CTL2     9     0.000000     1.673600     1 ; CC3162  OC301   CTL2    CTL22
    CTL2    OC301     CTL1     CTL2     9     0.000000     2.050160     3 ; 
    CTL1    OC301     CTL2     HAL2     9     0.000000     1.188256     3 ; CC3161  OC301   CTL2    HAL2
    CTL2    OC301     CTL2     HAL2     9     0.000000     1.188256     3 ; CC3162  OC301   CTL2    HAL2
    CTL2    OC301     CTL2     CTL2     9     0.000000     1.673600     1 ; CC3162  OC301   CTL2    CTL2
    CTL2    OC301     CTL2     CTL2     9     0.000000     2.050160     3 ; 
   OC302   CC3162   CC3161    OC30P     9   180.000000    10.460000     1 ; OC30P    CC3161    CC3162    OC301
   OC302   CC3162   CC3161    OC30P     9     0.000000     8.368000     2 ; 
   OC302   CC3162   CC3161    OC30P     9     0.000000    10.460000     3 ; 
   OC302   CC3051    CC321    OC30P     9   180.000000    10.460000     1 ; OC30P    CC3161    CC3162    OC301
   OC302   CC3051    CC321    OC30P     9     0.000000     8.368000     2 ; 
   OC302   CC3051    CC321    OC30P     9     0.000000    10.460000     3 ; 
   OC302   CC3051   CC3151    OC30P     9   180.000000    10.460000     1 ; OC30P    CC3161    CC3162    OC301
   OC302   CC3051   CC3151    OC30P     9     0.000000     8.368000     2 ; 
   OC302   CC3051   CC3151    OC30P     9     0.000000    10.460000     3 ; 
  OC3C51   CC3051    CC321    OC30P     9     0.000000     0.251040     1 ; OC3C61  CC3163  CC321   OC30P
  OC3C51   CC3051    CC321    OC30P     9     0.000000     3.263520     2 ; 
  OC3C51   CC3051    CC321    OC30P     9   180.000000     3.096160     3 ; 
  OC3C51   CC3051   CC3151    OC30P     9     0.000000     0.251040     1 ; OC3C61  CC3163  CC321   OC30P
  OC3C51   CC3051   CC3151    OC30P     9     0.000000     3.263520     2 ; 
  OC3C51   CC3051   CC3151    OC30P     9   180.000000     3.096160     3 ; 
  OC3C51   CC3153   CC3151    OC30P     9     0.000000     2.552240     3 ; OC3C61   CC3163    CC3161    OC30P
  CC3051    CC321    OC30P       SC     9   180.000000     5.899440     1 ; CC3163   CC321     OC30P     SC
  CC3051    CC321    OC30P       SC     9     0.000000     1.673600     2 ; 
  CC3051    CC321    OC30P       SC     9   180.000000     0.878640     3 ; 
  CC3051   CC3151    OC30P       SC     9     0.000000     0.878640     3 ; CC3162    CC3161  OC30P     SC
  CC3051   CC3151   CC3151    OC30P     9     0.000000     7.363840     1 ; CC3162   CC3161   CC3161    OC30P
  CC3051   CC3151   CC3151    OC30P     9     0.000000    10.711040     2 ; 
  CC3051   CC3151   CC3151    OC30P     9     0.000000     0.041840     3 ; 
  CC3153    CC321    OC30P       SC     9   180.000000     5.899440     1 ; CC3163    CC321   OC30P     SC
  CC3153    CC321    OC30P       SC     9     0.000000     1.673600     2 ; 
  CC3153    CC321    OC30P       SC     9   180.000000     0.878640     3 ; 
  CC3153   CC3151   CC3151    OC30P     9     0.000000     7.363840     1 ; CC3163   CC3161  CC3161    OC30P
  CC3153   CC3151   CC3151    OC30P     9     0.000000    10.711040     2 ; 
  CC3153   CC3151   CC3151    OC30P     9     0.000000     0.041840     3 ; 
  CC3153   CC3151    OC30P       SC     9     0.000000     0.878640     3 ; CC3163   CC3161  OC30P     SC
    HCA1   CC3153   CC3151    OC30P     9     0.000000     0.836800     3 ; HCA1     CC3163  CC3161    OC30P
   CC321   CC3153   CC3151    OC30P     9     0.000000     0.836800     3 ; CC321    CC3163  CC3161    OC30P
   CC321   CC3051   CC3151    OC30P     9     0.000000     0.836800     3 ; CC321    CC3163  CC3161    OC30P
   OC30P    CC321   CC3051   CC3151     9     0.000000     1.799120     3 ; CC3161   CC3163  CC321     OC30P
  CC3151    OC30P       SC    OC2DP     9     0.000000     0.711280     3 ; CC3162   OC30P   SC        OC2DP
    HCA1   CC3151    OC30P       SC     9     0.000000     0.000000     3 ; HCA1     CC3161  OC30P     SC
    HCA1   CC3151   CC3151    OC30P     9     0.000000     0.836800     3 ; HCA1     CC3161  CC3161    OC30P
   OC30P   CC3151   CC3151    OC30P     9     0.000000     5.313680     3 ; OC30P    CC3161  CC3161    OC30P
      SC    OC30P   CC3151   CC3151     9     0.000000     0.878640     3 ; CC3161   CC3161  OC30P     SC
   OC311   CC3151   CC3151    OC30P     9   180.000000    10.460000     1 ; OC30P    CC3161    CC3161    OC311
   OC311   CC3151   CC3151    OC30P     9     0.000000     8.368000     2 ; 
   OC311   CC3151   CC3151    OC30P     9     0.000000    10.460000     3 ; 
   OC311   CC3051   CC3151    OC30P     9   180.000000    10.460000     1 ; OC30P    CC3161    CC3161    OC311
   OC311   CC3051   CC3151    OC30P     9     0.000000     8.368000     2 ; 
   OC311   CC3051   CC3151    OC30P     9     0.000000    10.460000     3 ; 
   CC2O2   CC3062    OC301    CC331     9     0.000000     0.836800     3 ; CC2O2   CC311   OC301   CC331
  CC3062    OC301    CC331     HCA3     9     0.000000     1.188256     3 ; CC3162  OC301   CC331   HCA3
   CC331    OC301   CC3062   OC3C61     9     0.000000     0.585760     1 ; CC331   OC301   CC3162  OC3C61
   CC331    OC301   CC3062   OC3C61     9     0.000000     4.058480     2 ; "  MCSA fit
   CC331    OC301   CC3062   OC3C61     9   180.000000     0.460240     3 ; 
   CC331    OC301   CC3062   CC3261     9     0.000000     0.920480     1 ; CC3161  CC3162  OC301   CC331
   CC331    OC301   CC3062   CC3261     9   180.000000     1.171520     2 ; 
   CC331    OC301   CC3062   CC3261     9     0.000000     3.723760     3 ; 
    FGA1   CC3261   CC3162    OC301     9     0.000000     0.836800     3 ; OG303   CG3C51  CG3C51  FGA1
  CC3263   OC3C61   CC3162   CC3261     9     0.000000     0.836800     3 ; CC3161  CC3162  OC3C61  CC3163
  CC3263   CC3161   CC3161   CC3261     9   180.000000     0.794960     3 ; CC3261  CC3161  CC3161  CC3163
   CC2O2   CC3062   CC3261     FGA1     9     0.000000     0.836800     3 ; par27 X CTL1 CTL2 X
   OC311   CC3062   CC3261     FGA1     9     0.000000     0.836800     3 ; par27 X CTL1 CTL2 X
  OC3C61   CC3062   CC3261     FGA1     9     0.000000     0.836800     3 ; par27 X CTL1 CTL2 X
   OC2D2    CC2O2   CC3062     FGA1     9   180.000000     0.209200     6 ; par22 X CT1 CC X
    FGA1   CC3062   OC3C61   CC3163     9     0.000000     0.836800     3 ; CG3C51  CG3C51  CG3C51  FGA1     0.200 3    0.00
    FGA1   CC3062   CC3261     HCA2     9     0.000000     0.836800     3 ; par27 X CTL1 CTL2 X
    FGA1   CC3062   CC3261     FGA1     9     0.000000     0.836800     3 ; par27 X CTL1 CTL2 X
    FGA1   CC3062   CC3261   CC3161     9     0.000000     0.836800     3 ; CG3C51  CG3C51  CG3C51  FGA1     0.200 3    0.00
   SG311   CC3162   CC3161    OC301     9   180.000000    11.087600     1 ; OC301   CC3161  CC3162  OC311
   SG311   CC3162   CC3161    OC301     9     0.000000     0.000000     2 ; 
   SG311   CC3162   CC3161    OC301     9   180.000000     0.543920     3 ; 
  CC3163    CC321       SC    OC2DP     9     0.000000     0.962320     3 ; CG321  CG321  SG3O1  OG2P1
    HCA1   CC3163    CC321       SC     9     0.000000     0.041840     1 ; SG3O1  CG321  CG321  HGA2, PSNA, propyl sulfonate, xhe
  OC3C61   CC3163    CC321       SC     9   180.000000     3.932960     1 ; CG331  CG321  CG321  SG3O1
  OC3C61   CC3163    CC321       SC     9     0.000000     1.589920     2 ; 
  OC3C61   CC3163    CC321       SC     9     0.000000     0.460240     3 ; 
    HCA2    CC321       SC    OC2DP     9     0.000000     0.794960     3 ; HGA2   CG321  SG3O1  OG2P1
  CC3161   CC3163    CC321       SC     9   180.000000     3.932960     1 ; CG331  CG321  CG321  SG3O1
  CC3161   CC3163    CC321       SC     9     0.000000     1.589920     2 ; 
  CC3161   CC3163    CC321       SC     9     0.000000     0.460240     3 ; 
  CC3261   CC3161    NC2D1     HCP1     9     0.000000     0.000000     1 ; HCP1    NC2D1   CC3162  CC3161
  CC3261   CC3161    NC2D1    CC2O1     9   180.000000     2.092000     1 ; CC2O1   NC2D1   CC3161  CC3163
    HCA2   CC3261   CC3161    NC2D1     9     0.000000     0.836800     3 ; NC2D1   CC3162  CC3161  HCA1
  OC3C61   CC3261   CC3161    NC2D1     9     0.000000     0.836800     3 ; OC3C61  CC3162  CC3161  NC2D1
  OC3C61   CC3261   CC3161    OC301     9   180.000000    11.506000     1 ; OC301    CC3161   CC3161   OC3C61
  OC3C61   CC3261   CC3161    OC301     9   180.000000     1.087840     2 ; 
  OC3C61   CC3261   CC3161    OC301     9     0.000000     0.418400     3 ; 
  CC3261   CC3163    CC321    OC30P     9     0.000000     1.799120     3 ; CC3161   CC3163   CC321    OC30P
   OC30P   CC3161   CC3161   CC3261     9     0.000000     7.363840     1 ; CC3161   CC3161    CC3161    OC30P
   OC30P   CC3161   CC3161   CC3261     9     0.000000    10.711040     2 ; 
   OC30P   CC3161   CC3161   CC3261     9     0.000000     0.041840     3 ; 
  CC3161   CC3261   CC3163    CC2O2     9     0.000000     0.836800     3 ; CC3161  CC3161  CC3163  CC2O2
  CC3261   CC3163    CC2O2    OC2D2     9   180.000000     0.209200     6 ; CC3161  CC3163  CC2O2   OC2D2
    HCA2   CC3261   CC3163    CC2O2     9     0.000000     0.836800     3 ; CC2O2    CC312    CC322    HCA2
  CC3162   CC3261   CC3161    OC301     9     0.000000     0.836800     3 ; CC3162  CC3161  CC3161  OC301
  CC3162    SG311     CTL2     HAL2     9     0.000000     1.171520     3 ; HGA2   CG321  SG311  CG321
  CC3162    SG311     CTL2     CTL2     9   180.000000     1.004160     1 ; CG321  CG321  SG311  CG321
  CC3162    SG311     CTL2     CTL2     9     0.000000     1.548080     3 ; 
    HCA1   CC3162    SG311     CTL2     9     0.000000     1.171520     3 ; HGA2   CG321  SG311  CG321
    CTL2    SG311   CC3162   OC3C61     9   180.000000     1.004160     1 ; CG321  CG321  SG311  CG321
    CTL2    SG311   CC3162   OC3C61     9     0.000000     1.548080     3 ; 
    CTL2    SG311   CC3162   CC3161     9   180.000000     1.004160     1 ; CG321  CG321  SG311  CG321
    CTL2    SG311   CC3162   CC3161     9     0.000000     1.548080     3 ; 
  CC3162   CC3161    SG311   CC3162     9   180.000000     1.004160     1 ; CG321  CG321  SG311  CG321
  CC3162   CC3161    SG311   CC3162     9     0.000000     1.548080     3 ; 
  CC3161   CC3161    SG311   CC3162     9   180.000000     1.004160     1 ; CG321  CG321  SG311  CG321
  CC3161   CC3161    SG311   CC3162     9     0.000000     1.548080     3 ; 
  CC3161    SG311   CC3162   CC3161     9   180.000000     1.004160     1 ; CG321  CG321  SG311  CG321
  CC3161    SG311   CC3162   CC3161     9     0.000000     1.548080     3 ; 
    HCA1   CC3161    SG311   CC3162     9     0.000000     1.171520     3 ; HGA2   CG321  SG311  CG331
  CC3161    SG311   CC3162     HCA1     9     0.000000     1.171520     3 ; HGA2   CG321  SG311  CG331
  CC3161    SG311   CC3162   OC3C61     9   180.000000     1.004160     1 ; CG321  CG321  SG311  CG321
  CC3161    SG311   CC3162   OC3C61     9     0.000000     1.548080     3 ; 
  CC3162    SG311   CC3162     HCA1     9     0.000000     1.171520     3 ; HGA2   CG321  SG311  CG331
  CC3162    SG311   CC3162   OC3C61     9   180.000000     1.004160     1 ; CG321  CG321  SG311  CG321
  CC3162    SG311   CC3162   OC3C61     9     0.000000     1.548080     3 ; 
  CC3162    SG311   CC3162   CC3161     9   180.000000     1.004160     1 ; CG321  CG321  SG311  CG321
  CC3162    SG311   CC3162   CC3161     9     0.000000     1.548080     3 ; 
  CC3162    SG311   CC3161   CC3163     9   180.000000     1.004160     1 ; CG321  CG321  SG311  CG321
  CC3162    SG311   CC3161   CC3163     9     0.000000     1.548080     3 ; 
  CC3051    CC321    OC30P       PC     9   180.000000     2.510400     1 ; CC3153  CC321   OC30P   PC
  CC3051    CC321    OC30P       PC     9     0.000000     2.719600     2 ; 
  CC3051    CC321    OC30P       PC     9     0.000000     0.209200     3 ; 2OR, from CG3C51 CG321  OG303  PG1, yxu
   OC311   CC3051    CC321    OC30P     9     0.000000     0.836800     3 ; alkane, 3/92; X CTL1 CTL2 X
  OC3C51   CC3051    OC30P       PC     9     0.000000     1.589920     2 ; OC3C61   CC3162    OC30P     PC
  OC3C51   CC3051    OC30P       PC     9   180.000000     1.715440     3 ; 
  CC3051    OC30P       PC    OC2DP     9     0.000000     1.380720     3 ; CC3162   OC30P     PC        OC2DP
   OC30P   CC3051   OC3C51   CC3153     9   180.000000    10.208960     3 ; CC3163   OC3C61    CC3162    OC30P
   OC30P   CC3051    CC321     HCA2     9     0.000000     0.836800     3 ; HCA2     CC321C    CC311D    OC30P
   OC30P   CC3051    CC321    OC311     9   180.000000    10.460000     1 ; OC30P    CC3161    CC3161    OC311
   OC30P   CC3051    CC321    OC311     9     0.000000     8.368000     2 ; 
   OC30P   CC3051    CC321    OC311     9     0.000000    10.460000     3 ; 
   OC30P   CC3051   CC3151     HCA1     9     0.000000     0.836800     3 ; OC30P    CC3152   CC3151   HCA1
   OC30P   CC3051   CC3151    OC311     9   180.000000    10.460000     1 ; OC30P    CC3162    CC3161    OC311
   OC30P   CC3051   CC3151    OC311     9     0.000000     8.368000     2 ; 
   OC30P   CC3051   CC3151    OC311     9     0.000000    10.460000     3 ; 
   OC30P   CC3051   CC3151   CC3151     9     0.000000     7.363840     1 ; CC3161   CC3161    CC3161    OC30P
   OC30P   CC3051   CC3151   CC3151     9     0.000000    10.711040     2 ; 
   OC30P   CC3051   CC3151   CC3151     9     0.000000     0.041840     3 ; 
      PC    OC30P   CC3051    CC321     9   180.000000     0.083680     3 ; CC321D   CC311D    OC30P     PC
      PC    OC30P   CC3051   CC3151     9   180.000000     0.083680     3 ; CC321D   CC311D    OC30P     PC
  CC3261   CC3162    OC301   CC3161     9   180.000000     1.715440     1 ; CC3161  CC3162  OC301   CC3161
  CC3261   CC3162    OC301   CC3161     9   180.000000     2.761440     2 ; 
  CC3261   CC3162    OC301   CC3161     9     0.000000     6.694400     3 ; 
    HCA2   CC3261   CC3162    OC301     9     0.000000     0.836800     3 ; HCA2    CC3261  CC3062  OC301
  CC3161   CC3261   CC3162    OC301     9     0.000000     0.836800     3 ; CC3161  CC3261  CC3062  OC301
   CC2O2   CC3062   CC3161     HCA1     9     0.000000     0.836800     3 ; HCA2    CC3261  CC3062  CC2O2
   CC2O2   CC3062   CC3161    OC311     9     0.000000     0.836800     3 ; par27 X CTL1 CTL1 X
   CC2O2   CC3062   CC3161   CC3161     9     0.000000     0.836800     3 ; par27 X CTL1 CTL1 X
   OC2D2    CC2O2   CC3062   CC3161     9   180.000000     0.209200     6 ; OC2D2   CC2O2   CC3062  CC3261
  CC3062   CC3161    OC311     HCP1     9     0.000000     1.213360     1 ; CC3161  CC3161  OC311   HCP1
  CC3062   CC3161    OC311     HCP1     9     0.000000     2.594080     2 ; 
  CC3062   CC3161    OC311     HCP1     9     0.000000     0.209200     3 ; 
  CC3062   CC3161   CC3161     HCA1     9     0.000000     0.836800     3 ; HCA1    CC3161  CC3261  CC3062
  CC3062   CC3161   CC3161    OC311     9     0.000000     0.836800     3 ; CC3062  CC3261  CC3161  OC311
  CC3062   CC3161   CC3161   CC3161     9   180.000000     0.794960     3 ; CC3161  CC3161  CC3261  CC3062
   OC311   CC3062   CC3161     HCA1     9     0.000000     0.585760     3 ; HCA1    CC3161  CC3161  OC311
   OC311   CC3062   CC3161    OC311     9   180.000000    11.087600     1 ; OC311   CC3162  CC3161  OC311
   OC311   CC3062   CC3161    OC311     9     0.000000     0.000000     2 ; 
   OC311   CC3062   CC3161    OC311     9   180.000000     0.543920     3 ; 
   OC311   CC3062   CC3161   CC3161     9     0.000000     0.836800     3 ; CC3161  CC3161  CC3162  OC311
    HCP1    OC311   CC3062   CC3161     9     0.000000     1.213360     1 ; CC3161  CC3162  OC311   HCP1
    HCP1    OC311   CC3062   CC3161     9     0.000000     2.594080     2 ; 
    HCP1    OC311   CC3062   CC3161     9     0.000000     0.209200     3 ; 
  CC3163   OC3C61   CC3062   CC3161     9     0.000000     0.836800     3 ; CC3161  CC3162  OC3C61  CC3163
  OC3C61   CC3062   CC3161     HCA1     9     0.000000     0.836800     3 ; HCA1    CC3161  CC3162  OC3C61
  OC3C61   CC3062   CC3161    OC311     9   180.000000    11.506000     1 ; OC311   CC3161  CC3162  OC3C61
  OC3C61   CC3062   CC3161    OC311     9   180.000000     1.087840     2 ; 
  OC3C61   CC3062   CC3161    OC311     9     0.000000     0.418400     3 ; 
  OC3C61   CC3062   CC3161   CC3161     9   180.000000     1.297040     3 ; CC3161  CC3161  CC3162  OC3C61
  CC3161    NC2D1    CC2O1    CC312     9     0.000000     6.694400     1 ; CC3161  NC2D1   CC2O1   CC321
  CC3161    NC2D1    CC2O1    CC312     9   180.000000    10.460000     2 ; 
   CC2O1    CC312    CC322     HCA2     9     0.000000     0.836800     3 ; X    CT1  CT2  X        0.2000  3     0.00 ! ALLOW   ALI
   CC312    CC322    CC322     HCA2     9     0.000000     0.794960     3 ; THF w/me   CC312C CC322C CC322C HCA2C2
   CC312    CC322    CC322    OC311     9     0.000000     1.464400     1 ; from, CC312   CC312   CC322   OC311 erh n=6 polyol
   CC312    CC322    CC322    OC311     9     0.000000     2.886960     2 ; " RIMP2/cc-pVTZ//MP2/631gd
   CC312    CC322    CC322    OC311     9   180.000000    11.673360     3 ; " C1-C2-C3-O3
   OC311    CC312    CC322    CC322     9     0.000000     1.464400     1 ; from, CC312   CC312   CC322   OC311 erh n=6 polyol
   OC311    CC312    CC322    CC322     9     0.000000     2.886960     2 ; 
   OC311    CC312    CC322    CC322     9   180.000000    11.673360     3 ; 
    HCA1    CC312    CC322    CC322     9     0.000000     0.836800     3 ; CC321C  CC321C  CC311C  HCA1
   NC2D1    CC2O1    CC312    CC322     9   180.000000     2.092000     1 ; from, CC2O1   NC2D1   CC3161  CC3163
   OC2D1    CC2O1    CC312    CC322     9   180.000000     0.209200     6 ; X    CT2  CC   X        0.0500  6   180.00 ! ALLOW   POL PEP
   CC2O1    CC312    CC322    CC322     9     0.000000     0.836800     3 ; X    CT1  CT2  X        0.2000  3     0.00 ! ALLOW   ALI
  CC3161    NC2D1    CC2O1      CT2     9     0.000000     6.694400     1 ; CC3161  NC2D1   CC2O1   CC321
  CC3161    NC2D1    CC2O1      CT2     9   180.000000    10.460000     2 ; 
  CC3161    NC2D1    CC2O1    CC322     9     0.000000     6.694400     1 ; CC3161  NC2D1   CC2O1   CC321
  CC3161    NC2D1    CC2O1    CC322     9   180.000000    10.460000     2 ; 
   NC2D1    CC2O1    CC322    CC312     9   180.000000     2.092000     1 ; from, CC2O1   NC2D1   CC3161  CC3163
    HCP1    NC2D1    CC2O1    CC322     9   180.000000    10.460000     2 ; H    NH1  C    CT1
   CC2O1    CC322    CC312    OC311     9   180.000000     3.305360     1 ; from, C    CT1  CT1  OH1
   CC2O1    CC322    CC312    OC311     9   180.000000     1.631760     2 ; 
   CC2O1    CC322    CC312    OC311     9   180.000000     4.142160     3 ; 
   CC2O1    CC322    CC312    CC322     9     0.000000     0.836800     3 ; X    CT1  CT2  X
   OC2D1    CC2O1    CC322    CC312     9     0.000000     5.857600     1 ; from, O    C    CT1  CT1
   CC322    CC312    CC322    CC312     9     0.000000     0.836800     3 ; X    CT1  CT2  X        0.2000  3     0.00 ! ALLOW   ALI
   CC312    CC322    CC312    OC311     9     0.000000     1.464400     1 ; erh n=6 polyol
   CC312    CC322    CC312    OC311     9     0.000000     2.886960     2 ; " RIMP2/cc-pVTZ//MP2/631gd
   CC312    CC322    CC312    OC311     9   180.000000    11.673360     3 ; " C4-C3-C2-O2
   CC312    CC322    CC312    CC331     9     0.000000     0.836800     3 ; par22 X CT2 CT1 X
    HCA2    CC322    CC312    CC331     9     0.000000     0.836800     3 ; THF w/me  CC331  CC312C CC322C HCA2C2
   CC2O1    CC322    CC312     HCA1     9     0.000000     0.836800     3 ; HCA1     CC3163   CC312    CC2O1
   CC312    CC322    CC312     HCA1     9     0.000000     0.836800     3 ; CC322C  CC322C  CC312C  HCA1
   OC2D1    CC2O1    CC322     HCA2     9   180.000000     0.000000     3 ; HCA3    CC331   CC2O1   OC2D1
   NC2D1    CC2O1    CC322     HCA2     9     0.000000     0.000000     3 ; NC2D1   CC2O1   CC331   HCA3
   CC322    CC312    CC331     HCA3     9     0.000000     0.836800     3 ; CC322C  CC312C  CC331   HCA3
   NC2D1    CC2O1      CT1    NC2D1     9     0.000000     2.510400     1 ; NH1  C    CT1  NH1
   CC2O1      CT1    NC2D1     HCP1     9     0.000000     0.000000     1 ; H    NH1  CT1  C
   CC2O1      CT1    NC2D1    CC2O1     9   180.000000     0.836800     1 ; C    CT1  NH1  C
   OC2D1    CC2O1      CT1    NC2D1     9     0.000000     0.000000     1 ; O    C    CT1  NH1
     CT1    NC2D1    CC2O1     HCR1     9   180.000000    10.460000     2 ; H    NH1  C    CT1,  ALLOW PEP
   NC2D1    CC2O1      CT1      CT1     9     0.000000     0.000000     1 ; from, NH1  C    CT1  CT1,  ALLOW PEP
   OC2D1    CC2O1      CT1      CT1     9     0.000000     5.857600     1 ; from, O    C    CT1  CT2
     CT1    NC2D1    CC2O1      CT3     9     0.000000     7.531200     1 ; from, CT3  CT1  NH1  C
     CT1    NC2D1    CC2O1    CC331     9     0.000000     6.694400     1 ; ALLOW PEP
     CT1    NC2D1    CC2O1    CC331     9   180.000000    10.460000     2 ; ALLOW PEP
   NC2D1    CC2O1    CC312    CC331     9     0.000000     0.000000     1 ; NH1  C    CT1  CT3
   CC2O1    CC312    CC331     HCA3     9     0.000000     0.836800     3 ; From X    CT1  CT3  X
   OC2D1    CC2O1    CC312    CC331     9     0.000000     5.857600     1 ; from, O    C    CT1  CT3,  ALLOW PEP
   CC311    NC2D1    CC2O1      CT2     9     0.000000     6.694400     1 ; from, CT2  C    NH1  CT1, ALLOW PEP
   NC2D1    CC2O1      CT2      HA2     9     0.000000     0.000000     3 ; NC2D1   CC2O1   CC331   HCA3
   NC2D1    CC2O1      CT2      CT1     9   180.000000     0.209200     6 ; X    CT2  CC   X
   OC2D1    CC2O1      CT2      HA2     9   180.000000     0.000000     3 ; HCA3    CC331   CC2O1   OC2D1
   OC2D1    CC2O1      CT2      CT1     9   180.000000     0.209200     6 ; X    CT2  CC   X
     CT2      CT1    OC301   CC3162     9   180.000000     8.451680     1 ; 
     CT2      CT1    OC301   CC3162     9     0.000000     0.167360     2 ; 
     CT2      CT1    OC301   CC3162     9   180.000000     4.058480     3 ; 
  CC3161    NC2D1    CC2O1      CP1     9     0.000000     6.694400     1 ; CT1  C    NH1  CT1
  CC3161    NC2D1    CC2O1      CP1     9   180.000000    10.460000     2 ; 
   NC2D1    CC2O1      CP1      NH1     9     0.000000     1.255200     1 ; NH1  C    CP1  N
   NC2D1    CC2O1      CP1      NH1     9     0.000000    -1.255200     4 ; 
   NC2D1    CC2O1      CP1      HB1     9   180.000000     1.673600     1 ; NH1  C    CP1  HB1
   NC2D1    CC2O1      CP1      HB1     9     0.000000     2.510400     2 ; 
   NC2D1    CC2O1      CP1      CP2     9     0.000000     1.673600     1 ; NH1  C    CP1  CP2
   NC2D1    CC2O1      CP1      CP2     9     0.000000     2.510400     2 ; 
   OC2D1    CC2O1      CP1      NH1     9     0.000000    -1.255200     4 ; O    C    CP1  N
    HCP1    NC2D1    CC2O1      CP1     9   180.000000    10.460000     2 ; H    NH1  C    CP1
      HC      NH1      CP1    CC2O1     9     0.000000     0.000000     3 ; HC   NH1  CP1  C, toppar_all36_prot_pca.str
      CC      NH1      CP1    CC2O1     9     0.000000     4.184000     2 ; CC   NH1  CP1  C, toppar_all36_prot_pca.str
     CP1      CP2      CT3      HA3     9     0.000000     0.000000     3 ; PROT 4-methylimidazole 4-21G//rot bar. adm jr., 9/4/89
     CP2      CP2      CT3      HA3     9     0.000000     0.000000     3 ; PROT 4-methylimidazole 4-21G//rot bar. adm jr., 9/4/89
     HB1      CP1    CC2O1    OC2D1     9     0.000000     1.673600     1 ; O    C    CP1  HB1
     HB1      CP1    CC2O1    OC2D1     9     0.000000     2.510400     2 ; 
     CP2      CP1    CC2O1    OC2D1     9   180.000000     1.673600     1 ; O    C    CP1  CP2
     CP2      CP1    CC2O1    OC2D1     9     0.000000     2.510400     2 ; 
     CP1      CP2      OH1        H     9     0.000000     4.267680     1 ; CP2    CP2    OH1    H, toppar_all36_prot_modify_res.str
     CP1      CP2      OH1        H     9   180.000000     1.799120     2 ; 
     CP1      CP2      OH1        H     9     0.000000     3.556400     3 ; 
     OH1      CP2      CT3      HA3     9     0.000000     0.836800     3 ; OH1  CT1  CT3  HA3
       H      OH1      CP2      CT3     9     0.000000     5.564720     1 ; H    OH1  CT1  CT3
       H      OH1      CP2      CT3     9     0.000000     0.753120     2 ; 
       H      OH1      CP2      CT3     9     0.000000     1.338880     3 ; 
  CC3161    OC301   CC3062   CC3161     9   180.000000     0.543920     1 ; from CC3161 CC3161 OC301 CC3162
  CC3161    OC301   CC3062   CC3161     9   180.000000     1.046000     2 ; "
  CC3161    OC301   CC3062   CC3161     9   180.000000     0.251040     3 ; "
   OC301   CC3062   CC3161     HCA1     9     0.000000     1.188256     3 ; from CC3162 OC301 CC3161 HCA1
   OC301   CC3062   CC3161    OC311     9   180.000000    11.087600     1 ; from OC301   CC3162  CC3161  OC311
   OC301   CC3062   CC3161    OC311     9     0.000000     0.000000     2 ; "
   OC301   CC3062   CC3161    OC311     9   180.000000     0.543920     3 ; "
   OC301   CC3062   CC3161   CC3161     9     0.000000     0.836800     3 ; from CC3161  CC3161  CC3162  OC301
  CC3263   CC3161    NC2D1     HCP1     9     0.000000     0.000000     1 ; from, HCP1    NC2D1   CC3161  CC3161
    HCA2   CC3263   CC3161    NC2D1     9     0.000000     0.836800     3 ; from, HCA1   CC3162 CC3161 NC2D1
  OC3C61   CC3263   CC3161    NC2D1     9     0.000000     0.836800     3 ; from, OC3C61 CC3162 CC3161 NC2D1
  CC3162   CC3161    CC2O1    OC2D1     9     0.000000     5.857600     1 ; from, O    C    CT1  CT1
  CC3162   CC3161    CC2O1    NC2D1     9     0.000000     0.000000     1 ; from, NH1  C    CT1  CT1
    HCA1   CC3162   CC3161    CC2O1     9     0.000000     0.836800     3 ; from, X    CT1  CT1  X
   OC311   CC3162   CC3161    CC2O1     9   180.000000     3.305360     1 ; from, C    CT1  CT1  OH1
   OC311   CC3162   CC3161    CC2O1     9   180.000000     1.631760     2 ; 
   OC311   CC3162   CC3161    CC2O1     9   180.000000     4.142160     3 ; 
  OC3C61   CC3162   CC3161    CC2O1     9     0.000000     0.836800     3 ; from, X    CT1  CT1  X
  CC3161    CC2O1    NC2D1     HCP1     9   180.000000    10.460000     2 ; from, H    NH1  C    CT1
  CC3161    CC2O1    NC2D1      CT1     9     0.000000     6.694400     1 ; CT1  C    NH1  CT1
  CC3161    CC2O1    NC2D1      CT1     9   180.000000    10.460000     2 ; 
    HCA1   CC3161    CC2O1    NC2D1     9     0.000000     0.000000     1 ; NH1  C    CT1  HB1
  CC3161   CC3161    CC2O1    NC2D1     9     0.000000     0.000000     1 ; NH1  C    CT1  CT1
   OC301   CC3162   CC3161    CC2O1     9     0.000000     0.836800     3 ; par27 X CTL1 CTL1 X
  CC3263   CC3161    OC301   CC3062     9   180.000000     0.543920     1 ; from CC3161  CC3161  OC301   CC3062
  CC3263   CC3161    OC301   CC3062     9   180.000000     1.046000     2 ; "
  CC3263   CC3161    OC301   CC3062     9   180.000000     0.251040     3 ; "
   CC311    NC2D1    CC2O1     HCR1     9   180.000000    10.460000     2 ; ALLOW PEP
  CC3062   CC3261   CC3161    OC30P     9     0.000000     7.363840     1 ; from, CC3161   CC3161    CC3162    OC30P
  CC3062   CC3261   CC3161    OC30P     9     0.000000    10.711040     2 ; 
  CC3062   CC3261   CC3161    OC30P     9     0.000000     0.041840     3 ; 
  CC3261   CC3161    OC30P       PC     9   180.000000     0.083680     3 ; from, CC3161   CC3162    OC30P     PC
    HCA2   CC3261   CC3161    OC30P     9     0.000000     0.836800     3 ; par27 X CTL1 CTL2 X
  CC3163    CC321    OC301   CC3051     9   180.000000     2.677760     1 ; from, CC3153  CC321   OC301   CC3051
  CC3163    CC321    OC301   CC3051     9   180.000000     0.125520     2 ; 
  CC3163    CC321    OC301   CC3051     9     0.000000     2.552240     3 ; 
     NH1       CC      CP2      CP2     9   180.000000     2.928800     3 ; CB-CG-CD-N, lock with CP2-CP2-CC-O
     NH1       CC      CP2      HA2     9     0.000000     0.000000     3 ; 
      HC      NH1       CC        O     9   180.000000     1.255200     2 ; needed for wN1H fit
      HC      NH1       CC      CP2     9     0.000000     0.836800     3 ; moved NH left, NA left CD right
      HC      NH1      CP1      HB1     9     0.000000     0.000000     3 ; 
      HC      NH1      CP1      CP2     9     0.000000     0.836800     3 ; moved NH left, NA left CD right
      CC      NH1      CP1      HB1     9     0.000000     0.000000     3 ; 
      CC      NH1      CP1      CP2     9   180.000000     4.184000     3 ; CD-N-CA-CN, CA-CB balance
       O       CC      NH1      CP1     9   180.000000     2.092000     2 ; 
       O       CC      CP2      CP2     9     0.000000     2.928800     3 ; 2PDO: OG2D1  CG2R53 CG3C52 CG3C52 0.08/3/0
       O       CC      CP2      HA2     9     0.000000     0.000000     3 ; 2PDO: OG2D1  CG2R53 CG3C52 HGA2   0.0
     CP1      NH1       CC      CP2     9   180.000000     1.255200     2 ; CG-CD-N-CA
   CC321    OC301   CC3062   CC3161     9     0.000000     0.920480     1 ; from, CC3161  CC3162  OC301   CC321
   CC321    OC301   CC3062   CC3161     9   180.000000     1.171520     2 ; 
   CC321    OC301   CC3062   CC3161     9     0.000000     3.723760     3 ; 
  CC3062   CC3161   CC3161    OC301     9     0.000000     0.836800     3 ; from CC3161 CC3161 CC3162 OC301
  CC3153    CC312    OC301   CC3162     9   180.000000     2.677760     1 ; from CC3163  CC321   OC301   CC3162
  CC3153    CC312    OC301   CC3162     9   180.000000     0.125520     2 ; "
  CC3153    CC312    OC301   CC3162     9     0.000000     2.552240     3 ; "
  CC3163    CC321    OC301    CC331     9     0.000000     0.920480     1 ; CC3163  CC3161  OC301   CC331
  CC3163    CC321    OC301    CC331     9   180.000000     1.171520     2 ; 
  CC3163    CC321    OC301    CC331     9     0.000000     3.723760     3 ; 
  CC3163    CC312    CC331     HCA3     9     0.000000     0.836800     3 ; from, par22 X CT1 CT3 X
    HCA1   CC3163    CC312    CC331     9     0.000000     0.836800     3 ; HCA1     CC311    CC312    CC331
  OC3C61   CC3163    CC312    CC331     9     0.000000     0.836800     3 ; OC3C61   CC3163   CC312    CC321
  CC3161   CC3163    CC312    CC331     9     0.000000     0.836800     3 ; CC3161   CC3163   CC312    CC321
   CC312    CC312    CC322    NC2D1     9     0.000000     0.836800     3 ; From X    CT1  CT2  X
   CC312    CC322    NC2D1     HCP1     9     0.000000     0.000000     1 ; H    NH1  CT1  CT2
    HCA1    CC312    CC322    NC2D1     9     0.000000     0.836800     3 ; From X    CT1  CT2  X
   OC311    CC312    CC322    NC2D1     9     0.000000     0.836800     3 ; From X    CT1  CT2  X
    HCP1    NC2D1    CC322     HCA2     9     0.000000     0.000000     3 ; from, HA2  CT2  NH1  H
   CC312    CC322    NC2D1    CC2O1     9     0.000000     7.531200     1 ; from CT2  CT1  NH1  C
   CC322    NC2D1    CC2O1    OC2D1     9   180.000000    10.460000     2 ; O    C    NH1  CT1
   CC322    NC2D1    CC2O1    CC331     9     0.000000     6.694400     1 ; CT3  C    NH1  CT1
   CC322    NC2D1    CC2O1    CC331     9   180.000000    10.460000     2 ; 
    HCA2    CC322    NC2D1    CC2O1     9     0.000000     0.000000     3 ; HA2  CT2  NH1  C
  CC3152   CC3151    OC301   CC3152     9   180.000000     0.543920     1 ; CC3162  CC3161  OC301   CC3162
  CC3152   CC3151    OC301   CC3152     9   180.000000     1.046000     2 ; 
  CC3152   CC3151    OC301   CC3152     9   180.000000     0.251040     3 ; 
  CC3151    OC301   CC3152   OC3C51     9   180.000000     2.175680     1 ; from, CC3161  OC301   CC3152  OC3C51
  CC3151    OC301   CC3152   OC3C51     9     0.000000     6.276000     2 ; 
  CC3151    OC301   CC3152   OC3C51     9     0.000000     4.100320     3 ; 
  CC3151    OC301   CC3152     HCA1     9     0.000000     1.188256     3 ; HCA1    CC3161  OC301   CC3152
    HCA1   CC3151    OC301   CC3152     9     0.000000     1.188256     3 ; HCA1    CC3161  OC301   CC3152
  CC3151    OC301   CC3152   CC3151     9   180.000000     4.978960     1 ; from, CC3161  OC301   CC3152  CC3151
  CC3151    OC301   CC3152   CC3151     9   180.000000     0.669440     2 ; 
  CC3151    OC301   CC3152   CC3151     9   180.000000     2.050160     3 ; 
  CC3151   CC3151    OC301   CC3152     9   180.000000     0.292880     1 ; from, CC3162  OC303   CC3151  CC3151
  CC3151   CC3151    OC301   CC3152     9     0.000000     0.167360     2 ; 
  CC3151   CC3151    OC301   CC3152     9     0.000000     0.585760     3 ; 
  OC3C51   CC3153   CC3151    OC301     9   180.000000     5.690240     1 ; OC301   CC3161  CC3163  OC3C61
  OC3C51   CC3153   CC3151    OC301     9     0.000000     0.669440     2 ; 
  OC3C51   CC3153   CC3151    OC301     9     0.000000     4.225840     3 ; 
  CC3152   CC3151   CC3151    OC301     9   180.000000     0.460240     1 ; CC3151  CC3151  CC3152  OC301
  CC3152   CC3151   CC3151    OC301     9     0.000000     2.761440     2 ; 
  CC3152   CC3151   CC3151    OC301     9   180.000000     0.083680     3 ; 
  CC3153   CC3151    OC301   CC3152     9   180.000000     4.978960     1 ; CC3153   CC3151   OC301    CC3162
  CC3153   CC3151    OC301   CC3152     9   180.000000     0.669440     2 ; 
  CC3153   CC3151    OC301   CC3152     9   180.000000     2.050160     3 ; 
    HCA1   CC3153   CC3151    OC301     9     0.000000     0.836800     3 ; par27 X CTL1 CTL1 X
   CC321   CC3153   CC3151    OC301     9   180.000000     3.179840     1 ; from, CC321   CC3153  CC3151  OC303
   CC321   CC3153   CC3151    OC301     9   180.000000     1.673600     2 ; 
   CC321   CC3153   CC3151    OC301     9   180.000000     1.673600     3 ; 
   OC301   CC3161   CC3162    CC321     9     0.000000     0.836800     3 ; par27 X CTL1 CTL1 X   ! 1n3q
  CC3153    CC321    OC301     CTL2     9   180.000000     2.677760     1 ; CC3153  CC321   OC301   CC3051
  CC3153    CC321    OC301     CTL2     9   180.000000     0.125520     2 ; 
  CC3153    CC321    OC301     CTL2     9     0.000000     2.552240     3 ; 
   OC302   CC3162   OC3C61   CC3263     9   180.000000     1.715440     1 ; CC3263  OC3C61  CC3162  OC301
   OC302   CC3162   OC3C61   CC3263     9     0.000000     3.723760     2 ; 
   OC302   CC3162   OC3C61   CC3263     9     0.000000     0.209200     3 ; 
   OC301   CC3162   CC3161    SG311     9   180.000000     2.468560     1 ; from, OC301   CC3161  CC3162  OC301
   OC301   CC3162   CC3161    SG311     9     0.000000     4.853440     2 ; 
  CC3162    SG311   CC3161   CC3263     9   180.000000     1.004160     1 ; CG321  CG321  SG311  CG321
  CC3162    SG311   CC3161   CC3263     9     0.000000     1.548080     3 ; 
   SG311   CC3162   OC3C61   CC3263     9   180.000000     1.715440     1 ; CC3163  OC3C61  CC3162  OC311
   SG311   CC3162   OC3C61   CC3263     9     0.000000     3.723760     2 ; 
   SG311   CC3162   OC3C61   CC3263     9     0.000000     0.209200     3 ; 
  OC3C61   CC3263   CC3161    SG311     9   180.000000    11.506000     1 ; OC311   CC3161  CC3162  OC3C61
  OC3C61   CC3263   CC3161    SG311     9   180.000000     1.087840     2 ; 
  OC3C61   CC3263   CC3161    SG311     9     0.000000     0.418400     3 ; 
    HCA2   CC3263   CC3161    SG311     9     0.000000     0.041840     3 ; SG311   CC3161  CC3163  HCA1
  CC3163    CC321    SG311   CC3162     9   180.000000     1.004160     1 ; CG321  CG321  SG311  CG321
  CC3163    CC321    SG311   CC3162     9     0.000000     1.548080     3 ; 
    HCA1   CC3163    CC321    SG311     9     0.000000     0.041840     3 ; SG311   CG321   CG321   HGA2
  OC3C61   CC3163    CC321    SG311     9   180.000000     6.236670     1 ; from, OC301   CC321   CC3163  OC3C61
  OC3C61   CC3163    CC321    SG311     9     0.000000     1.572766     2 ; 
  OC3C61   CC3163    CC321    SG311     9     0.000000     2.475254     3 ; 
  CC3161   CC3163    CC321    SG311     9   180.000000     2.092000     1 ; from, CC3161  CC3163  CC321   OC301
  CC3161   CC3163    CC321    SG311     9   180.000000     1.548080     2 ; 
  CC3161   CC3163    CC321    SG311     9     0.000000     0.627600     3 ; 
   CC321    SG311   CC3162     HCA1     9     0.000000     1.171520     3 ; from, HCA1     CC3162    OC301     CC322
   CC321    SG311   CC3162   OC3C61     9     0.000000     0.585760     1 ; from, CC321   OC301   CC3162  OC3C61
   CC321    SG311   CC3162   OC3C61     9     0.000000     4.058480     2 ; 
   CC321    SG311   CC3162   OC3C61     9   180.000000     0.460240     3 ; 
   CC321    SG311   CC3162   CC3161     9     0.000000     0.920480     1 ; from, CC3161  CC3162  OC301   CC321
   CC321    SG311   CC3162   CC3161     9   180.000000     1.171520     2 ; 
   CC321    SG311   CC3162   CC3161     9     0.000000     3.723760     3 ; 
    HCA2    CC321    SG311   CC3162     9     0.000000     1.188256     3 ; from, CC3162  OC301   CC321   HCA2
  CC3161   CC3261   CC3161    OC30P     9     0.000000     7.363840     1 ; from, CC3161   CC3161    CC3161    OC30P
  CC3161   CC3261   CC3161    OC30P     9     0.000000    10.711040     2 ; 
  CC3161   CC3261   CC3161    OC30P     9     0.000000     0.041840     3 ; 
   NC2D1   CC3161   CC3261   CC3161     9     0.000000     0.836800     3 ; NC2D1   CC3161  CC3161  CC3261
  CC3261   CC3161    OC30P       SC     9     0.000000     0.878640     3 ; CC3161    CC3161  OC30P     SC   ! 1ofm
  CC3261   OC3C61   CC3163    CC331     9     0.000000     0.836800     3 ; CC331   CC3163  OC3C61  CC3162   ! (pdbID:2iwg, FU4)
  CC3261   OC3C61   CC3163    CC2O2     9     0.000000     0.836800     3 ; from, CC2O2   CC3163  OC3C61  CC3162
  OC3C61   CC3261   CC3161    OC30P     9     0.000000     2.552240     3 ; OC3C61   CC3162    CC3161    OC30P ! 1qqp
  CC3261   CC3161    OC301    CC331     9     0.000000     0.920480     1 ; CC3161  CC3162  OC301   CC331
  CC3261   CC3161    OC301    CC331     9   180.000000     1.171520     2 ; CC3161  CC3162  OC301   CC331
  CC3261   CC3161    OC301    CC331     9     0.000000     3.723760     3 ; CC3161  CC3162  OC301   CC331
   OC30P   CC3162   CC3261     HCA2     9     0.000000     0.836800     3 ; HCA1     CC3161    CC3162    OC30P
   OC30P   CC3162   CC3261     FGA1     9     0.000000     0.836800     3 ; from, par27 X CTL1 CTL1 X
   OC30P   CC3162   CC3261   CC3161     9     0.000000     7.363840     1 ; from, OC30P    CC3161   CC3161   CC3261
   OC30P   CC3162   CC3261   CC3161     9     0.000000    10.711040     2 ; 
   OC30P   CC3162   CC3261   CC3161     9     0.000000     0.041840     3 ; 
      PC    OC30P   CC3162   CC3261     9   180.000000     0.083680     3 ; CC3161   CC3162    OC30P     PC
    FGA1   CC3261   CC3161    OC301     9     0.000000     0.836800     3 ; FGA1    CC3261  CC3161  OC311
  CC3162   OC3C61   CC3261     HCA2     9     0.000000     1.188256     3 ; HCA2    CC3263  OC3C61  CC3162
  CC3162   OC3C61   CC3261     FGA1     9     0.000000     0.836800     3 ; CG3C51  CG3C51  CG3C51  FGA1
  CC3162   OC3C61   CC3261   CC3161     9     0.000000     0.836800     3 ; CC3161  CC3162  OC3C61  CC3163
    HCA1   CC3162   OC3C61   CC3261     9     0.000000     0.836800     3 ; from HCA1 CC3161  CC3161  CC3162
   OC311   CC3162   OC3C61   CC3261     9   180.000000     1.715440     1 ; CC3163  OC3C61  CC3162  OC311
   OC311   CC3162   OC3C61   CC3261     9     0.000000     3.723760     2 ; 
   OC311   CC3162   OC3C61   CC3261     9     0.000000     0.209200     3 ; 
  CC3261   OC3C61   CC3162   CC3161     9     0.000000     0.836800     3 ; CC3161  CC3163  OC3C61  CC3162
  CC3162   OC3C61   CC3261    CC321     9     0.000000     0.836800     3 ; CC321   CC3163  OC3C61  CC3162
  CC3261    CC321    OC311     HCP1     9     0.000000     1.213360     1 ; CC3163  CC321   OC311   HCP1
  CC3261    CC321    OC311     HCP1     9     0.000000     2.594080     2 ; 
  CC3261    CC321    OC311     HCP1     9     0.000000     0.209200     3 ; 
    FGA1   CC3261    CC321     HCA2     9     0.000000     0.774040     3 ; FGA1   CG3C51 CG3C52 HGA2
    FGA1   CC3261    CC321    OC311     9     0.000000     0.836800     3 ; OG303   CG3C51  CG3C51  FGA1
  OC3C61   CC3261    CC321     HCA2     9     0.000000     0.836800     3 ; from HCA2  CC321  CC3163 OC3C61
  OC3C61   CC3261    CC321    OC311     9   180.000000     3.138000     1 ; OC311   CC321   CC3163  OC3C61
  OC3C61   CC3261    CC321    OC311     9     0.000000     0.711280     2 ; 
  OC3C61   CC3261    CC321    OC311     9   180.000000     1.046000     3 ; 
  CC3161   CC3161   CC3261    CC321     9     0.000000     0.836800     3 ; par27 X CTL1 CTL1 X
  CC3161   CC3261    CC321     HCA2     9     0.000000     0.836800     3 ; HCA2    CC321   CC3163  CC3161
  CC3161   CC3261    CC321    OC311     9   180.000000     3.138000     1 ; from CC3261 CC3163 CC321 OC311
  CC3161   CC3261    CC321    OC311     9     0.000000     0.711280     2 ; 
  CC3161   CC3261    CC321    OC311     9   180.000000     1.046000     3 ; 
    HCA1   CC3161   CC3261    CC321     9     0.000000     0.836800     3 ; par27 X CTL1 CTL1 X
   OC301   CC3161   CC3261    CC321     9     0.000000     0.836800     3 ; par27 X CTL1 CTL1 X
  CC3261   OC3C61   CC3261     FGA1     9     0.000000     0.836800     3 ; FGA1    CC3261  OC3C61  CC3163
  CC3261   OC3C61   CC3261   CC3161     9     0.000000     0.836800     3 ; CC3161  CC3162  OC3C61  CC3163
  CC3261   OC3C61   CC3261    CC321     9     0.000000     0.836800     3 ; CC321   CC3163  OC3C61  CC3162
    HCA2   CC3261   OC3C61   CC3261     9     0.000000     0.836800     3 ; from HCA1 CC3161  CC3161  CC3162
   OC311   CC3161   CC3261    CC321     9     0.000000     0.836800     3 ; par27 X CTL1 CTL1 X
   OC311   CC3051   CC3151    OC303     9   180.000000    12.008080     1 ; OC303   CC3151  CC3151  OC311
   OC311   CC3051   CC3151    OC303     9     0.000000     0.125520     2 ; "
   OC311   CC3051   CC3151    OC303     9     0.000000     0.962320     3 ; "
  CC3161   CC3161    OC301      CT1     9   180.000000     4.811600     1 ; CC3161   CC3162    OC301      CT1
  CC3161   CC3161    OC301      CT1     9   180.000000     6.443360     2 ; 
  CC3161   CC3161    OC301      CT1     9     0.000000     1.631760     3 ; 
  CC3161    OC301      CT1      HB1     9     0.000000     1.188256     3 ; CC311D  OC301   CC311C  HCA1
  CC3161    OC301      CT1        C     9     0.000000     0.836800     3 ; CC3161   OC301    CC311    CC2O2
  CC3161    OC301      CT1      CT3     9   180.000000     3.012480     1 ; CC3161   OC301    CC311    CC331
  CC3161    OC301      CT1      CT3     9   180.000000     1.422560     2 ; 
  CC3161    OC301      CT1      CT3     9   180.000000     0.502080     3 ; 
    HCA1   CC3161    OC301      CT1     9     0.000000     1.188256     3 ; CC331   OC301   CC3162  HCA1
   OC301      CT1        C        O     9   180.000000     2.677760     2 ; OC2D2    CC2O2    CC311    OC301
   OC301      CT1        C      NH1     9     0.000000     1.966480     1 ; NH1      CT1      CT1    OC301
   OC301      CT1        C      NH1     9     0.000000     6.694400     2 ; 
   OC301      CT1        C      NH1     9   180.000000     1.631760     3 ; 
  CC3261   CC3161    NC311       SC     9     0.000000     0.418400     1 ; from, CG331   CG321   NG311   SG3O2
  CC3261   CC3161    NC311       SC     9     0.000000     2.928800     2 ; 
  CC3261   CC3161    NC311       SC     9     0.000000     0.418400     3 ; 
  CC3162    CC321    OC30P       PC     9     0.000000     1.702888     2 ; Phos-gly, 8/05
  CC3162    CC321    OC30P       PC     9   180.000000     1.008344     1 ; Phos-gly, 8/05
   OC311   CC3162    CC321    OC30P     9     0.000000     0.836800     3 ; alkane, 3/92; X CTL1 CTL2 X
  OC3C61   CC3162    CC321    OC30P     9     0.000000     0.251040     1 ; OC3C61   CC3163    CC321     OC30P
  OC3C61   CC3162    CC321    OC30P     9     0.000000     3.263520     2 ; 
  OC3C61   CC3162    CC321    OC30P     9   180.000000     3.096160     3 ; 
  CC3161   CC3162    CC321    OC30P     9     0.000000     1.799120     3 ; CC3161   CC3163    CC321     OC30P
     CT1    NC2D1    CC2O1    CC321     9     0.000000     6.694400     1 ; from, CT2  C    NH1  CT1, ALLOW PEP ! CT1      NC2D1    CC2O1    CC321
     CT1    NC2D1    CC2O1    CC321     9   180.000000    10.460000     2 ; ALLOW PEP ! CC3161   NC2D1    CC2O1    CC321
  CC3163    CC312    OC301    CC331     9     0.000000     0.920480     1 ; CC3163  CC3161  OC301   CC331
  CC3163    CC312    OC301    CC331     9   180.000000     1.171520     2 ; 
  CC3163    CC312    OC301    CC331     9     0.000000     3.723760     3 ; 
   OC301    CC312    CC322    OC301     9   180.000000    13.869960     1 ; OC311   CC312   CC322   OC301 ! par_all36_carb.prm
   OC301    CC312    CC322    OC301     9   180.000000     7.040835     2 ; 
   OC301    CC312    CC322    OC301     9   180.000000    12.357026     3 ; 
   CC312    OC301    CC331     HCA3     9     0.000000     1.188256     3 ; par35 HCA3 CC33A OC30A CC32A ! CC311   OC301   CC331   HCA3 ! par_all36_carb.prm
    HCA1    CC312    OC301    CC331     9     0.000000     1.188256     3 ; OMeTHP CC331   OC301   CC311D  HCA1
   CC331    OC301    CC312    CC322     9     0.000000     0.920480     1 ; og OMeTHP compounds 2 and 3 ! CC321C  CC311D  OC301   CC331 ! par_all36_carb.prm
   CC331    OC301    CC312    CC322     9   180.000000     1.171520     2 ; "  MCSA fit
   CC331    OC301    CC312    CC322     9     0.000000     3.723760     3 ; "  MP2/cc-pVTZ//MP2/6-31G*
   NC2D1    CC2O1    CC321    OC311     9   180.000000     0.209200     6 ; from, X    CT2  CC   X
   CC2O1    CC321    OC311     HCP1     9     0.000000     0.585760     3 ; from, X    CT2  OH1  X
   OC2D1    CC2O1    CC321    OC311     9   180.000000     0.209200     6 ; from, X    CT2  CC   X
   CC321    CC321    OC301    CC321     9     0.000000     1.673600     1 ; CC3162  OC301   CTL2    CTL2
   CC321    CC321    OC301    CC321     9     0.000000     2.050160     3 ; 
  OC311M    CC321    CC321    OC301     9     0.000000     0.292880     1 ; OC311   CC3051  CC321   OC311
  OC311M    CC321    CC321    OC301     9   180.000000     8.326160     2 ; "
  OC311M    CC321    CC321    OC301     9   180.000000     7.196480     3 ; "
   CC321    OC301    CC321     HCA2     9     0.000000     1.188256     3 ; HCA2 CC32A OC30A CC32A
   OC301    CC321    CC321    OC301     9     0.000000     0.292880     1 ; OC311   CC3051  CC321   OC311, ketopentose monosac
   OC301    CC321    CC321    OC301     9   180.000000     8.326160     2 ; "
   OC301    CC321    CC321    OC301     9   180.000000     7.196480     3 ; "
   NG2S3   CG2R61   CG2R61    NG2O1     9   180.000000    12.970400     2 ; from, NG2S3  CG2R61 CG2R61 NG2S3
   CC321    OC301      CT2      HA2     9     0.000000     1.188256     3 ; HCA2 CC32A OC30A CC32A
   CC321    OC301      CT2        C     9     0.000000     1.188256     3 ; from CC3161  OC301   CC3062  CC2O2
    HCA2    CC321    OC301      CT2     9     0.000000     1.188256     3 ; HCA2 CC32A OC30A CC32A
   OC301      CT2        C        O     9   180.000000     2.677760     2 ; OC2D2    CC2O2    CC311    OC301
   OC301      CT2        C      NH1     9     0.000000     1.966480     1 ; NH1      CT1      CT1    OC301
   OC301      CT2        C      NH1     9     0.000000     6.694400     2 ; 
   OC301      CT2        C      NH1     9   180.000000     1.631760     3 ; 
   CC321    CC321    OC301      CT2     9     0.000000     1.673600     1 ; CC3162  OC301   CC321   CC321
   CC321    CC321    OC301      CT2     9     0.000000     2.050160     3 ; 
   OC301    CC321    CC321    NG2S3     9   180.000000    13.807200     1 ; choline, 12/92
   OC301    CC321    CC321    NG2S3     9   180.000000    -1.673600     3 ; choline, 12/92
   CC321    CC321    NG2S3   CG2R61     9     0.000000     1.087840     3 ; X    CTL2 NTL  X
   CC321    CC321    NG2S3     HGP4     9     0.000000     1.087840     3 ; X    CTL2 NTL  X
    HCA2    CC321    CC321    NG2S3     9     0.000000     0.794960     3 ; X    CT2  CT2  X
   CC321    NG2S3   CG2R61   CG2R61     9   180.000000     8.368000     2 ; from, CG2R61 CG2R61 CG2R64 NG2S3
    HCA2    CC321    NG2S3   CG2R61     9     0.000000     1.087840     3 ; X    CTL2 NTL  X
    HCA2    CC321    NG2S3     HGP4     9     0.000000     1.087840     3 ; X    CTL2 NTL  X
  OC311M    CC321    CC321    NG2S3     9     0.000000     0.794960     3 ; X    CT2  CT2  X
   OC301   CC3151   CC3153    CC312     9     0.000000     0.836800     3 ; par27 X CTL1 CTL1 X
   NG2S1    CG321    CG321    OC30P     9   180.000000     2.928800     1 ; based on "OG311  CG321  CG324  NG3P3"
   CG321    CG321    OC30P       PC     9     0.000000     1.702888     2 ; PL   OSLP CTL2 CTL2
   CG321    CG321    OC30P       PC     9   180.000000     1.008344     1 ; 
    HGA2    CG321    CG321    OC30P     9     0.000000     0.794960     3 ; X    CTL2 CTL2 X
   CG321    CG321    NG2S1        C     9     0.000000     0.418400     3 ; based on "CG321  CG324  NG3P3  HGP2"
   CC312    CC322    OC301   CC3152     9   180.000000     2.677760     1 ; from CC312   CC322   OC301   CC3162
   CC312    CC322    OC301   CC3152     9   180.000000     0.125520     2 ; from CC312   CC322   OC301   CC3162
   CC312    CC322    OC301   CC3152     9     0.000000     2.552240     3 ; from CC312   CC322   OC301   CC3162
  CC3152    OC301    CC322     HCA2     9     0.000000     1.188256     3 ; from CC3162  OC301   CC321   HCA2
   CC322    OC301   CC3152   OC3C51     9     0.000000     4.100320     2 ; from CC321   OC301   CC3152  OC3C51
   CC322    OC301   CC3152   OC3C51     9     0.000000     6.276000     3 ; from CC321   OC301   CC3152  OC3C51
   CC322    OC301   CC3152   CC3151     9   180.000000     4.058480     1 ; from CC321   OC301   CC3152  CC3151
   CC322    OC301   CC3152   CC3151     9   180.000000     1.840960     3 ; from CC321   OC301   CC3152  CC3151
    HCA1   CC3152    OC301    CC322     9     0.000000     1.188256     3 ; from HCA1    CC3152  OC301   CC321
  CC3162   CC3161    OC30P       PC     9   180.000000     0.083680     3 ; 
  CC3163    CC321    OC30P       PC     9   180.000000     0.083680     3 ; CC311D  CC311D  OC30P   PC       0.02  3  180.0

; specific (non-wildcard) dihedral parameters from toppar_c36_jul22/stream/carb/toppar_all36_carb_lignin.str
;      i        j        k        l  func         phi0         kphi  mult
  CC3151   CC3151   CC3152     OLG4     9   180.000000     0.621324     3 ; 
  CC3151   CC3151   CC3152     OLG4     9     0.000000     0.316729     6 ; 
  CC3151   CC3151     OLG4    CLG11     9   180.000000     0.000000     1 ; 
  CC3151   CC3151     OLG4    CLG11     9   180.000000     6.555073     2 ; 
  CC3151   CC3151     OLG4    CLG11     9     0.000000    13.270393     3 ; 
  CC3151   CC3152     OLG4    CLG11     9   180.000000     7.014476     1 ; 
  CC3151   CC3152     OLG4    CLG11     9   180.000000    13.610552     2 ; 
  CC3151   CC3152     OLG4    CLG11     9     0.000000     0.000000     3 ; 
  CC3151   CC3152     OLG4   CLG06B     9   180.000000     7.688100     1 ; 
  CC3151   CC3152     OLG4   CLG06B     9   180.000000     0.000837     2 ; 
  CC3151   CC3152     OLG4   CLG06B     9     0.000000     2.176098     3 ; 
  CC3151   CC3153    CC321     OLG4     9     0.000000     0.000000     1 ; 
  CC3151   CC3153    CC321     OLG5     9   180.000000     2.409147     3 ; 
  CC3152   CC3151     OLG4    CLG11     9   180.000000     0.000418     1 ; 
  CC3152   CC3151     OLG4    CLG11     9   180.000000    11.475875     2 ; 
  CC3153   CC3151   CC3151     OLG4     9   180.000000     0.403756     3 ; 
  CC3153    CC321     OLG4    CLG11     9     0.000000     1.682805     1 ; 
  CC3153    CC321     OLG4    CLG11     9     0.000000     0.000000     2 ; 
  CC3153    CC321     OLG4    CLG11     9     0.000000     0.010460     3 ; 
  CC3153    CC321     OLG5    CLG03     9     0.000000     0.154808     3 ; 
   CLG01    CLG01    CLG02    CLG02     9   180.000000     4.624994     1 ; 
   CLG01    CLG01    CLG02    CLG02     9     0.000000     1.909578     3 ; 
   CLG01    CLG01    CLG02    CLG03     9   180.000000     3.845933     1 ; 
   CLG01    CLG01    CLG02    CLG03     9     0.000000     2.833823     3 ; 
   CLG01    CLG01    CLG03     OLG1     9   180.000000     0.001255     2 ; 
   CLG01    CLG01    CLG03     OLG5     9     0.000000     0.000000     1 ; 
   CLG01    CLG01    CLG03     OLG6     9   180.000000     8.858783     2 ; 
   CLG01    CLG01    CLG04     OLG2     9   180.000000    12.154520     2 ; 
   CLG01    CLG01    CLG05   HLGR52     9   180.000000    10.866266     2 ; 
   CLG01    CLG01    CLG05     OLG1     9   180.000000     2.118778     2 ; 
   CLG01    CLG01    CLG06    CLG06     9   180.000000     5.042138     2 ; 
   CLG01    CLG01    CLG06    CLG06     9     0.000000     1.044326     4 ; 
   CLG01    CLG01    CLG11    CLG03     9   180.000000     7.368024     3 ; 
   CLG01    CLG01    CLG11    CLG11     9     0.000000     4.688590     2 ; 
   CLG01    CLG01    CLG11    CLG11     9     0.000000     3.151807     3 ; 
   CLG01    CLG01    CLG11    HLGA1     9     0.000000     1.520047     3 ; 
   CLG01    CLG01    CLG12    HLGA2     9     0.000000     3.605771     3 ; 
   CLG01    CLG01    CLG12     OLG6     9   180.000000     7.029538     1 ; 
   CLG01    CLG01    CLG12     OLG6     9   180.000000     3.339669     2 ; 
   CLG01    CLG01    CLG12     OLG6     9   180.000000     8.905644     3 ; 
   CLG01    CLG02    CLG02    CLG06     9   180.000000     3.451382     1 ; 
   CLG01    CLG02    CLG02    CLG06     9   180.000000    23.783530     2 ; 
   CLG01    CLG02    CLG02    HLGA4     9   180.000000    21.210788     2 ; 
   CLG01    CLG02    CLG03     OLG1     9     0.000000     0.000000     1 ; 
   CLG01    CLG02    CLG03     OLG6     9   180.000000    24.558406     2 ; 
   CLG01    CLG03     OLG5    CC321     9   180.000000     9.634078     1 ; 
   CLG01    CLG03     OLG5    CC321     9   180.000000     4.184837     2 ; 
   CLG01    CLG03     OLG5    CLG11     9   180.000000    20.920000     1 ; 
   CLG01    CLG03     OLG5    CLG11     9   180.000000     6.958829     2 ; 
   CLG01    CLG03     OLG5    CLG11     9   180.000000     0.402082     6 ; 
   CLG01    CLG03     OLG5    CLG12     9   180.000000    17.579076     1 ; 
   CLG01    CLG03     OLG5    CLG12     9   180.000000     9.665877     2 ; 
   CLG01    CLG03     OLG6    HLGP1     9   180.000000    10.989276     1 ; 
   CLG01    CLG03     OLG6    HLGP1     9   180.000000    12.895506     2 ; 
   CLG01    CLG03     OLG6    HLGP1     9   180.000000     0.051045     6 ; 
   CLG01    CLG06    CLG06    CLG06     9   180.000000    15.454441     2 ; 
   CLG01    CLG06    CLG06    CLG11     9   180.000000    17.201261     2 ; 
   CLG01    CLG06    CLG06   CLG06A     9   180.000000    18.167346     2 ; 
   CLG01    CLG06    CLG06   CLG06B     9   180.000000    16.758594     2 ; 
   CLG01    CLG06    CLG06   HLGR61     9   180.000000     2.938005     2 ; 
   CLG01    CLG11    CLG11    CLG06     9     0.000000     5.473509     3 ; 
   CLG01    CLG11    CLG11    HLGA1     9     0.000000     4.302826     3 ; 
   CLG01    CLG12     OLG6    HLGP1     9     0.000000     2.267310     1 ; 
   CLG01    CLG12     OLG6    HLGP1     9     0.000000     0.038911     2 ; 
   CLG01    CLG12     OLG6    HLGP1     9     0.000000     1.551427     3 ; 
   CLG02    CLG01    CLG01    CLG06     9   180.000000     0.002929     1 ; 
   CLG02    CLG01    CLG01    CLG06     9   180.000000    19.908309     2 ; 
   CLG02    CLG01    CLG01    HLGA4     9   180.000000    18.406253     2 ; 
   CLG02    CLG01    CLG03     OLG1     9   180.000000    11.030279     2 ; 
   CLG02    CLG01    CLG03     OLG6     9   180.000000    11.963730     2 ; 
   CLG02    CLG02    CLG03     OLG1     9     0.000000     0.000000     1 ; 
   CLG02    CLG02    CLG03     OLG6     9     0.000000     0.000000     1 ; 
   CLG02    CLG02    CLG06    CLG06     9   180.000000     3.265612     2 ; 
   CLG02    CLG02    CLG06    CLG06     9     0.000000     4.388598     4 ; 
   CLG02    CLG03     OLG6    HLGP1     9   180.000000     5.496102     1 ; 
   CLG02    CLG03     OLG6    HLGP1     9   180.000000    13.352399     2 ; 
   CLG02    CLG03     OLG6    HLGP1     9   180.000000     0.020920     3 ; 
   CLG02    CLG03     OLG6    HLGP1     9   180.000000     1.269426     6 ; 
   CLG02    CLG06    CLG06    CLG06     9   180.000000    11.977537     2 ; 
   CLG02    CLG06    CLG06   CLG06B     9   180.000000    11.970842     2 ; 
   CLG02    CLG06    CLG06   HLGR61     9   180.000000     7.508188     2 ; 
   CLG03    CLG01    CLG01    CLG06     9   180.000000     6.855066     1 ; 
   CLG03    CLG01    CLG01    CLG06     9   180.000000    15.899200     2 ; 
   CLG03    CLG01    CLG01    HLGA4     9   180.000000    22.147586     2 ; 
   CLG03    CLG01    CLG02    CLG02     9   180.000000     2.891144     1 ; 
   CLG03    CLG01    CLG02    CLG02     9     0.000000     0.569024     3 ; 
   CLG03    CLG01    CLG02    CLG03     9   180.000000     0.097487     1 ; 
   CLG03    CLG01    CLG02    CLG03     9     0.000000     4.573949     3 ; 
   CLG03    CLG01    CLG11    CLG03     9     0.000000     0.709188     3 ; 
   CLG03    CLG01    CLG11    CLG11     9     0.000000     0.121336     3 ; 
   CLG03    CLG01    CLG11    HLGA1     9   180.000000     7.097738     3 ; 
   CLG03    CLG02    CLG02    CLG06     9   180.000000     1.820040     1 ; 
   CLG03    CLG02    CLG02    CLG06     9   180.000000    30.361196     2 ; 
   CLG03    CLG02    CLG02    HLGA4     9   180.000000    22.549668     2 ; 
   CLG03    CLG06    CLG06    CLG06     9   180.000000    13.385034     2 ; 
   CLG03    CLG06    CLG06   CLG06A     9   180.000000    15.916354     2 ; 
   CLG03    CLG06    CLG06   CLG06B     9   180.000000    14.566596     2 ; 
   CLG03    CLG06    CLG06   HLGR61     9   180.000000     2.803698     2 ; 
   CLG03    CLG11    CLG11    CLG06     9     0.000000     1.713348     3 ; 
   CLG03    CLG11    CLG11    HLGA1     9     0.000000     1.079472     3 ; 
   CLG04    CLG01    CLG01    CLG06     9   180.000000     5.718691     1 ; 
   CLG04    CLG01    CLG01    CLG06     9   180.000000    35.233464     2 ; 
   CLG04    CLG01    CLG01    HLGA4     9   180.000000    25.591854     2 ; 
   CLG04    CLG06    CLG06    CLG06     9   180.000000    18.124251     2 ; 
   CLG04    CLG06    CLG06   CLG06A     9   180.000000    20.596995     2 ; 
   CLG04    CLG06    CLG06   CLG06B     9   180.000000    19.201213     2 ; 
   CLG04    CLG06    CLG06   HLGR61     9   180.000000    14.477058     2 ; 
   CLG05    CLG01    CLG01    CLG06     9   180.000000     2.585294     1 ; 
   CLG05    CLG01    CLG01    CLG06     9   180.000000    27.336582     2 ; 
   CLG05    CLG01    CLG01    HLGA4     9   180.000000    20.387377     2 ; 
   CLG05    CLG06    CLG06    CLG06     9   180.000000    10.984674     2 ; 
   CLG05    CLG06    CLG06   CLG06A     9   180.000000    14.209701     2 ; 
   CLG05    CLG06    CLG06   CLG06B     9   180.000000    12.346147     2 ; 
   CLG05    CLG06    CLG06   HLGR61     9   180.000000     4.051367     2 ; 
   CLG06    CLG01    CLG01    CLG11     9   180.000000     7.899392     1 ; 
   CLG06    CLG01    CLG01    CLG11     9   180.000000    29.769997     2 ; 
   CLG06    CLG01    CLG01    CLG12     9   180.000000     2.463121     1 ; 
   CLG06    CLG01    CLG01    CLG12     9   180.000000    24.180173     2 ; 
   CLG06    CLG01    CLG01    HLGA4     9   180.000000    15.739371     2 ; 
   CLG06    CLG03     OLG5    CLG11     9   180.000000    20.238845     1 ; 
   CLG06    CLG03     OLG5    CLG11     9   180.000000    11.309770     2 ; 
   CLG06    CLG03     OLG5    CLG11     9   180.000000     0.000000     6 ; 
   CLG06    CLG03     OLG5    CLG12     9   180.000000     8.395614     1 ; 
   CLG06    CLG03     OLG5    CLG12     9   180.000000    10.934466     2 ; 
   CLG06    CLG03     OLG6    HLGP1     9   180.000000     2.720018     1 ; 
   CLG06    CLG03     OLG6    HLGP1     9   180.000000    13.642769     2 ; 
   CLG06    CLG03     OLG6    HLGP1     9   180.000000     0.002929     3 ; 
   CLG06    CLG03     OLG6    HLGP1     9   180.000000     1.701214     6 ; 
   CLG06    CLG06    CLG06    CLG06     9   180.000000     9.468392     2 ; 
   CLG06    CLG06    CLG06    CLG09     9   180.000000    17.618406     2 ; 
   CLG06    CLG06    CLG06    CLG10     9   180.000000    14.558646     2 ; 
   CLG06    CLG06    CLG06    CLG11     9   180.000000     0.767346     2 ; 
   CLG06    CLG06    CLG06    CLG14     9   180.000000     4.123750     2 ; 
   CLG06    CLG06    CLG06   CLG06A     9   180.000000    26.095608     2 ; 
   CLG06    CLG06    CLG06   CLG06B     9   180.000000    23.530816     2 ; 
   CLG06    CLG06    CLG06   HLGR61     9   180.000000    21.410783     2 ; 
   CLG06    CLG06    CLG09    CLG09     9   180.000000     8.753765     2 ; 
   CLG06    CLG06    CLG09   CLG06A     9   180.000000    16.121370     2 ; 
   CLG06    CLG06    CLG10    CLG10     9   180.000000    13.730633     2 ; 
   CLG06    CLG06    CLG10    CLG14     9     0.000000     4.857624     2 ; 
   CLG06    CLG06    CLG10     OLG7     9   180.000000    14.798390     2 ; 
   CLG06    CLG06    CLG11    CLG06     9   180.000000     0.915459     2 ; 
   CLG06    CLG06    CLG11    CLG11     9   180.000000     1.537620     2 ; 
   CLG06    CLG06    CLG11    CLG12     9   180.000000     0.952278     2 ; 
   CLG06    CLG06    CLG11    HLGA1     9     0.000000     0.000000     1 ; 
   CLG06    CLG06    CLG11     OLG4     9   180.000000     0.555217     2 ; 
   CLG06    CLG06    CLG11     OLG5     9   180.000000     2.477765     2 ; 
   CLG06    CLG06    CLG11     OLG6     9   180.000000     1.701214     2 ; 
   CLG06    CLG06    CLG11     OLG8     9     0.000000     1.148508     2 ; 
   CLG06    CLG06    CLG14    CLG14     9   180.000000     4.236718     2 ; 
   CLG06    CLG06    CLG14    CLG16     9   180.000000     1.710838     2 ; 
   CLG06    CLG06    CLG14    HLGA1     9     0.000000     0.000000     1 ; 
   CLG06    CLG06    CLG14     OLG7     9   180.000000     1.610840     2 ; 
   CLG06    CLG06   CLG06A    CLG06     9   180.000000     1.773179     2 ; 
   CLG06    CLG06   CLG06A    CLG09     9   180.000000    10.141598     2 ; 
   CLG06    CLG06   CLG06A    CLG10     9   180.000000    14.180413     2 ; 
   CLG06    CLG06   CLG06A   CLG06A     9   180.000000     1.615442     2 ; 
   CLG06    CLG06   CLG06A   CLG06B     9   180.000000    12.400958     2 ; 
   CLG06    CLG06   CLG06A     OLG6     9   180.000000    18.528007     2 ; 
   CLG06    CLG06   CLG06B    CLG06     9   180.000000    17.903336     2 ; 
   CLG06    CLG06   CLG06B    CLG10     9   180.000000    13.143618     2 ; 
   CLG06    CLG06   CLG06B   CLG06A     9   180.000000     6.158011     2 ; 
   CLG06    CLG06   CLG06B   CLG06B     9   180.000000    20.337169     2 ; 
   CLG06    CLG06   CLG06B     OLG4     9   180.000000    13.967029     2 ; 
   CLG06    CLG06   CLG06B     OLG8     9   180.000000    17.876140     2 ; 
   CLG06    CLG07    CLG07    CLG08     9   180.000000    14.422248     2 ; 
   CLG06    CLG07    CLG07   CLG06A     9   180.000000     9.606882     2 ; 
   CLG06    CLG07     OLG8    CLG09     9     0.000000     0.001674     2 ; 
   CLG06    CLG09    CLG09    CLG06     9   180.000000    12.315186     2 ; 
   CLG06    CLG09    CLG09    CLG07     9   180.000000     5.619530     2 ; 
   CLG06    CLG09    CLG09    CLG07     9     0.000000     1.054786     4 ; 
   CLG06    CLG09    CLG09   CLG06A     9   180.000000     6.017429     2 ; 
   CLG06    CLG09    CLG09     OLG8     9     0.000000     2.358102     1 ; 
   CLG06    CLG09    CLG09     OLG8     9   180.000000     4.435040     2 ; 
   CLG06    CLG09    CLG09     OLG8     9   180.000000     1.571510     3 ; 
   CLG06    CLG09    CLG09     OLG8     9     0.000000     1.609585     4 ; 
   CLG06    CLG09   CLG06A    CLG06     9   180.000000    11.400145     2 ; 
   CLG06    CLG09   CLG06A   CLG06A     9   180.000000     9.611066     2 ; 
   CLG06    CLG09   CLG06A   CLG06B     9   180.000000    15.369506     2 ; 
   CLG06    CLG09   CLG06A     OLG6     9   180.000000    18.213370     2 ; 
   CLG06    CLG10    CLG10    CLG06     9   180.000000    14.459904     2 ; 
   CLG06    CLG10    CLG10    CLG14     9   180.000000    24.622003     2 ; 
   CLG06    CLG10    CLG10   CLG06A     9   180.000000     7.492289     2 ; 
   CLG06    CLG10    CLG10   CLG06B     9   180.000000    11.454955     2 ; 
   CLG06    CLG10    CLG10     OLG7     9   180.000000    19.425475     2 ; 
   CLG06    CLG10    CLG14    CLG12     9   180.000000     0.440994     2 ; 
   CLG06    CLG10    CLG14    CLG14     9   180.000000     4.259312     2 ; 
   CLG06    CLG10    CLG14    HLGA1     9   180.000000     0.003347     3 ; 
   CLG06    CLG10     OLG7    CLG14     9   180.000000     2.748051     2 ; 
   CLG06    CLG11    CLG11    CLG06     9     0.000000     3.808695     3 ; 
   CLG06    CLG11    CLG11    CLG12     9     0.000000     0.596638     3 ; 
   CLG06    CLG11    CLG11    HLGA1     9   180.000000     6.027052     3 ; 
   CLG06    CLG11    CLG11     OLG4     9     0.000000     2.147229     3 ; 
   CLG06    CLG11    CLG11     OLG6     9     0.000000     4.891514     3 ; 
   CLG06    CLG11    CLG11     OLG8     9     0.000000     0.000000     1 ; 
   CLG06    CLG11    CLG12    HLGA2     9   180.000000     3.363099     3 ; 
   CLG06    CLG11    CLG12     OLG6     9     0.000000    10.795557     3 ; 
   CLG06    CLG11     OLG4   CC3151     9     0.000000     1.186582     3 ; 
   CLG06    CLG11     OLG4    CC321     9     0.000000     0.000000     1 ; 
   CLG06    CLG11     OLG4   CLG06B     9   180.000000     0.012134     3 ; 
   CLG06    CLG11     OLG5    CLG03     9     0.000000     0.140582     3 ; 
   CLG06    CLG11     OLG6    HLGP1     9     0.000000     3.342598     1 ; 
   CLG06    CLG11     OLG6    HLGP1     9     0.000000     0.000837     2 ; 
   CLG06    CLG11     OLG6    HLGP1     9     0.000000     3.791959     3 ; 
   CLG06    CLG11     OLG8   CLG06B     9     0.000000     0.000000     1 ; 
   CLG06    CLG14    CLG14    CLG10     9   180.000000     0.000000     3 ; 
   CLG06    CLG14    CLG14    CLG12     9   180.000000     1.741381     2 ; 
   CLG06    CLG14    CLG14    HLGA1     9     0.000000     2.668555     3 ; 
   CLG06    CLG14    CLG16    CLG15     9     0.000000     4.017058     3 ; 
   CLG06    CLG14    CLG16    CLG16     9     0.000000     0.000000     1 ; 
   CLG06    CLG14    CLG16    HLGA1     9     0.000000     0.000000     1 ; 
   CLG06    CLG14     OLG7    CLG10     9   180.000000     3.317494     1 ; 
   CLG06    CLG14     OLG7    CLG10     9     0.000000     0.747681     6 ; 
   CLG06    CLG14     OLG7    CLG15     9     0.000000     4.147181     3 ; 
   CLG06   CLG06A   CLG06A    CLG06     9   180.000000    13.615991     2 ; 
   CLG06   CLG06A   CLG06A    CLG09     9   180.000000    10.134903     2 ; 
   CLG06   CLG06A   CLG06A   CLG06B     9   180.000000     0.594128     2 ; 
   CLG06   CLG06A   CLG06A     OLG6     9   180.000000    18.107097     2 ; 
   CLG06   CLG06A   CLG06B    CLG06     9   180.000000     0.634294     2 ; 
   CLG06   CLG06A   CLG06B     OLG4     9   180.000000     0.411287     2 ; 
   CLG06   CLG06A     OLG6    HLGP1     9   180.000000     3.821666     2 ; 
   CLG06   CLG06B   CLG06B    CLG06     9   180.000000    13.451978     2 ; 
   CLG06   CLG06B   CLG06B   CLG06B     9   180.000000     9.940347     2 ; 
   CLG06   CLG06B   CLG06B     OLG4     9   180.000000    12.604718     2 ; 
   CLG06   CLG06B   CLG06B     OLG8     9   180.000000    13.269974     2 ; 
   CLG06   CLG06B     OLG4   CC3152     9   180.000000     3.022103     2 ; 
   CLG06   CLG06B     OLG4    CLG11     9   180.000000     1.158550     2 ; 
   CLG06   CLG06B     OLG4    CLG13     9   180.000000    11.429851     2 ; 
   CLG06   CLG06B     OLG4    CLG13     9   180.000000     0.284512     4 ; 
   CLG06   CLG06B     OLG4   CLG06B     9     0.000000     0.000000     1 ; 
   CLG06   CLG06B     OLG8    CLG11     9   180.000000     0.215894     4 ; 
   CLG07    CLG06   CLG06A    CLG06     9   180.000000     5.051343     2 ; 
   CLG07    CLG06   CLG06A     OLG6     9   180.000000    13.615991     2 ; 
   CLG07    CLG07    CLG08    CLG07     9   180.000000     4.924568     2 ; 
   CLG07    CLG07    CLG08     OLG3     9   180.000000     2.874826     2 ; 
   CLG07    CLG07   CLG06A    CLG06     9   180.000000     1.972756     2 ; 
   CLG07    CLG07   CLG06A     OLG6     9   180.000000    12.296358     2 ; 
   CLG07    CLG07     OLG8    CLG09     9     0.000000     0.000000     1 ; 
   CLG07    CLG09     OLG8    CLG07     9     0.000000     0.000000     1 ; 
   CLG07   CLG06A     OLG6    HLGP1     9   180.000000     5.601121     2 ; 
   CLG08    CLG07    CLG07     OLG8     9   180.000000     2.415423     2 ; 
   CLG08    CLG07    CLG09    CLG09     9   180.000000    16.517177     2 ; 
   CLG08    CLG07    CLG09     OLG8     9   180.000000    12.460370     2 ; 
   CLG08    CLG07   CLG06A    CLG06     9   180.000000    12.168327     2 ; 
   CLG08    CLG07   CLG06A     OLG6     9   180.000000    12.000967     2 ; 
   CLG09    CLG06    CLG06    CLG11     9   180.000000     5.414096     2 ; 
   CLG09    CLG06   CLG06B   CLG06A     9   180.000000    10.572550     2 ; 
   CLG09    CLG06   CLG06B     OLG4     9   180.000000    11.574199     2 ; 
   CLG09    CLG07    CLG08    CLG07     9   180.000000     5.630409     2 ; 
   CLG09    CLG07    CLG08     OLG3     9   180.000000     2.992815     2 ; 
   CLG09    CLG09   CLG06A    CLG06     9   180.000000    13.718499     2 ; 
   CLG09    CLG09   CLG06A   CLG06A     9   180.000000    11.009778     2 ; 
   CLG09    CLG09   CLG06A   CLG06B     9   180.000000    16.040201     2 ; 
   CLG09    CLG09   CLG06A     OLG6     9   180.000000     7.273884     2 ; 
   CLG09    CLG09     OLG8    CLG07     9     0.000000     0.000000     1 ; 
   CLG09   CLG06A   CLG06A     OLG6     9   180.000000    12.221046     2 ; 
   CLG09   CLG06A   CLG06B    CLG06     9   180.000000    12.861198     2 ; 
   CLG09   CLG06A   CLG06B     OLG4     9   180.000000    16.827211     2 ; 
   CLG09   CLG06A     OLG6    HLGP1     9   180.000000     5.699445     2 ; 
   CLG10    CLG06    CLG06    CLG11     9   180.000000    20.189055     2 ; 
   CLG10    CLG06    CLG06   HLGR61     9   180.000000    15.797110     2 ; 
   CLG10    CLG10    CLG14    CLG12     9     0.000000     0.000000     1 ; 
   CLG10    CLG10    CLG14    CLG14     9   180.000000     0.249785     3 ; 
   CLG10    CLG10    CLG14    HLGA1     9     0.000000     1.243485     3 ; 
   CLG10    CLG10   CLG06A    CLG06     9   180.000000     8.830332     2 ; 
   CLG10    CLG10   CLG06A     OLG6     9   180.000000    12.204728     2 ; 
   CLG10    CLG10   CLG06B    CLG06     9   180.000000    11.911430     2 ; 
   CLG10    CLG10   CLG06B     OLG4     9   180.000000    12.331085     2 ; 
   CLG10    CLG10     OLG7    CLG14     9   180.000000    11.349100     2 ; 
   CLG10    CLG14    CLG14    HLGA1     9   180.000000     4.048020     3 ; 
   CLG10    CLG14    CLG14     OLG7     9   180.000000     6.934980     3 ; 
   CLG10   CLG06A     OLG6    HLGP1     9   180.000000     2.847630     2 ; 
   CLG10   CLG06B     OLG4    CLG13     9   180.000000     0.002092     2 ; 
   CLG11    CLG01    CLG01    HLGA4     9   180.000000    27.917740     2 ; 
   CLG11    CLG01    CLG03     OLG1     9   180.000000     6.545031     2 ; 
   CLG11    CLG01    CLG03     OLG6     9   180.000000    11.317302     2 ; 
   CLG11    CLG03     OLG6    HLGP1     9   180.000000    10.792210     2 ; 
   CLG11    CLG06    CLG06   CLG06A     9   180.000000     5.404054     2 ; 
   CLG11    CLG06    CLG06   CLG06B     9   180.000000     1.451011     2 ; 
   CLG11    CLG06    CLG06   HLGR61     9   180.000000    12.619781     2 ; 
   CLG11    CLG11    CLG12    HLGA2     9     0.000000     2.822945     3 ; 
   CLG11    CLG11    CLG12     OLG5     9   180.000000     9.906457     3 ; 
   CLG11    CLG11    CLG12     OLG6     9   180.000000    14.952361     3 ; 
   CLG11    CLG11     OLG4   CC3151     9     0.000000     1.110015     1 ; 
   CLG11    CLG11     OLG4   CC3152     9     0.000000     6.472230     1 ; 
   CLG11    CLG11     OLG4   CC3152     9     0.000000     0.274889     3 ; 
   CLG11    CLG11     OLG4    CC321     9     0.000000     0.187443     1 ; 
   CLG11    CLG11     OLG4   CLG06B     9     0.000000     3.355568     1 ; 
   CLG11    CLG11     OLG4   CLG06B     9     0.000000     0.117152     3 ; 
   CLG11    CLG11     OLG5    CLG03     9   180.000000     5.594426     1 ; 
   CLG11    CLG11     OLG6    HLGP1     9     0.000000     2.309568     2 ; 
   CLG11    CLG11     OLG6    HLGP1     9     0.000000     0.042677     3 ; 
   CLG11    CLG11     OLG8   CLG06B     9     0.000000     1.811254     1 ; 
   CLG11    CLG11     OLG8   CLG06B     9     0.000000    11.762898     2 ; 
   CLG11    CLG12     OLG5    CLG03     9   180.000000     7.843745     3 ; 
   CLG11    CLG12     OLG6    HLGP1     9     0.000000     1.847236     2 ; 
   CLG12    CLG01    CLG01    HLGA4     9   180.000000    14.920144     2 ; 
   CLG12    CLG11    CLG11    HLGA1     9     0.000000     0.389530     3 ; 
   CLG12    CLG11    CLG11     OLG4     9   180.000000     2.785289     3 ; 
   CLG12    CLG11    CLG11     OLG5     9   180.000000    14.197567     3 ; 
   CLG12    CLG11    CLG11     OLG6     9     0.000000     0.000000     1 ; 
   CLG12    CLG11    CLG11     OLG8     9   180.000000     4.623738     1 ; 
   CLG12    CLG11    CLG11     OLG8     9   180.000000     0.024686     2 ; 
   CLG12    CLG11    CLG11     OLG8     9   180.000000     3.542593     4 ; 
   CLG12    CLG11     OLG4   CC3152     9     0.000000    11.221906     1 ; 
   CLG12    CLG11     OLG4   CC3152     9     0.000000     0.004602     3 ; 
   CLG12    CLG11     OLG4   CLG06B     9     0.000000    12.262886     1 ; 
   CLG12    CLG11     OLG4   CLG06B     9     0.000000     2.314170     2 ; 
   CLG12    CLG11     OLG4   CLG06B     9     0.000000     4.072287     3 ; 
   CLG12    CLG11     OLG6    HLGP1     9     0.000000     1.845144     1 ; 
   CLG12    CLG11     OLG6    HLGP1     9     0.000000     0.374050     3 ; 
   CLG12    CLG11     OLG8   CLG06B     9     0.000000     0.530531     1 ; 
   CLG12    CLG11     OLG8   CLG06B     9     0.000000     1.464818     2 ; 
   CLG12    CLG14    CLG14    HLGA1     9     0.000000     4.052622     3 ; 
   CLG12    CLG14    CLG14     OLG7     9   180.000000     0.825922     3 ; 
   CLG12    CLG14    CLG14     OLG7     9     0.000000     0.000000     4 ; 
   CLG14    CLG06    CLG06   HLGR61     9   180.000000     5.421209     2 ; 
   CLG14    CLG10    CLG10   CLG06A     9   180.000000    18.673610     2 ; 
   CLG14    CLG10    CLG10   CLG06B     9   180.000000    24.639994     2 ; 
   CLG14    CLG10    CLG10     OLG7     9   180.000000    22.471009     2 ; 
   CLG14    CLG12     OLG6    HLGP1     9     0.000000     2.985702     1 ; 
   CLG14    CLG12     OLG6    HLGP1     9     0.000000     0.007950     2 ; 
   CLG14    CLG12     OLG6    HLGP1     9     0.000000     0.166105     3 ; 
   CLG14    CLG14     OLG7    CLG10     9     0.000000     0.000418     3 ; 
   CLG14    CLG16    CLG16    CLG14     9     0.000000     0.000000     1 ; 
   CLG14    CLG16    CLG16    CLG15     9     0.000000     0.000000     1 ; 
   CLG14    CLG16    CLG16    HLGA1     9     0.000000     0.000000     1 ; 
   CLG15    CLG16    CLG16    CLG15     9     0.000000     3.659745     3 ; 
   CLG15    CLG16    CLG16    HLGA1     9     0.000000     1.489504     3 ; 
   CLG16    CLG14     OLG7    CLG15     9     0.000000     0.000000     1 ; 
   CLG16    CLG15     OLG7    CLG14     9     0.000000     0.000000     1 ; 
  CLG06A    CLG06    CLG06   HLGR61     9   180.000000    16.760686     2 ; 
  CLG06A    CLG06    CLG07    CLG07     9   180.000000     3.605771     2 ; 
  CLG06A    CLG06    CLG07     OLG8     9   180.000000    16.068234     2 ; 
  CLG06A    CLG06   CLG06A    CLG06     9   180.000000    15.176623     2 ; 
  CLG06A    CLG06   CLG06A    CLG07     9   180.000000     3.377325     2 ; 
  CLG06A    CLG06   CLG06A     OLG6     9   180.000000    12.937765     2 ; 
  CLG06A    CLG07    CLG07     OLG8     9   180.000000    17.253142     2 ; 
  CLG06A    CLG07    CLG08    CLG07     9   180.000000     9.807296     2 ; 
  CLG06A    CLG07    CLG08     OLG3     9   180.000000     4.958877     2 ; 
  CLG06A    CLG09    CLG09   CLG06A     9   180.000000     0.092048     2 ; 
  CLG06A    CLG10     OLG7    CLG14     9   180.000000     4.311612     2 ; 
  CLG06A   CLG06A   CLG06B    CLG06     9   180.000000    12.228577     2 ; 
  CLG06A   CLG06A   CLG06B     OLG4     9   180.000000    10.899320     2 ; 
  CLG06A   CLG06A     OLG6    HLGP1     9     0.000000     4.658047     1 ; 
  CLG06A   CLG06A     OLG6    HLGP1     9   180.000000     3.186116     2 ; 
  CLG06A   CLG06B     OLG4   CC3152     9   180.000000     5.223724     2 ; 
  CLG06A   CLG06B     OLG4   CC3152     9   180.000000     0.013389     4 ; 
  CLG06A   CLG06B     OLG4    CLG11     9   180.000000     0.288696     2 ; 
  CLG06A   CLG06B     OLG4    CLG11     9   180.000000     1.229678     4 ; 
  CLG06A   CLG06B     OLG4    CLG13     9   180.000000     0.000000     2 ; 
  CLG06A   CLG06B     OLG4    CLG13     9   180.000000     0.064015     4 ; 
  CLG06A   CLG06B     OLG4   CLG06B     9   180.000000     7.479318     2 ; 
  CLG06B    CLG06    CLG06   HLGR61     9   180.000000    22.510757     2 ; 
  CLG06B    CLG06    CLG09    CLG06     9   180.000000    13.151567     2 ; 
  CLG06B    CLG06    CLG09    CLG09     9   180.000000    11.425249     2 ; 
  CLG06B    CLG10     OLG7    CLG14     9   180.000000     0.718393     2 ; 
  CLG06B   CLG06A   CLG06A     OLG6     9   180.000000    12.873331     2 ; 
  CLG06B   CLG06A   CLG06B    CLG06     9   180.000000     3.630038     2 ; 
  CLG06B   CLG06A   CLG06B     OLG4     9   180.000000    28.022758     2 ; 
  CLG06B   CLG06A     OLG6    HLGP1     9     0.000000     4.159733     1 ; 
  CLG06B   CLG06A     OLG6    HLGP1     9   180.000000     4.005762     2 ; 
  CLG06B   CLG06B   CLG06B     OLG4     9   180.000000    12.113935     2 ; 
  CLG06B   CLG06B     OLG4   CC3152     9   180.000000     6.125794     2 ; 
  CLG06B   CLG06B     OLG4   CC3152     9   180.000000     1.180306     4 ; 
  CLG06B   CLG06B     OLG4    CLG11     9   180.000000     4.365167     2 ; 
  CLG06B   CLG06B     OLG4    CLG11     9   180.000000     0.762325     4 ; 
  CLG06B   CLG06B     OLG4    CLG13     9   180.000000     0.261500     2 ; 
  CLG06B   CLG06B     OLG4   CLG06B     9   180.000000    11.597211     2 ; 
  CLG06B   CLG06B     OLG8    CLG11     9   180.000000     0.000000     2 ; 
  CLG06B   CLG06B     OLG8    CLG11     9   180.000000     1.034285     4 ; 
    HCA1   CC3151   CC3151     OLG4     9     0.000000    11.421065     3 ; 
    HCA1   CC3151   CC3152     OLG4     9     0.000000     7.436223     3 ; 
    HCA1   CC3151     OLG4    CLG11     9   180.000000     7.714878     2 ; 
    HCA1   CC3152     OLG4    CLG11     9     0.000000     5.197783     1 ; 
    HCA1   CC3152     OLG4    CLG11     9   180.000000    13.100104     2 ; 
    HCA1   CC3152     OLG4    CLG11     9     0.000000     2.638430     3 ; 
    HCA1   CC3152     OLG4   CLG06B     9     0.000000     0.000000     1 ; 
    HCA1   CC3153    CC321     OLG4     9     0.000000     0.381999     3 ; 
    HCA1   CC3153    CC321     OLG5     9     0.000000     3.121682     3 ; 
    HCA2    CC321     OLG4    CLG11     9     0.000000     1.747657     3 ; 
    HCA2    CC321     OLG5    CLG03     9     0.000000     0.375723     3 ; 
   HLGA1    CLG11    CLG11    HLGA1     9     0.000000     0.000000     1 ; 
   HLGA1    CLG11    CLG11     OLG4     9     0.000000     0.282002     3 ; 
   HLGA1    CLG11    CLG11     OLG5     9     0.000000    10.688028     3 ; 
   HLGA1    CLG11    CLG11     OLG6     9     0.000000     0.000000     1 ; 
   HLGA1    CLG11    CLG11     OLG8     9     0.000000     4.738380     3 ; 
   HLGA1    CLG11    CLG12    HLGA2     9     0.000000     1.276957     3 ; 
   HLGA1    CLG11    CLG12     OLG5     9     0.000000     2.452242     3 ; 
   HLGA1    CLG11    CLG12     OLG6     9     0.000000     0.001255     3 ; 
   HLGA1    CLG11     OLG4   CC3151     9     0.000000     4.801977     3 ; 
   HLGA1    CLG11     OLG4   CC3152     9     0.000000     0.012552     3 ; 
   HLGA1    CLG11     OLG4    CC321     9     0.000000     0.000000     1 ; 
   HLGA1    CLG11     OLG4   CLG06B     9     0.000000     0.000000     1 ; 
   HLGA1    CLG11     OLG5    CLG03     9     0.000000     3.457239     3 ; 
   HLGA1    CLG11     OLG6    HLGP1     9     0.000000     1.775271     3 ; 
   HLGA1    CLG11     OLG8   CLG06B     9     0.000000     0.000000     1 ; 
   HLGA1    CLG14    CLG14    HLGA1     9     0.000000     0.000000     3 ; 
   HLGA1    CLG14    CLG14     OLG7     9     0.000000     0.000000     3 ; 
   HLGA1    CLG14    CLG16    CLG15     9     0.000000     0.152298     3 ; 
   HLGA1    CLG14    CLG16    CLG16     9     0.000000     0.000000     1 ; 
   HLGA1    CLG14    CLG16    HLGA1     9     0.000000     0.000000     1 ; 
   HLGA1    CLG14     OLG7    CLG10     9     0.000000     5.598192     3 ; 
   HLGA1    CLG14     OLG7    CLG15     9     0.000000     3.258081     3 ; 
   HLGA1    CLG16    CLG16    HLGA1     9     0.000000     0.012970     3 ; 
   HLGA2    CLG12    CLG14    CLG10     9     0.000000     0.000000     1 ; 
   HLGA2    CLG12    CLG14    CLG14     9     0.000000     3.723342     3 ; 
   HLGA2    CLG12    CLG14    HLGA1     9     0.000000     0.001674     3 ; 
   HLGA2    CLG12     OLG5    CLG03     9     0.000000     2.834242     3 ; 
   HLGA2    CLG12     OLG6    HLGP1     9     0.000000     1.198298     3 ; 
   HLGA2    CLG15    CLG16    CLG14     9   180.000000     3.713300     3 ; 
   HLGA2    CLG15    CLG16    CLG16     9     0.000000     0.000000     3 ; 
   HLGA2    CLG15    CLG16    HLGA1     9     0.000000     0.054392     3 ; 
   HLGA2    CLG15     OLG7    CLG14     9     0.000000     0.745170     3 ; 
   HLGA3    CLG13     OLG4   CLG06B     9     0.000000     0.683666     3 ; 
   HLGA4    CLG01    CLG01    HLGA4     9   180.000000    33.088327     2 ; 
   HLGA4    CLG01    CLG03     OLG1     9   180.000000     2.933402     2 ; 
   HLGA4    CLG01    CLG03     OLG5     9   180.000000    12.026071     2 ; 
   HLGA4    CLG01    CLG03     OLG6     9   180.000000     1.151437     2 ; 
   HLGA4    CLG01    CLG04     OLG2     9     0.000000    19.210418     2 ; 
   HLGA4    CLG01    CLG05   HLGR52     9     0.000000     2.221286     2 ; 
   HLGA4    CLG01    CLG05     OLG1     9     0.000000     2.182793     2 ; 
   HLGA4    CLG01    CLG06    CLG06     9   180.000000     1.626739     2 ; 
   HLGA4    CLG01    CLG12    HLGA2     9     0.000000     1.051858     3 ; 
   HLGA4    CLG01    CLG12     OLG6     9     0.000000     2.439690     3 ; 
   HLGA4    CLG02    CLG06    CLG06     9   180.000000    14.941901     2 ; 
  HLGR52    CLG05    CLG06    CLG06     9   180.000000     5.128747     2 ; 
  HLGR61    CLG06    CLG06   HLGR61     9   180.000000     0.015062     2 ; 
  HLGR61    CLG06    CLG07    CLG07     9   180.000000    12.324390     2 ; 
  HLGR61    CLG06    CLG07     OLG8     9   180.000000    10.473807     2 ; 
  HLGR61    CLG06    CLG09    CLG06     9   180.000000    14.150288     2 ; 
  HLGR61    CLG06    CLG09    CLG09     9   180.000000     2.548474     2 ; 
  HLGR61    CLG06    CLG09   CLG06A     9   180.000000    16.751899     2 ; 
  HLGR61    CLG06    CLG10    CLG10     9   180.000000    20.153073     2 ; 
  HLGR61    CLG06    CLG10    CLG14     9   180.000000     1.538457     2 ; 
  HLGR61    CLG06    CLG10     OLG7     9   180.000000    13.003872     2 ; 
  HLGR61    CLG06   CLG06A    CLG06     9   180.000000    21.092381     2 ; 
  HLGR61    CLG06   CLG06A    CLG07     9   180.000000    17.226783     2 ; 
  HLGR61    CLG06   CLG06A    CLG09     9   180.000000    16.700018     2 ; 
  HLGR61    CLG06   CLG06A    CLG10     9   180.000000     5.423301     2 ; 
  HLGR61    CLG06   CLG06A   CLG06A     9   180.000000     5.927054     2 ; 
  HLGR61    CLG06   CLG06A   CLG06B     9   180.000000    38.901158     2 ; 
  HLGR61    CLG06   CLG06A     OLG6     9   180.000000    18.202492     2 ; 
  HLGR61    CLG06   CLG06B    CLG06     9   180.000000    25.628674     2 ; 
  HLGR61    CLG06   CLG06B    CLG10     9   180.000000    12.017703     2 ; 
  HLGR61    CLG06   CLG06B   CLG06A     9   180.000000    18.051868     2 ; 
  HLGR61    CLG06   CLG06B   CLG06B     9   180.000000    24.355901     2 ; 
  HLGR61    CLG06   CLG06B     OLG4     9   180.000000     0.129704     2 ; 
  HLGR61    CLG06   CLG06B     OLG8     9   180.000000    10.963754     2 ; 
  HLGR62    CLG07    CLG08    CLG07     9   180.000000     3.341342     2 ; 
  HLGR62    CLG07    CLG08     OLG3     9   180.000000    24.107371     2 ; 
  HLGR62    CLG07    CLG09    CLG09     9   180.000000    16.643534     2 ; 
  HLGR62    CLG07    CLG09     OLG8     9   180.000000     8.698118     2 ; 
   OC311   CC3151   CC3151     OLG4     9   180.000000     2.275259     3 ; 
   OC311   CC3151   CC3152     OLG4     9   180.000000     5.976007     3 ; 
  OC3C51   CC3152     OLG4    CLG11     9   180.000000     3.317912     1 ; 
  OC3C51   CC3152     OLG4    CLG11     9   180.000000     9.501027     2 ; 
  OC3C51   CC3152     OLG4    CLG11     9     0.000000     0.644336     3 ; 
  OC3C51   CC3152     OLG4   CLG06B     9   180.000000     5.147575     1 ; 
  OC3C51   CC3153    CC321     OLG4     9   180.000000    10.960406     1 ; 
  OC3C51   CC3153    CC321     OLG5     9   180.000000     5.132094     1 ; 
    OLG1    CLG03    CLG06    CLG06     9   180.000000     5.302802     2 ; 
    OLG1    CLG03    CLG11    CLG01     9   180.000000     3.169798     1 ; 
    OLG1    CLG03    CLG11    CLG11     9     0.000000     0.000000     1 ; 
    OLG1    CLG03    CLG11    HLGA1     9     0.000000     2.094929     3 ; 
    OLG1    CLG03     OLG5    CC321     9   180.000000     1.017549     1 ; 
    OLG1    CLG03     OLG5    CC321     9   180.000000    14.718475     2 ; 
    OLG1    CLG03     OLG5    CLG11     9   180.000000     4.267262     1 ; 
    OLG1    CLG03     OLG5    CLG11     9   180.000000    16.059447     2 ; 
    OLG1    CLG03     OLG5    CLG12     9   180.000000     4.010782     1 ; 
    OLG1    CLG03     OLG5    CLG12     9   180.000000     9.366721     2 ; 
    OLG1    CLG03     OLG6    HLGP1     9   180.000000     7.560070     2 ; 
    OLG1    CLG05    CLG06    CLG06     9   180.000000     4.259730     2 ; 
    OLG2    CLG04    CLG06    CLG06     9   180.000000     5.181884     2 ; 
    OLG4   CC3151   CC3152     HCA1     9     0.000000     0.162758     3 ; 
    OLG4   CC3151   CC3152    OC311     9     0.000000     0.368610     3 ; 
    OLG4   CC3151   CC3152   OC3C51     9     0.000000     1.134701     3 ; 
    OLG4   CC3151   CC3152   OC3C51     9   180.000000     6.276000     4 ; 
    OLG4   CC3151   CC3152   OC3C51     9     0.000000     0.831361     6 ; 
    OLG4   CC3152   OC3C51   CC3153     9   180.000000     0.390367     3 ; 
    OLG4    CLG11    CLG11     OLG6     9     0.000000     0.458985     3 ; 
    OLG4    CLG11    CLG12    HLGA2     9     0.000000     0.000000     1 ; 
    OLG4    CLG11    CLG12     OLG6     9     0.000000     4.729175     3 ; 
    OLG4   CLG06B   CLG06B     OLG4     9   180.000000    13.053243     2 ; 
    OLG5    CLG03    CLG06    CLG06     9   180.000000     4.076053     2 ; 
    OLG5    CLG11    CLG11     OLG6     9     0.000000     4.169356     3 ; 
    OLG6    CLG03    CLG06    CLG06     9   180.000000     3.278164     2 ; 
    OLG6    CLG03    CLG11    CLG01     9   180.000000     6.030399     1 ; 
    OLG6    CLG03    CLG11    CLG11     9     0.000000     0.000000     1 ; 
    OLG6    CLG03    CLG11    HLGA1     9   180.000000     0.004184     6 ; 
    OLG6    CLG11    CLG11     OLG6     9     0.000000     0.000000     1 ; 
    OLG6    CLG11    CLG12    HLGA2     9   180.000000     0.129704     3 ; 
    OLG6    CLG11    CLG12     OLG5     9     0.000000     0.000000     1 ; 
    OLG6    CLG11    CLG12     OLG6     9     0.000000     6.251314     3 ; 
    OLG6    CLG12    CLG14    CLG10     9   180.000000     4.251781     3 ; 
    OLG6    CLG12    CLG14    CLG14     9   180.000000     2.634246     1 ; 
    OLG6    CLG12    CLG14    CLG14     9     0.000000     0.005439     2 ; 
    OLG6    CLG12    CLG14    HLGA1     9     0.000000     0.175728     3 ; 
    OLG6   CLG06A   CLG06A     OLG6     9   180.000000    20.894478     2 ; 
    OLG6   CLG06A   CLG06B    CLG06     9   180.000000    21.658894     2 ; 
    OLG6   CLG06A   CLG06B     OLG4     9   180.000000    16.306303     2 ; 
    OLG7    CLG10   CLG06A    CLG06     9   180.000000    12.561623     2 ; 
    OLG7    CLG10   CLG06A     OLG6     9   180.000000    11.312699     2 ; 
    OLG7    CLG10   CLG06B    CLG06     9   180.000000    11.645327     2 ; 
    OLG7    CLG10   CLG06B     OLG4     9   180.000000    13.128555     2 ; 
    OLG7    CLG14    CLG16    CLG15     9     0.000000     1.848073     3 ; 
    OLG7    CLG14    CLG16    CLG16     9     0.000000     0.000000     1 ; 
    OLG7    CLG14    CLG16    HLGA1     9     0.000000     0.000000     1 ; 
    OLG7    CLG15    CLG16    CLG14     9     0.000000    15.084575     3 ; 
    OLG7    CLG15    CLG16    CLG16     9     0.000000     0.000000     2 ; 
    OLG7    CLG15    CLG16    CLG16     9     0.000000     0.476139     6 ; 
    OLG7    CLG15    CLG16    HLGA1     9     0.000000     0.000000     3 ; 
    OLG8    CLG11    CLG11     OLG8     9     0.000000     0.000000     1 ; 
    OLG8    CLG11    CLG12    HLGA2     9     0.000000     0.000000     1 ; 
    OLG8    CLG11    CLG12     OLG6     9     0.000000     9.237435     3 ; 
    OLG8   CLG06B   CLG06B     OLG8     9   180.000000    12.317278     2 ; 

; specific (non-wildcard) dihedral parameters from toppar_c36_jul22/stream/lipid/toppar_all36_lipid_bacterial.str
;      i        j        k        l  func         phi0         kphi  mult
    CTL2     CTL2   CG3RC1     HGA1     9     0.000000     0.627600     3 ; propane ring, MacKerell
    CTL2     CTL2   CG3RC1   CG3C31     9   180.000000     0.000000     2 ; propane ring, MacKerell
    HGA2   CG3C31   CG3RC1     CTL2     9     0.000000     0.815880     3 ; propane ring, MacKerell
  CG3RC1   CG3C31   CG3RC1     CTL2     9     0.000000     0.627600     3 ; propane ring, MacKerell
    CTL2   CG3RC1   CG3RC1   CG3C31     9     0.000000     0.627600     3 ; propane ring, MacKerell
    CTL2   CG3RC1   CG3RC1     HGA1     9     0.000000     0.627600     3 ; propane ring, MacKerell
    CTL2   CG3RC1   CG3RC1     CTL2     9     0.000000     0.627600     3 ; propane ring, MacKerell
    HAL2     CTL2   CG3RC1   CG3C31     9     0.000000     0.815880     3 ; propane ring, MacKerell
    HAL2     CTL2   CG3RC1   CG3RC1     9     0.000000     0.627600     3 ; propane ring, MacKerell
    HAL2     CTL2   CG3RC1     HGA1     9     0.000000     0.627600     3 ; propane ring, MacKerell
  CG3RC1   CG3C31   CG3RC1     CTL3     9     0.000000     0.627600     3 ; CARBOCY carbocyclic sugars, taken from CG3RC1 CG3C31 CG3RC1 CG321, genFF
    HGA2   CG3C31   CG3RC1     CTL3     9     0.000000     0.815880     3 ; CARBOCY carbocyclic sugars, taken from HGA2 CG3C31 CG3RC1 CG321, genFF
    HAL3     CTL3   CG3RC1   CG3RC1     9   180.000000     0.627600     3 ; BAM1, bile acid steroidal C-D ring, cacha, 02/08
    HAL3     CTL3   CG3RC1     HGA1     9     0.000000     0.669440     3 ; alkane, 4/98, yin and mackerell, tf2m viv, taken from HGA3 CG331 CG3C51 HGA1, genFF
    HAL3     CTL3   CG3RC1   CG3C31     9   180.000000     0.627600     3 ; BAM1, bile acid steroidal C-D ring, cacha, 02/08, taken from HGA3 CG331 CG3RC1 CG3C51, genFF
  CG3RC1   CG3RC1     CTL2     CTL2     9   159.600000     7.154640     1 ; ring, KRP
  CG3RC1   CG3RC1     CTL2     CTL2     9   165.100000     1.548080     2 ; ring, KRP
  CG3RC1   CG3RC1     CTL2     CTL2     9    47.600000     2.426720     3 ; ring, KRP
  CG3RC1     CTL2     CTL2     CTL2     9   180.000000     0.669440     1 ; ring, KRP
  CG3RC1     CTL2     CTL2     CTL2     9   180.000000     0.041840     2 ; ring, KRP
  CG3RC1     CTL2     CTL2     CTL2     9   180.000000     0.711280     3 ; ring, KRP
     OSL        C      CT1      NH3     9   180.000000     0.209200     6 ; /scrat , from OG302 CG2O2 CG311 CG321, PENALTY= 46
     OSL        C      CT1      CT2     9   180.000000     0.209200     6 ; /scrat , from OG302 CG2O2 CG311 CG321, PENALTY= 1
     OSL        C      CT1      HB1     9     0.000000     0.000000     1 ; /scrat , from OG302 CG2O2 CG311 HGA1, PENALTY= 1
       O        C      OSL     CTL2     9   180.000000     4.037560     1 ; LIPID methyl acetate
    CTL2     CTL2      OSL        C     9   180.000000     2.928800     1 ; LIPID ethyl acetate, 12/92
    HAL2     CTL2      OSL        C     9     0.000000     0.000000     3 ; LIPID phosphate, new NA, 4/98, adm jr.
     CT1        C      OSL     CTL2     9   180.000000     8.577200     2 ; /scrat , from CG321 CG2O2 OG302 CG321, PENALTY= 17

; specific (non-wildcard) dihedral parameters from toppar_c36_jul22/stream/lipid/toppar_all36_lipid_cholesterol.str
;      i        j        k        l  func         phi0         kphi  mult
    CRL1     CRL1     CTL1     CTL2     9     0.000000     0.000000     3 ; 6/10, jbk
    CRL1     CTL1     CTL2     CTL3     9   180.000000     0.509611     3 ; 6/10, jbk
    CRL1     CTL1     CTL2     CTL3     9   180.000000     0.910020     2 ; 6/10, jbk
    CRL1     CTL1     CTL2     CTL3     9   180.000000     1.003323     1 ; 6/10, jbk
    CRL1     CTL1     CTL2     CTL2     9   180.000000     0.509611     3 ; 6/10, jbk
    CRL1     CTL1     CTL2     CTL2     9   180.000000     0.910020     2 ; 6/10, jbk
    CRL1     CTL1     CTL2     CTL2     9   180.000000     1.003323     1 ; 6/10, jbk
    CRL1     CRL2     CEL1     CRL1     9   180.000000     1.255200     3 ; torR1
    CTL1     CRL2     CEL1     CRL1     9   180.000000     1.255200     3 ; torR1
    CRL1     CTL2     CEL1     CRL1     9   180.000000     1.255200     3 ; torR1
    CRL1     CRL2     CEL1     CTL1     9   180.000000     1.255200     3 ; torR1
    CTL1     CTL2     CEL1     CRL1     9   180.000000     1.255200     3 ; torR1
    CTL1     CRL2     CEL1     CTL1     9   180.000000     1.255200     3 ; torR1
    CRL1     CTL2     CEL1     CTL1     9   180.000000     1.255200     3 ; torR1
    CRL2     CEL1     CRL1     CRL1     9   180.000000     0.000000     3 ; bR12
    CTL2     CEL1     CRL1     CRL1     9   180.000000     0.000000     3 ; bR12
    CRL2     CEL1     CTL1     CRL1     9   180.000000     0.000000     3 ; bR12
    CRL2     CEL1     CRL1     CTL1     9   180.000000     0.000000     3 ; bR12
    CTL2     CEL1     CTL1     CRL1     9   180.000000     0.000000     3 ; bR12
    CTL2     CEL1     CRL1     CTL1     9   180.000000     0.000000     3 ; bR12
    CRL2     CEL1     CTL1     CTL1     9   180.000000     0.000000     3 ; bR12
    CTL2     CEL1     CRL1     CTL3     9   180.000000     0.000000     3 ; bR12
    CRL2     CEL1     CTL1     CTL3     9   180.000000     0.000000     3 ; bR12
    CRL2     CEL1     CRL1     CRL2     9   180.000000     1.255200     3 ; torR1
    CRL2     CEL1     CRL1     CTL2     9   180.000000     1.255200     3 ; torR1
    CRL2     CEL1     CTL1     CRL2     9   180.000000     1.255200     3 ; torR1
    CTL2     CEL1     CRL1     CRL2     9   180.000000     1.255200     3 ; torR1
    CRL2     CEL1     CTL1     CTL2     9   180.000000     1.255200     3 ; torR1
    CTL2     CEL1     CRL1     CTL2     9   180.000000     1.255200     3 ; torR1
    CTL2     CEL1     CTL1     CRL2     9   180.000000     1.255200     3 ; torR1
    CEL1     CEL1     CRL2     HGA2     9   180.000000     1.255200     3 ; 2-butene, adm jr., 4/04
    CEL1     CEL1     CRL2     HAL2     9   180.000000     1.255200     3 ; 2-butene, adm jr., 4/04
    CEL1     CEL1     CTL2     HGA2     9   180.000000     1.255200     3 ; 2-butene, adm jr., 4/04
    CEL1     CEL1     CRL2     CRL1     9   180.000000     2.092000     1 ; torR2, CEL1 CEL1 CTL2 CTL2
    CEL1     CEL1     CRL2     CRL1     9   180.000000     5.439200     3 ; 
    CEL1     CEL1     CTL2     CRL1     9   180.000000     2.092000     1 ; torR2, CEL1 CEL1 CTL2 CTL2
    CEL1     CEL1     CTL2     CRL1     9   180.000000     5.439200     3 ; 
    CEL1     CEL1     CRL2     CTL1     9   180.000000     2.092000     1 ; torR2, CEL1 CEL1 CTL2 CTL2
    CEL1     CEL1     CRL2     CTL1     9   180.000000     5.439200     3 ; 
    CEL1     CEL1     CRL1     CRL2     9   180.000000     2.092000     1 ; bR12, CEL1 CEL1 CTL2 CTL2
    CEL1     CEL1     CRL1     CRL2     9   180.000000     5.439200     3 ; 
    CEL1     CEL1     CTL1     CRL2     9   180.000000     2.092000     1 ; bR12, CEL1 CEL1 CTL2 CTL2
    CEL1     CEL1     CTL1     CRL2     9   180.000000     5.439200     3 ; 
    CEL1     CEL1     CRL1     CTL2     9   180.000000     2.092000     1 ; bR12, CEL1 CEL1 CTL2 CTL2
    CEL1     CEL1     CRL1     CTL2     9   180.000000     5.439200     3 ; 
    CEL1     CEL1     CRL1     CTL3     9   180.000000     2.092000     1 ; bR13, rCH3, CEL1 CEL1 CTL2 CTL2
    CEL1     CEL1     CRL1     CTL3     9   180.000000     5.439200     3 ; 
    CEL1     CEL1     CRL2     CTL3     9   180.000000     3.765600     1 ; 2-pentene and 3-heptene
    CEL1     CEL1     CRL2     CTL3     9   180.000000     0.836800     2 ; 2-pentene and 3-heptene
    CEL1     CRL2     CRL2     CTL3     9   180.000000     0.585760     1 ; 2-hexene, adm jr., 11/09 (from jbklauda)
    CEL1     CRL2     CRL2     CTL3     9     0.000000     0.711280     2 ; 2-hexene, adm jr., 11/09 (from jbklauda)
    CEL1     CRL2     CRL2     CTL3     9   180.000000     0.209200     3 ; 2-hexene, adm jr., 11/09 (from jbklauda)
    CEL1     CRL2     CTL2     CTL3     9   180.000000     0.585760     1 ; 2-hexene, adm jr., 11/09 (from jbklauda)
    CEL1     CRL2     CTL2     CTL3     9     0.000000     0.711280     2 ; 2-hexene, adm jr., 11/09 (from jbklauda)
    CEL1     CRL2     CTL2     CTL3     9   180.000000     0.209200     3 ; 2-hexene, adm jr., 11/09 (from jbklauda)
    CEL1     CTL2     CRL2     CTL3     9   180.000000     0.585760     1 ; 2-hexene, adm jr., 11/09 (from jbklauda)
    CEL1     CTL2     CRL2     CTL3     9     0.000000     0.711280     2 ; 2-hexene, adm jr., 11/09 (from jbklauda)
    CEL1     CTL2     CRL2     CTL3     9   180.000000     0.209200     3 ; 2-hexene, adm jr., 11/09 (from jbklauda)
    CEL1     CEL1     CRL2     CEL1     9   180.000000     4.184000     1 ; 2,5-diheptane
    CEL1     CEL1     CRL2     CEL1     9     0.000000     0.418400     2 ; 2,5-diheptane
    CEL1     CEL1     CRL2     CEL1     9   180.000000     1.255200     3 ; 2,5-diheptane
    CEL1     CEL1     CRL2     CEL1     9     0.000000     0.836800     4 ; 2,5-diheptane
    CEL1     CEL1     CRL1     CRL1     9   180.000000     2.092000     1 ; torR2, CEL1 CEL1 CTL2 CTL2
    CEL1     CEL1     CRL1     CRL1     9   180.000000     5.439200     3 ; 
    CEL1     CEL1     CTL1     CRL1     9   180.000000     2.092000     1 ; torR2, CEL1 CEL1 CTL2 CTL2
    CEL1     CEL1     CTL1     CRL1     9   180.000000     5.439200     3 ; 
    CEL1     CEL1     CRL1     CTL1     9   180.000000     2.092000     1 ; torR2, CEL1 CEL1 CTL2 CTL2
    CEL1     CEL1     CRL1     CTL1     9   180.000000     5.439200     3 ; 
    CEL1     CEL1     CRL2     CRL2     9   180.000000     3.807440     1 ; 2-hexene, adm jr., 11/09 (from jbklauda, 6/18)
    CEL1     CEL1     CRL2     CRL2     9   180.000000     0.753120     2 ; 2-hexene, adm jr., 11/09 (from jbklauda, 6/18)
    CEL1     CEL1     CRL2     CRL2     9   180.000000     0.711280     3 ; 2-hexene, adm jr., 11/09 (from jbklauda, 6/18)
    CEL1     CEL1     CRL2     CTL2     9   180.000000     3.807440     1 ; 2-hexene, adm jr., 11/09 (from jbklauda, 6/18)
    CEL1     CEL1     CRL2     CTL2     9   180.000000     0.753120     2 ; 2-hexene, adm jr., 11/09 (from jbklauda, 6/18)
    CEL1     CEL1     CRL2     CTL2     9   180.000000     0.711280     3 ; 2-hexene, adm jr., 11/09 (from jbklauda, 6/18)
    CEL1     CEL1     CTL2     CRL2     9   180.000000     3.807440     1 ; 2-hexene, adm jr., 11/09 (from jbklauda, 6/18)
    CEL1     CEL1     CTL2     CRL2     9   180.000000     0.753120     2 ; 2-hexene, adm jr., 11/09 (from jbklauda, 6/18)
    CEL1     CEL1     CTL2     CRL2     9   180.000000     0.711280     3 ; 2-hexene, adm jr., 11/09 (from jbklauda, 6/18)
    CEL1     CRL2     CRL2     CRL2     9   180.000000     0.585760     1 ; 2-hexene, adm jr., 11/09 (from jbklauda)
    CEL1     CRL2     CRL2     CRL2     9     0.000000     0.711280     2 ; 2-hexene, adm jr., 11/09 (from jbklauda)
    CEL1     CRL2     CRL2     CRL2     9   180.000000     0.209200     3 ; 2-hexene, adm jr., 11/09 (from jbklauda)
    CEL1     CRL2     CTL2     CTL2     9   180.000000     0.585760     1 ; 2-hexene, adm jr., 11/09 (from jbklauda)
    CEL1     CRL2     CTL2     CTL2     9     0.000000     0.711280     2 ; 2-hexene, adm jr., 11/09 (from jbklauda)
    CEL1     CRL2     CTL2     CTL2     9   180.000000     0.209200     3 ; 2-hexene, adm jr., 11/09 (from jbklauda)
    CEL1     CTL2     CRL2     CTL2     9   180.000000     0.585760     1 ; 2-hexene, adm jr., 11/09 (from jbklauda)
    CEL1     CTL2     CRL2     CTL2     9     0.000000     0.711280     2 ; 2-hexene, adm jr., 11/09 (from jbklauda)
    CEL1     CTL2     CRL2     CTL2     9   180.000000     0.209200     3 ; 2-hexene, adm jr., 11/09 (from jbklauda)
    CEL1     CTL2     CTL2     CRL2     9   180.000000     0.585760     1 ; 2-hexene, adm jr., 11/09 (from jbklauda)
    CEL1     CTL2     CTL2     CRL2     9     0.000000     0.711280     2 ; 2-hexene, adm jr., 11/09 (from jbklauda)
    CEL1     CTL2     CTL2     CRL2     9   180.000000     0.209200     3 ; 2-hexene, adm jr., 11/09 (from jbklauda)
    CEL1     CRL2     CRL2     CTL2     9   180.000000     0.585760     1 ; 2-hexene, adm jr., 11/09 (from jbklauda)
    CEL1     CRL2     CRL2     CTL2     9     0.000000     0.711280     2 ; 2-hexene, adm jr., 11/09 (from jbklauda)
    CEL1     CRL2     CRL2     CTL2     9   180.000000     0.209200     3 ; 2-hexene, adm jr., 11/09 (from jbklauda)
    CEL1     CRL2     CTL2     CRL2     9   180.000000     0.585760     1 ; 2-hexene, adm jr., 11/09 (from jbklauda)
    CEL1     CRL2     CTL2     CRL2     9     0.000000     0.711280     2 ; 2-hexene, adm jr., 11/09 (from jbklauda)
    CEL1     CRL2     CTL2     CRL2     9   180.000000     0.209200     3 ; 2-hexene, adm jr., 11/09 (from jbklauda)
    CEL1     CTL2     CRL2     CRL2     9   180.000000     0.585760     1 ; 2-hexene, adm jr., 11/09 (from jbklauda)
    CEL1     CTL2     CRL2     CRL2     9     0.000000     0.711280     2 ; 2-hexene, adm jr., 11/09 (from jbklauda)
    CEL1     CTL2     CRL2     CRL2     9   180.000000     0.209200     3 ; 2-hexene, adm jr., 11/09 (from jbklauda)
    CRL2     CEL1     CRL1     CTL3     9   180.000000     0.000000     3 ; bR12
    HEL1     CEL1     CRL2     CRL1     9     0.000000     0.000000     3 ; wC9H, HEL1 CEL1 CTL2 CTL2
    HEL1     CEL1     CTL2     CRL1     9     0.000000     0.000000     3 ; wC9H, HEL1 CEL1 CTL2 CTL2
    HEL1     CEL1     CRL2     CTL1     9     0.000000     0.000000     3 ; wC9H, HEL1 CEL1 CTL2 CTL2
    HEL1     CEL1     CRL2     CTL2     9     0.000000     0.502080     3 ; butene, yin,adm jr., 12/95
    HEL1     CEL1     CTL2     CRL2     9     0.000000     0.502080     3 ; butene, yin,adm jr., 12/95
    HEL1     CEL1     CRL2     CTL3     9     0.000000     0.502080     3 ; butene, yin,adm jr., 12/95
    HEL1     CEL1     CRL2     HGA2     9     0.000000     0.000000     3 ; butene, adm jr., 2/00 update
    HEL1     CEL1     CTL2     HGA2     9     0.000000     0.000000     3 ; butene, adm jr., 2/00 update
    HEL1     CEL1     CRL2     HAL2     9     0.000000     0.000000     3 ; butene, adm jr., 2/00 update
    CEL1     CRL2     CEL1     HEL1     9     0.000000     0.000000     2 ; 1,4-dipentene
    CEL1     CRL2     CEL1     HEL1     9     0.000000     0.000000     3 ; 1,4-dipentene
    CRL2     CEL1     CEL2     HEL2     9   180.000000    21.756800     2 ; propene, yin,adm jr., 12/95
    CEL2     CEL1     CRL2     CRL2     9   180.000000     2.092000     1 ; 1-butene, adm jr., 2/00 update
    CEL2     CEL1     CRL2     CRL2     9   180.000000     5.439200     3 ; 1-butene, adm jr., 2/00 update
    CEL2     CEL1     CTL2     CRL2     9   180.000000     2.092000     1 ; 1-butene, adm jr., 2/00 update
    CEL2     CEL1     CTL2     CRL2     9   180.000000     5.439200     3 ; 1-butene, adm jr., 2/00 update
    CEL2     CEL1     CRL2     CTL2     9   180.000000     2.092000     1 ; 1-butene, adm jr., 2/00 update
    CEL2     CEL1     CRL2     CTL2     9   180.000000     5.439200     3 ; 1-butene, adm jr., 2/00 update
    CEL2     CEL1     CRL2     CTL3     9   180.000000     2.092000     1 ; 1-butene, adm jr., 2/00 update
    CEL2     CEL1     CRL2     CTL3     9   180.000000     5.439200     3 ; 1-butene, adm jr., 2/00 update
    CEL2     CEL1     CRL2     HGA2     9     0.000000     0.502080     3 ; 1-butene, yin,adm jr., 12/95
    CEL2     CEL1     CTL2     HGA2     9     0.000000     0.502080     3 ; 1-butene, yin,adm jr., 12/95
    CEL2     CEL1     CRL2     HAL2     9     0.000000     0.502080     3 ; 1-butene, yin,adm jr., 12/95
    CEL2     CEL1     CRL2     CEL1     9   180.000000     5.020800     1 ; 1,4-dipentene
    CEL2     CEL1     CRL2     CEL1     9   180.000000     1.673600     2 ; 1,4-dipentene
    CEL2     CEL1     CRL2     CEL1     9   180.000000     5.439200     3 ; 1,4-dipentene
    HGA2     CRL2     CEL1     CRL1     9     0.000000     0.125520     3 ; CH2 wag and twist, from CEL1 CEL1 CTL2 HAL2
    HAL2     CRL2     CEL1     CRL1     9     0.000000     0.125520     3 ; CH2 wag and twist, from CEL1 CEL1 CTL2 HAL2
    HGA2     CTL2     CEL1     CRL1     9     0.000000     0.125520     3 ; CH2 wag and twist, from CEL1 CEL1 CTL2 HAL2
    HGA2     CRL2     CEL1     CTL1     9     0.000000     0.125520     3 ; CH2 wag and twist, from CEL1 CEL1 CTL2 HAL2
    HGA2     CTL2     CEL1     CTL1     9     0.000000     0.125520     3 ; CH2 wag and twist, from CEL1 CEL1 CTL2 HAL2
    HAL2     CRL2     CEL1     CTL1     9     0.000000     0.125520     3 ; CH2 wag and twist, from CEL1 CEL1 CTL2 HAL2
    HAL2     CTL2     CEL1     CRL1     9     0.000000     0.125520     3 ; CH2 wag and twist, from CEL1 CEL1 CTL2 HAL2
    HEL1     CEL1     CRL2     CRL2     9     0.000000     0.502080     3 ; butene, yin,adm jr., 12/95
    CEL1     CEL1     CTL1     HAL1     9   180.000000     1.255200     3 ; From 2-butene
    CEL1     CEL1     CRL1     HGA1     9   180.000000     1.255200     3 ; From CEL1 CEL1 CRL2 HGA2
    HAL2     CTL2     CEL1     CTL1     9     0.000000     0.125520     3 ; CH2 wag and twist, from CEL1 CEL1 CTL2 HAL2
    CEL1     CEL1     CTL2     CTL1     9   180.000000     2.092000     1 ; torR2, CEL1 CEL1 CTL2 CTL2
    CEL1     CEL1     CTL2     CTL1     9   180.000000     5.439200     3 ; 
    CTL1     CTL2     CEL1     CTL1     9   180.000000     1.255200     3 ; torR1
    HGA1     CRL1      OSL       CL     9     0.000000     0.000000     3 ; From HGA1   CG311  OG302  CG2O2
      CL      OSL     CRL1     CRL2     9   180.000000     2.928800     1 ; From CG321  CG311  OG302  CG2O2

; specific (non-wildcard) dihedral parameters from toppar_c36_jul22/stream/lipid/toppar_all36_lipid_detergent.str
;      i        j        k        l  func         phi0         kphi  mult
     OSL       SL     CTL2     HAL2     9     0.000000     0.794960     3 ; ESNA, ethyl sulfonate, xhe
     OSL       SL     CTL2     CTL2     9     0.000000     0.962320     3 ; PSNA, propyl sulfonate, xhe
       C      NHL     CTL2     HAL2     9     0.000000     0.000000     3 ; from, HA2  CT2  NH1  C
       C      NHL     CTL2     CTL2     9     0.000000     7.531200     1 ; from, CT2  CT2  NH1  C
       O        C      NHL     CTL2     9   180.000000    10.460000     2 ; from, O    C    NH1  CT2
    CTL2        C      NHL     CTL2     9     0.000000     6.694400     1 ; 
    CTL2        C      NHL     CTL2     9   180.000000    10.460000     2 ; from, CT2  C    NH1  CT2
       H      NHL     CTL2     HAL2     9     0.000000     0.000000     3 ; ALLOW PEP
       H      NHL     CTL2     CTL2     9     0.000000     0.000000     1 ; from, H    NH1  CT2  CT2
    CTL1     CTL2       SL      OSL     9     0.000000     0.962320     3 ; PSNA, propyl sulfonate, xhe
  CC3162    OC301     CTL2    CC301     9   180.000000     3.012480     1 ; pram, 1-ethoxy-THP2 QM phi-psi scan, updated param
  CC3162    OC301     CTL2    CC301     9   180.000000     1.422560     2 ; " MCSA fit "
  CC3162    OC301     CTL2    CC301     9   180.000000     0.502080     3 ; " MP2/cc-pVTZ//MP2/6-31G*
   OC301     CTL2    CC301     CTL2     9     0.000000     0.794960     3 ; par27 X CTL2 CTL2 X
    CTL2    CC301     CTL2     HAL2     9     0.000000     0.794960     3 ; par27 X CTL2 CTL2 X
    CTL2    CC301     CTL2     CTL2     9     0.000000     0.794960     3 ; par27 X CTL2 CTL2 X
    CTL2     CTL2        S       HS     9     0.000000     1.004160     1 ; from, HS   S    CT2  CT1
    CTL2     CTL2        S       HS     9     0.000000     0.627600     2 ; 
    CTL2     CTL2        S       HS     9     0.000000     1.129680     3 ; 
    HAL2     CTL2        S       HS     9     0.000000     0.836800     3 ; from, HS   S    CT2  HA
     NTL     CTL2       CC       OC     9   180.000000     0.209200     6 ; From X    CT2  CC   X
      HL     CTL2       CC       OC     9   180.000000     0.209200     6 ; From X    CT2  CC   X
     NHL        C     CTL2    CC301     9     0.000000     0.000000     1 ; NH1  C    CT2  CT2
       C     CTL2    CC301     CTL2     9     0.000000     0.836800     3 ; X    CT1  CT1  X
       C     CTL2    CC301   CG2R61     9     0.000000     0.167360     3 ; CG331  CG311  CG321  CG2R61
       O        C     CTL2    CC301     9     0.000000     5.857600     1 ; 
    CTL2    CC301   CG2R61   CG2R61     9   180.000000     0.962320     2 ; CG2R61 CG2R61 CG321  CG321
    HAL2     CTL2    CC301   CG2R61     9     0.000000     0.167360     3 ; CG2R61 CG321  CG321  HGA2
   CC301   CG2R61   CG2R61    HGR61     9   180.000000    10.041600     2 ; CG311  CG2R61 CG2R61 HGR61
   CC301   CG2R61   CG2R61   CG2R61     9   180.000000    12.970400     2 ; 
    CTL2     CTL2    CC301   CG2R61     9     0.000000     0.167360     3 ; CG331  CG311  CG321  CG2R61
    CTL5      NTL      OHL      HOL     9     0.000000     1.158968     3 ; TMAOP,
     HOL      OHL      NTL     CTL2     9     0.000000     1.158968     3 ; TMAOP,

; specific (non-wildcard) dihedral parameters from toppar_c36_jul22/stream/lipid/toppar_all36_lipid_ether.str
;      i        j        k        l  func         phi0         kphi  mult
   OG301     CTL1     CTL2    OG301     9   180.000000     0.167360     1 ; A.L. 07/18  diethoxyethane
   OG301     CTL1     CTL2    OG301     9     0.000000     5.020800     2 ; A.L. 07/18  diethoxyethane
    CTL2    OG301     CTL2     CTL2     9     0.000000     1.297040     2 ; A.L. 07/18  diethoxyethane
    CTL2    OG301     CTL2     CTL2     9     0.000000     1.757280     3 ; A.L. 07/18  diethoxyethane
    CTL2    OG301     CTL2     CTL2     9     0.000000     0.669440     4 ; A.L. 07/18  diethoxyethane
    CTL2    OG301     CTL2     CTL2     9     0.000000     1.087840     5 ; A.L. 07/18  diethoxyethane
    CTL2     CTL2    OG301     CTL1     9     0.000000     1.297040     2 ; A.L. 07/18  diethoxyethane
    CTL2     CTL2    OG301     CTL1     9     0.000000     1.757280     3 ; A.L. 07/18  diethoxyethane
    CTL2     CTL2    OG301     CTL1     9     0.000000     0.669440     4 ; A.L. 07/18  diethoxyethane
    CTL2     CTL2    OG301     CTL1     9     0.000000     1.087840     5 ; A.L. 07/18  diethoxyethane
    CTL2     CTL1    OG301     CTL2     9     0.000000     1.297040     2 ; A.L. 07/18  diethoxyethane
    CTL2     CTL1    OG301     CTL2     9     0.000000     1.757280     3 ; A.L. 07/18  diethoxyethane
    CTL2     CTL1    OG301     CTL2     9     0.000000     0.669440     4 ; A.L. 07/18  diethoxyethane
    CTL2     CTL1    OG301     CTL2     9     0.000000     1.087840     5 ; A.L. 07/18  diethoxyethane
    CTL1     CTL2    OG301     CTL2     9     0.000000     1.297040     2 ; A.L. 07/18  diethoxyethane
    CTL1     CTL2    OG301     CTL2     9     0.000000     1.757280     3 ; A.L. 07/18  diethoxyethane
    CTL1     CTL2    OG301     CTL2     9     0.000000     0.669440     4 ; A.L. 07/18  diethoxyethane
    CTL1     CTL2    OG301     CTL2     9     0.000000     1.087840     5 ; A.L. 07/18  diethoxyethane
   OG301       PL    OG301     CTL1     9   180.000000     5.020800     1 ; phosphate, new NA, 4/98, adm jr., PIP
   OG301       PL    OG301     CTL1     9   180.000000     0.418400     2 ; phosphate, new NA, 4/98, adm jr., PIP
   OG301       PL    OG301     CTL1     9   180.000000     0.418400     3 ; phosphate, new NA, 4/98, adm jr., PIP
     O2L       PL    OG301     CTL2     9     0.000000     0.418400     3 ; phosphate, new NA, 4/98, adm jr.
     O2L       PL    OG301     CTL1     9     0.000000     0.418400     3 ; phosphate, new NA, 4/98, adm jr., PIP
    OSLP     CTL2     CTL1    OG301     9     0.000000     0.000000     4 ; Fit to QM, theta2, 07/08 jbk
    OSLP     CTL2     CTL1    OG301     9   180.000000     2.539688     3 ; Fit to QM, theta2, 07/08 jbk
    OSLP     CTL2     CTL1    OG301     9    60.000000     1.062736     2 ; Fit to QM, theta2, 07/08 jbk
    OSLP     CTL2     CTL1    OG301     9   180.000000     8.434944     1 ; Fit to QM, theta2, 07/08 jbk
    CTL2     CTL1     CTL2    OG301     9     0.000000     0.000000     3 ; glycerol, theta3
    CTL2     CTL2     CTL2    OG301     9     0.000000     0.000000     3 ; glycerol, theta3
    HAL2     CTL2    OG301     CTL2     9     0.000000     1.188256     3 ; diethylether, alex
    HAL2     CTL2    OG301     CTL1     9     0.000000     1.188256     3 ; 
    HAL1     CTL1    OG301     CTL2     9     0.000000     1.188256     3 ; 

; specific (non-wildcard) dihedral parameters from toppar_c36_jul22/stream/lipid/toppar_all36_lipid_lps.str
;      i        j        k        l  func         phi0         kphi  mult
  CC3163   CC3161    OC30P       PC     9   180.000000     0.121336     3 ; CC3161 CC3161 OC30P PC    ; all36 carb
   OC30P   CC3162   CC3161    NC2D1     9     0.000000     0.836800     3 ; OC301 CC3162 CC3161 NC2D1 ; all36 carb
      CL    OC301   CC3161   CC3161     9     0.000000     0.000000     4 ; CL OSL CTL1 CTL2          ; all36 lipid
      CL    OC301   CC3161   CC3161     9   180.000000     0.627600     3 ; "
      CL    OC301   CC3161   CC3161     9   180.000000     6.079352     2 ; "
      CL    OC301   CC3161   CC3161     9   180.000000     3.502008     1 ; "
     OBL       CL    OC301   CC3161     9   180.000000     4.037560     1 ; OBL CL OSL CTL1           ; all36 lipid
     OBL       CL    OC301   CC3161     9   180.000000    16.108400     2 ; "
    HCA1   CC3161    OC301       CL     9     0.000000     1.188256     3 ; HCA1 CC3161 OC301 CC3152  ; all36 carb
  CC3161    OC301       CL     CTL2     9   180.000000     8.577200     2 ; X CL OSL X                ; all36 lipid
  CC3161    NC2D1    CC2O1     CTL2     9     0.000000     6.694400     1 ; CT1 NH1 C CT3             ; all22 prot
   NC2D1    CC2O1     CTL2     HAL2     9     0.000000     0.000000     3 ; NH1 C CT3 HA              ; all22 prot
   NC2D1    CC2O1     CTL2     CTL1     9   180.000000     0.209200     6 ; X CC CT2 X                ; all22 prot
    HCP1    NC2D1    CC2O1     CTL2     9   180.000000    10.460000     2 ; H NH1 C CT2               ; all22 prot
    HAL2     CTL2    CC2O1    OC2D1     9   180.000000     0.000000     3 ; O C CT3 HA                ; all22 prot
   OC2D1    CC2O1     CTL2     CTL1     9   180.000000     0.209200     6 ; X CT1 CC X                ; all22 prot
       H      OH1     CTL1     CTL2     9     0.000000     5.564720     1 ; H OH1 CT1 CT1             ; all22 prot
       H      OH1     CTL1     CTL2     9     0.000000     0.753120     2 ; "
       H      OH1     CTL1     CTL2     9     0.000000     1.338880     3 ; "
       H      OH1     CTL1     HAL1     9     0.000000     0.585760     3 ; X CT1 OH1 X               ; all22 prot
     OSL       CL     CTL1     HAL1     9     0.000000     0.000000     3 ; from, OG2D1  CG2O2  CG311  HGA1
     OSL       CL     CTL1      OH1     9   180.000000     0.209200     6 ; par22 X CT1  CC   X
     OSL       CL     CTL1     CTL2     9   180.000000     0.209200     6 ; ALLOW   POL PEP
      CL     CTL1      OH1        H     9     0.000000     1.464400     1 ; erh ketone, n=6 polyol
      CL     CTL1      OH1        H     9     0.000000     1.548080     2 ; " RIMP2/cc-pVTZ//MP2/631gd
      CL     CTL1      OH1        H     9   180.000000     0.794960     3 ; " C-C-O-H
     OBL       CL     CTL1     HAL1     9   180.000000     0.209200     6 ; par22 X CT1  CC   X
     OBL       CL     CTL1      OH1     9     0.000000     8.744560     1 ; erh ketone, fit psicose
     OBL       CL     CTL1      OH1     9   180.000000     0.711280     2 ; " RIMP2/cc-pVTZ//MP2/631gd
     OBL       CL     CTL1      OH1     9   180.000000     8.995600     3 ; " O2-C2-C3-O3
     OBL       CL     CTL1     CTL2     9   180.000000     0.209200     6 ; ALLOW   POL PEP
  CC3162   CC3161   CC3161    NC2D1     9     0.000000     0.836800     3 ; from, NC2D1   CC3161  CC3161  CC3161, par27 X CTL1 CTL1 X
  CC3163   CC3161   CC3161    NC2D1     9     0.000000     0.836800     3 ; from, NC2D1   CC3161  CC3161  CC3161, par27 X CTL1 CTL1 X
   OC30P   CC3161   CC3161    NC2D1     9     0.000000     0.836800     3 ; from, par27 X CTL1 CTL1 X, Added by Seonghoon
   NC2D1   CC3161   CC3161    NC2D1     9     0.000000     0.836800     3 ; from, par27 X CTL1 CTL1 X, Added by Seonghoon
  CC3162    OC30P       PC    OC30P     9   180.000000     5.020800     1 ; from, par_all36_cgenff, CG321  OG303  PG1    OG303
  CC3162    OC30P       PC    OC30P     9   180.000000     0.418400     2 ; "
  CC3162    OC30P       PC    OC30P     9   180.000000     0.418400     3 ; "
      PC    OC30P    CC331     HCA3     9     0.000000     0.000000     3 ; from, HGA3   CG331  OG303  PG1 ! NA dmp !Reorganization:MP_1
   OC2DP       PC    OC30P    CC331     9     0.000000     0.418400     3 ; from, CG331  OG303  PG1    OG2P1! NA dmp !Reorganization:MP_1
   OC30P       PC    OC30P    CC331     9   180.000000     5.020800     1 ; from, CG331  OG303  PG1    OG303 NA dmp !Reorganization: PC and others
   OC30P       PC    OC30P    CC331     9   180.000000     0.418400     2 ; "
   OC30P       PC    OC30P    CC331     9   180.000000     0.418400     3 ; "
  CC3263   CC3161    NG3P3     HGP2     9     0.000000     0.418400     3 ; PROT 0.715->0.10 METHYLAMMONIUM (KK)
    HCA2   CC3263   CC3161    NG3P3     9     0.000000     0.836800     3 ; HCA1   CC3162 CC3161 NC2D1    0.20  3     0.0  ! par27 X CTL1 CTL1 X
  OC3C61   CC3263   CC3161    NG3P3     9     0.000000     0.836800     3 ; OC3C61 CC3162 CC3161 NC2D1    0.20  3     0.0  ! par27 X CTL1 CTL1 X
  CC3263   OC3C61   CC3162    OC30P     9   180.000000    10.208960     3 ; from CC3163 OC3C61 CC3162 OC30P from par_all36_carb.prm
     OSL       CL      CT2      HB2     9   180.000000     0.000000     6 ; from par_all36_lipid.prm  OBL  CL   CTL2 HAL2 ! acetic acid
     OBL       CL      CT2      HB2     9   180.000000     0.000000     6 ; from par_all36_lipid.prm  OBL  CL   CTL2 HAL2 ! acetic acid
     NH3      CT2       CL      OSL     9   180.000000     2.928800     1 ; from par_all36_lipid.prm  NH3L CTL2 CTL2 OHL  ! ethanolamine
     NH3      CT2       CL      OBL     9   180.000000     2.928800     1 ; from par_all36_lipid.prm  NH3L CTL2 CTL2 OHL  ! ethanolamine
     OSL       CL      CT2      NH1     9     0.000000     0.000000     1 ; from par_all36_prot.prm   O    C    CT2  NH1  !   ALLOW PEP
      CL      CT2      NH1       CL     9   180.000000     0.836800     1 ; from par_all36_prot.prm   C    CT2  NH1  C    !   ALLOW PEP
       H      NH1      CT2       CL     9     0.000000     0.000000     1 ; from par_all36_prot.prm   H    NH1  CT2  C    !   ALLOW PEP
     OBL       CL      CT2      NH1     9     0.000000     0.000000     1 ; from par_all36_prot.prm   O    C    CT2  NH1  !   ALLOW PEP
     NH1       CL      CT2      HB2     9     0.000000     0.000000     1 ; from par_all36_prot.prm   NH1  C    CT2  HB2  !   ALLOW PEP
     NH3      CT2       CL      NH1     9     0.000000     4.184000     1 ; from par_all36_prot.prm   NH3  CT2  C    NH1  !   ALLOW PEP PRO
       H      NH1       CL      CT2     9   180.000000    10.460000     2 ; from par_all36_prot.prm   H    NH1  C    CT2  !   ALLOW PEP
     HB2      CT2      NH1       CL     9     0.000000     0.000000     1 ; from par_all36_prot.prm   HB2  CT2  NH1  C    !   ALLOW PEP
     OBL       CL      NH1      CT2     9   180.000000    10.460000     2 ; from par_all36_prot.prm   O    C    NH1  CT2  !   ALLOW PEP
     OBL       CL      NH1        H     9   180.000000    10.460000     2 ; from par_all36_prot.prm   O    C    NH1  H    !   ALLOW PEP
     CT2       CL      NH1      CT2     9     0.000000     6.694400     1 ; from par_all36_prot.prm   CT2  C    NH1  CT2  !   ALLOW PEP

; specific (non-wildcard) dihedral parameters from toppar_c36_jul22/stream/lipid/toppar_all36_lipid_miscellaneous.str
;      i        j        k        l  func         phi0         kphi  mult
    CTL2      ON2        P    OG2P1     9     0.000000     1.380720     3 ; ! from CC3162   OC30P     PC        OC2DP    0.33   3      0.0 ! probably better with the old phosphate charges in the topology (and the L-J haven't changed) -- kevo
    CTL2      ON2        P    OG304     9     0.000000     6.066800     2 ; ! from CC3162   OC30P     PC        OC312    1.45   2      0.0 ! probably better with the old phosphate charges in the topology (and the L-J haven't changed) -- kevo
    HAL2     CTL2      ON2        P     9     0.000000     1.188256     3 ; ! from HCA1     CC3162    OC30P     PC       0.284  3      0.0  ! dmp,eps, H-C3'-O3'-P || from the par_all27_na.prm
    CTL1     CTL2      ON2        P     9   180.000000     0.083680     3 ; ! from CC3161   CC3162    OC30P     PC       0.02   3    180.0
    CTL2      ON2        P      ON2     9     0.000000     3.974800     2 ; from ON4 P ON2 CN7B
    CTL2      ON2        P      ON2     9     0.000000     2.092000     3 ; from ON4 P ON2 CN7B
    CTL2      ON2        P      ON3     9     0.000000     3.974800     2 ; from ON4 P ON2 CN7B
    CTL2      ON2        P      ON3     9     0.000000     2.092000     3 ; from ON4 P ON2 CN7B
    CTL2      ON2        P      ON4     9     0.000000     3.974800     2 ; from ON4 P ON2 CN7B
    CTL2      ON2        P      ON4     9     0.000000     2.092000     3 ; from ON4 P ON2 CN7B
      P3      ON2        P      ON4     9     0.000000     0.418400     2 ; from P ON2 P2 ON4, adm jr. 7/01¬
      P3      ON2        P      ON4     9     0.000000     0.125520     3 ; from P ON2 P2 ON4, adm jr. 7/01¬
      P4      ON2        P      ON4     9     0.000000     0.418400     2 ; from P ON2 P2 ON4, adm jr. 7/01¬
      P4      ON2        P      ON4     9     0.000000     0.125520     3 ; from P ON2 P2 ON4, adm jr. 7/01¬

; specific (non-wildcard) dihedral parameters from toppar_c36_jul22/stream/lipid/toppar_all36_lipid_prot.str
;      i        j        k        l  func         phi0         kphi  mult
      CL        S      CT2      CT1     9   180.000000     1.004160     1 ; from, CG321  CG321  SG311  CG331
      CL        S      CT2      CT1     9     0.000000     1.548080     3 ; "
     HA2      CT2        S       CL     9     0.000000     1.171520     3 ; from, HGA2   CG321  SG311  CG331
     CT2        S       CL     CTL2     9   180.000000     1.004160     1 ; from, CG321  CG321  SG311  CG331
     CT2        S       CL     CTL2     9     0.000000     1.548080     3 ; "
     CT2        S       CL      OBL     9   180.000000     8.577200     2 ; 
     NH1        C     CTL2     HAL2     9     0.000000     0.000000     3 ; from, prot22; sp2-methyl, no dihedral potential; NH1 C CT2 HA
     NH1        C     CTL2     CTL2     9     0.000000     8.326160     1 ; from, CTL2 CTL2 C NHL
     NH1        C     CTL2     CTL2     9   180.000000     2.677760     2 ; 
     NH1        C     CTL2     CTL2     9   180.000000     1.171520     3 ; 
       H      NH1        C     CTL2     9   180.000000    10.460000     2 ; prot22; H NH1 C CT2
     CT2      NH1        C     CTL2     9     0.000000     0.000000     1 ; from, CTL1 NHL  C    CTL2
     CT1      CT2        S    CG321     9   180.000000     1.004160     1 ; from, CG321  CG321  SG311  CG321, PROT expt. MeEtS, 3/26/92
     CT1      CT2        S    CG321     9     0.000000     1.548080     3 ; "
     CT2        S    CG321     HGA2     9     0.000000     1.171520     3 ; from, HGA2   CG321  SG311  CG321, PROT DTN 8/24/90
     CT2        S    CG321    CG2D1     9   180.000000     1.004160     1 ; from, CG321  CG321  SG311  CG321, PROT expt. MeEtS, 3/26/92
     CT2        S    CG321    CG2D1     9     0.000000     1.548080     3 ; "
     HA2      CT2        S    CG321     9     0.000000     1.171520     3 ; from, HGA2   CG321  SG311  CG321, PROT DTN 8/24/90
       S    CG321    CG2D1     HGA4     9     0.000000     0.836800     3 ; from, par27 X CTL1 CTL2 X
       S    CG321    CG2D1    CG2D1     9     0.000000     0.836800     3 ; from, par27 X CTL1 CTL2 X
     CT1      NH1        C     CTL2     9     0.000000     0.000000     1 ; from, CTL1 NHL  C    CTL2
     CT2        S    CG321     CTL1     9   180.000000     1.004160     1 ; from, CG321  CG321  SG311  CG321, PROT expt. MeEtS, 3/26/92
     CT2        S    CG321     CTL1     9     0.000000     1.548080     3 ; "
       S    CG321     CTL1     HAL1     9     0.000000     0.836800     3 ; from, par27 X CTL1 CTL2 X
       S    CG321     CTL1      OSL     9     0.000000     0.836800     3 ; from, par27 X CTL1 CTL2 X
       S    CG321     CTL1     CTL2     9     0.000000     0.836800     3 ; from, par27 X CTL1 CTL2 X
    HGA2    CG321     CTL1     HAL1     9     0.000000     0.836800     3 ; from, par27 X CTL1 CTL2 X
    HGA2    CG321     CTL1      OSL     9     0.000000     0.836800     3 ; from, par27 X CTL1 CTL2 X
    HGA2    CG321     CTL1     CTL2     9     0.000000     0.836800     3 ; from, par27 X CTL1 CTL2 X

; specific (non-wildcard) dihedral parameters from toppar_c36_jul22/stream/lipid/toppar_all36_lipid_sphingo.str
;      i        j        k        l  func         phi0         kphi  mult
    CTL3     CTL1     CEL3     CEL3     9   180.000000     3.765600     1 ; lip36; 2-pentene and 3-heptene; CEL1 CEL1 CTL2 CTL3
    CEL3     CEL3     CTL2     CTL3     9   180.000000     3.807440     1 ; lip36; 2-hexene, adm jr., 11/09
    CEL3     CEL3     CTL2     CTL3     9   180.000000     0.753120     2 ; 
    CEL3     CEL3     CTL2     CTL3     9   180.000000     0.711280     3 ; ""
    CEL3     CEL3     CTL2     CTL2     9   180.000000     3.807440     1 ; lip36; 2-hexene, adm jr., 11/09
    CEL3     CEL3     CTL2     CTL2     9   180.000000     0.753120     2 ; 
    CEL3     CEL3     CTL2     CTL2     9   180.000000     0.711280     3 ; ""
    CTL1     CEL3     CEL3     CTL2     9   180.000000     1.882800     1 ; lip36; 2-butene, adm jr., 4/04; X CEL1 CEL1 X
    CTL1     CEL3     CEL3     CTL2     9   180.000000    35.564000     2 ; lip36; 2-butene, adm jr., 4/04; X CEL1 CEL1 X
    CTO1     CEL3     CEL3     CTL2     9     0.000000     0.627600     1 ; prot27; 2-butene, adm jr., 2/00 update; X CEL1 CEL1 X
    CTO1     CEL3     CEL3     CTL2     9   180.000000    35.564000     2 ; prot27; 2-butene, adm jr., 2/00 update; X CEL1 CEL1 X
    CTL1     CTL1     CEL3     CEL3     9   180.000000     2.510400     1 ; lip36; 2-hexene; CEL1 CEL1 CTL2 CTL2
       O        C     CTL2     CTL3     9     0.000000     5.857600     1 ; prot22; lactams, adm jr; O C CT2 CT2/O C CT1 CT3
       O        C     CTL2     CTL2     9     0.000000     5.857600     1 ; prot22; lactams, adm jr; O C CT2 CT2/O C CT1 CT3
     OHL     CTL1     CEL3     CEL3     9   180.000000     2.510400     1 ; lip36; 2-hexene; CEL3 CEL3 CTL2 CTL2
     OSL     CTO1     CEL3     CEL3     9   180.000000     5.355520     1 ; torsfit MP2/ccpVTZ, cer1 model, erh 8/09
     OSL     CTO1     CEL3     CEL3     9   180.000000     2.343040     2 ; ""  analogy fot TACSPH, rmv nov 2009
     OSL     CTO1     CEL3     CEL3     9     0.000000     3.598240     3 ; ""
    CTL2     CTL1     CTO1      OHL     9     0.000000     0.836800     3 ; lip36; alkane, 3/92, X CTL1 CTL1 X
    CTO1     CTL1     CTL2      OSL     9   180.000000     1.631760     1 ; torsfit MP2/ccpVTZ, sph model, erh 8/09; transferred from cer4
    CTO1     CTL1     CTL2      OSL     9   180.000000     2.133840     2 ; ""
    CTO1     CTL1     CTL2      OSL     9   180.000000     3.640080     3 ; ""
    CTL2     CTL1     CTO1      OSL     9   180.000000     1.631760     1 ; torsfit MP2/ccpVTZ, sph model, erh 8/09; transferred from cer4
    CTL2     CTL1     CTO1      OSL     9   180.000000     2.133840     2 ; ""       analogy for TACSPH, rmv nov 2009
    CTL2     CTL1     CTO1      OSL     9   180.000000     3.640080     3 ; ""
    HAL1     CTO1      OHL      HOL     9     0.000000     0.585760     3 ; lip36; glycerol, X CTL1 OHL  X
      CL      OSL     CTO1     CTL1     9     0.000000     0.000000     4 ; glycerol, beta1 6/07; from lip36 for TACSPH, rmv nov 2009
      CL      OSL     CTO1     CTL1     9   180.000000     0.627600     3 ; glycerol, beta1 6/07
      CL      OSL     CTO1     CTL1     9   180.000000     6.079352     2 ; glycerol, beta1 6/07
      CL      OSL     CTO1     CTL1     9   180.000000     3.502008     1 ; glycerol, beta1 6/07
    CEL3     CTO1      OSL       CL     9     0.000000     0.920480     1 ; og OMeTHP compounds 2 and 3; rmv nov 2009
    CEL3     CTO1      OSL       CL     9   180.000000     1.171520     2 ; "  MCSA fit
    CEL3     CTO1      OSL       CL     9     0.000000     3.723760     3 ; "  MP2/cc-pVTZ//MP2/6-31G*
    HAL1     CTO1      OSL       CL     9     0.000000     0.000000     3 ; lip36, X CT1 OSL X; TACCSPH, rmv nov 2009
    HEL1     CEL3     CTL1     CTL3     9     0.000000     0.502080     3 ; prot22; for butene, yin/adm jr., 12/95; HE1 CE1 CT2 CT3
    HEL1     CEL3     CTO1     CTL3     9     0.000000     0.502080     3 ; prot22; for butene, yin/adm jr., 12/95; HE1 CE1 CT2 CT3
    HEL1     CEL3     CTL2     CTL2     9     0.000000     0.502080     3 ; prot22; for butene, yin/adm jr., 12/95; HE1 CE1 CT2 CT3
    HAL1     CTL1     CEL3     CEL3     9     0.000000     0.125520     3 ; prot22;for butene, yin/adm jr., 12/95; CE1 CE1 CT3 HA
    HAL1     CTO1     CEL3     CEL3     9     0.000000     0.125520     3 ; prot22;for butene, yin/adm jr., 12/95; CE1 CE1 CT3 HA
    CTL1     CTL1     CEL3     HEL1     9     0.000000     0.502080     3 ; lip36; butene, yin, adm. jr; CTL2 CTL2 CEL1 HEL1
    HAL1     CTL3     CTO1     CEL3     9     0.000000     0.836800     3 ; lip36; alkane, 3/92; X CTL1 CTL3 X
    CTL2     CTL1     CTO1     HAL1     9     0.000000     0.836800     3 ; lip36; alkane, 3/92; X CTL1 CTL3 X
    CTL1     CTO1     CEL3     HEL1     9     0.000000     0.502080     3 ; lip36  butene, yin, adm. jr; CTL2 CTL2 CEL1 HEL1
    HAL1     CTL1     CTO1     CEL3     9     0.000000     0.836800     3 ; lip36; alkane, 3/92: X CTL1 CTL3 X
    CTO1     CEL3     CEL3     HEL1     9   180.000000     0.627600     1 ; lip36; 2-butene, adm jr., 2/00 update; X CEL1 CEL1 X
    CTO1     CEL3     CEL3     HEL1     9   180.000000    35.564000     2 ; lip36; 2-butene, adm jr., 2/00 update; X CEL1 CEL1 X
    CEL3     CEL3     CTL2     HAL2     9   180.000000     1.255200     3 ; lip36; 2-butene, adm jr., 4/04; CEL1 CEL1 CTL2 HAL2
    HEL1     CEL3     CEL3     CTL2     9   180.000000     0.627600     1 ; lip36; 2-butene, adm jr., 2/00 update; X CEL1 CEL1 X
    HEL1     CEL3     CEL3     CTL2     9   180.000000    35.564000     2 ; lip36; 2-butene, adm jr., 2/00 update; X CEL1 CEL1 X
    HEL1     CEL3     CTL2     CTL3     9     0.000000     0.502080     3 ; lip36; butene, yin,adm jr., 12/95; HEL1 CEL1 CTL2 CTL3
    HEL1     CEL3     CTL1     HAL1     9     0.000000     0.000000     3 ; prot22; butene, adm jr., 2/00 update; HE1 CE1 CT2 HA
    HEL1     CEL3     CTO1     HAL1     9     0.000000     0.000000     3 ; prot22; butene, adm jr., 2/00 update; HE1 CE1 CT2 HA
    HAL3     CTL3     CTO1     HAL1     9     0.000000     0.836800     3 ; lip36; alkane, 3/92; X CTL1 CTL3 X
    HAL1     CTL1     CTO1     HAL1     9     0.000000     0.836800     3 ; lip36; alkane, 3/92; X CTL1 CTL1 X
    HEL1     CEL3     CEL3     HEL1     9   180.000000     4.184000     2 ; lip36; 2-butene, adm jr., 8/98 update; HEL1 CEL1 CEL1 HEL1
    HEL1     CEL3     CTL2     HAL2     9     0.000000     0.000000     3 ; lip36; butene, adm jr., 2/00 update; HEL1 CEL1 CTL2 HAL2
     OHL     CTL1     CEL3     HEL1     9   180.000000     0.502080     3 ; lip36; butene, yin, adm jr., 12/95; HEL1 CEL1 CTL1 CTL3
     OHL     CTO1     CEL3     HEL1     9   180.000000     0.502080     3 ; lip36; butene, yin, adm jr., 12/95; HEL1 CEL1 CTL1 CTL3
     OSL     CTO1     CEL3     HEL1     9   180.000000     0.502080     3 ; lip36; butene, yin, adm jr., 12/95; HEL1 CEL1 CTL1 CTL3 rmv nov 2009
       O        C     CTL2     HAL2     9   180.000000     0.000000     3 ; prot22; adm jr., 8/13/90 acetamide geometry and vibrations; O C CT2 HA
       O        C     CTL3     HAL3     9   180.000000     0.000000     3 ; prot22; adm jr., 8/13/90 acetamide geometry and vibrations; O C CT3 HA
    HAL3     CTL3     CTO1      OHL     9     0.000000     0.836800     3 ; lip36; alkane, 3/92; X CTL1 CTL3 X
    HAL1     CTL1     CTO1      OHL     9     0.000000     0.836800     3 ; lip36; alkane, 3/92; X CTL1 CTL1 X
    HAL1     CTL1     CTO1      OSL     9     0.000000     0.836800     3 ; lip36; alkane, 3/92; X CTL1 CTL1 X; rmv nov 2009
     NHL     CTL1     CTL1     CTL3     9   180.000000     1.087840     1 ; torsfit MP2/ccpVTZ, cer3 model, erh 8/09
     NHL     CTL1     CTL1     CTL3     9   180.000000     1.631760     2 ; ""
     NHL     CTL1     CTL1     CTL3     9   180.000000     0.502080     3 ; ""
     NHL        C     CTL2     HAL2     9     0.000000     0.000000     3 ; prot22; LK for autogenerate dihe, sp2-methyl, no dihedral potential; NH1 C CT2 HA
     NHL        C     CTL3     HAL3     9     0.000000     0.000000     3 ; prot22; LK for autogenerate dihe, sp2-methyl, no dihedral potential; NH1 C CT3 HA
     NHL     CTL1     CTO1     HAL1     9     0.000000     0.836800     3 ; lip36; alkane, 3/92; X CTL1 CTL1 X
    HAL3     CTL3      NHL        H     9     0.000000     0.000000     3 ; prot22; LK for autogenerate dihe, sp2-methyl, no dihedral potential;  HA CT3 NH1 H
    HAL1     CTL1      NHL        H     9     0.000000     0.000000     1 ; prot22; Alanine Dipeptide ab initio calc's (LK); HB CT1 NH1 H
       H      NHL        C        O     9     0.000000     2.217520     1 ; fit to cern QM profile, jbk 10/12
       H      NHL        C        O     9   180.000000     5.313680     2 ; fit to cern QM profile, jbk 10/12
       H      NHL        C        O     9     0.000000     0.585760     3 ; fit to cern QM profile, jbk 10/12
       H      NHL        C        O     9     0.000000     3.263520     4 ; fit to cern QM profile, jbk 10/12
       H      NHL        C     CTL2     9   180.000000    10.460000     2 ; prot22;,Gives appropriate NMA cis/trans barrier. (LK); H NH1 C CT2
       H      NHL     CTL1     CTL2     9     0.000000     0.000000     1 ; prot22; Alanine Dipeptide ab initio calc's (LK); H NH1 CT1 CT2
       H      NHL     CTL1     CTL1     9     0.000000     0.000000     1 ; prot22; Alanine Dipeptide ab initio calc's (LK); H NH1 CT1 CT1
       H      NHL        C     CTL3     9   180.000000    10.460000     2 ; prot22; Gives appropriate NMA cis/trans barrier. (LK); H NH1 C CT3
       H      NHL     CTL1     CTL3     9   180.000000    10.460000     2 ; prot22;
       H      NHL     CTL1     CTO1     9     0.000000     0.000000     1 ; prot22; Alanine Dipeptide ab initio calc's (LK); H NH1 CT1 CT1
       O        C      NHL     CTL3     9   180.000000    10.460000     2 ; prot22; Gives appropriate NMA cis/trans barrier. (LK); O C NH1 CT3
       O        C      NHL     CTL1     9   180.000000    10.460000     2 ; prot22; Gives appropriate NMA cis/trans barrier. (LK); O  C NH1 CT1
    CTL1      NHL        C     CTL2     9     0.000000     0.000000     1 ; set to zero in fits
    CTL1      NHL        C     CTL3     9     0.000000     0.000000     1 ; set to zero in fits
    CTL2        C      NHL     CTL3     9     0.000000     6.694400     1 ; prot22; from CT2  C    NH1  CT2, adm jr. 10/21/96; CT2 C NH1 CT3
    CTL3        C      NHL     CTL3     9     0.000000     6.694400     1 ; prot22; from CT2  C    NH1  CT2, adm jr. 10/21/96; CT2 C NH1 CT3
    CTL1     CTL1      NHL        C     9     0.000000     0.000000     1 ; set to zero in fit
    CTL2     CTL1      NHL        C     9     0.000000     0.000000     1 ; set to zero in fit
    CTL3     CTL1      NHL        C     9     0.000000     0.000000     1 ; set to zero in fit
       C      NHL     CTL1     CTO1     9     0.000000    17.070720     1 ; torsion fit to cer6 qm, jbk 10/12
       C      NHL     CTL1     CTO1     9   180.000000     6.527040     2 ; torsion fit to cer6 qm, jbk 10/12
       C      NHL     CTL1     CTO1     9     0.000000     7.531200     3 ; torsion fit to cer6 qm, jbk 10/12
    CTL1     CTO1      OHL      HOL     9   180.000000    20.920000     1 ; torsion fit to cer6 qm, jbk 10/12
    CTL1     CTO1      OHL      HOL     9     0.000000     0.920480     2 ; torsion fit to cer6 qm, jbk 10/12
    CTL1     CTO1      OHL      HOL     9   180.000000     4.644240     3 ; torsion fit to cer6 qm, jbk 10/12
     HOL      OHL     CTL1     CEL3     9     0.000000     5.564720     1 ; prot22; 2-propanol OH hf/6-31g* torsional surface, adm jr., 3/2/93; H OH1 CT1 CT1
     HOL      OHL     CTO1     CEL3     9     0.000000     5.564720     1 ; prot22; 2-propanol OH hf/6-31g* torsional surface, adm jr., 3/2/93; H OH1 CT1 CT1
     HOL      OHL     CTO1     CTL3     9     0.000000     0.000000     3 ; torsion fit to cer6 qm, jbk 9/12
    HAL3     CTL3      NHL        C     9     0.000000     0.000000     3 ; prot22; LK for autogenerate dihe, sp2-methyl, no dihedral potential; HA CT3 NH1 C
    HAL1     CTL1      NHL        C     9     0.000000     0.000000     1 ; prot22; Alanine Dipeptide ab initio calc's (LK); HB CT1 NH1 C
     NHL     CTL1     CTL2      OSL     9   180.000000     6.819920     1 ; torsfit MP2/ccpVTZ, cer3 model, erh 8/09; transferred
     NHL     CTL1     CTL2      OSL     9     0.000000     2.050160     2 ; ""
     NHL     CTL1     CTL2      OSL     9     0.000000     2.384880     3 ; ""
     NHL     CTL1     CTO1      OSL     9   180.000000     6.819920     1 ; torsfit MP2/ccpVTZ, cer3 model, erh 8/09; transferred
     NHL     CTL1     CTO1      OSL     9     0.000000     2.050160     2 ; ""         analogy for TACSPH, rmv nov 2009
     NHL     CTL1     CTO1      OSL     9     0.000000     2.384880     3 ; ""
     OSL       PL      OSL     CTL2     9   180.000000     5.020800     1 ; lip36; phosphate, new NA, 4/98, adm jr.
     OSL       PL      OSL     CTL2     9   180.000000     0.418400     2 ; lip36; phosphate, new NA, 4/98, adm jr.
     OSL       PL      OSL     CTL2     9   180.000000     0.418400     3 ; lip36; phosphate, new NA, 4/98, adm jr.
    CEL3     CTO1     CTL1      NHL     9     0.000000     3.932960     1 ; torfit to cer4 qm, jbk 5/13
    CEL3     CTO1     CTL1      NHL     9   180.000000     3.681920     2 ; torfit to cer4 qm, jbk 5/13
    CEL3     CTO1     CTL1      NHL     9     0.000000     8.744560     3 ; torfit to cer4 qm, jbk 5/13
     NHL     CTL1     CTO1      OHL     9     0.000000     1.757280     1 ; torfit to cer4 qm, jbk 5/13
     NHL     CTL1     CTO1      OHL     9   180.000000     6.401520     2 ; torfit to cer4 qm, jbk 5/13
     NHL     CTL1     CTO1      OHL     9   180.000000     6.610720     3 ; torfit to cer4 qm, jbk 5/13
    CEL3     CTO1     CTL1     CTL2     9     0.000000     0.000000     1 ; torfit to cer4 qm, jbk 10/12
    CEL3     CEL3     CTO1     CTL1     9     0.000000     3.598240     1 ; torfit to cer4 qm w/adj, jbk 5/13
    CEL3     CEL3     CTO1     CTL1     9     0.000000     7.991440     2 ; torfit to cer4 qm w/adj, jbk 5/13
    CEL3     CEL3     CTO1     CTL1     9   180.000000     6.359680     3 ; torfit to cer4 qm w/adj, jbk 5/13
    CEL3     CEL3     CTO1      OHL     9   180.000000     5.773920     1 ; torfit to cer4 qm w/adj, jbk 5/13
    CEL3     CEL3     CTO1      OHL     9     0.000000     2.426720     2 ; torfit to cer4 qm w/adj, jbk 5/13
    CEL3     CEL3     CTO1      OHL     9     0.000000     4.309520     3 ; torfit to cer4 qm w/adj, jbk 5/13
     NHL     CTL1     CTL2     OSLP     9     0.000000     5.732080     1 ; torfit to cer3 qm, jbk 5/13
     NHL     CTL1     CTL2     OSLP     9     0.000000     1.422560     2 ; torfit to cer3 qm, jbk 5/13
     NHL     CTL1     CTL2     OSLP     9   180.000000     0.836800     3 ; torfit to cer3 qm, jbk 5/13
     NHL     CTL1     CTL2     OSLP     9   180.000000     0.083680     4 ; torfit to cer3 qm, jbk 5/13
     NHL     CTL1     CTL2     OSLP     9     0.000000     0.585760     5 ; torfit to cer3 qm, jbk 5/13
     NHL     CTL1     CTL2     OSLP     9     0.000000     0.251040     6 ; torfit to cer3 qm, jbk 5/13
    CTL1     CTL1     CTL2     OSLP     9     0.000000     0.000000     1 ; torfit to cer3 qm, jbk 5/13
    CTL3     CTL2        C      NHL     9     0.000000     8.326160     1 ; torfit to cer2 qm, jbk 10/12
    CTL3     CTL2        C      NHL     9   180.000000     2.677760     2 ; torfit to cer2 qm, jbk 10/12
    CTL3     CTL2        C      NHL     9   180.000000     1.171520     3 ; torfit to cer2 qm, jbk 10/12
    CTL2     CTL2        C      NHL     9     0.000000     8.326160     1 ; torfit to cer2 qm, jbk 10/12
    CTL2     CTL2        C      NHL     9   180.000000     2.677760     2 ; torfit to cer2 qm, jbk 10/12
    CTL2     CTL2        C      NHL     9   180.000000     1.171520     3 ; torfit to cer2 qm, jbk 10/12
     NHL     CTL1     CTO2      OHL     9     0.000000     2.301200     1 ; jbk; NHL CTL1 CTO1 OHL
     NHL     CTL1     CTO2      OHL     9   180.000000     6.819920     2 ; jbk; NHL CTL1 CTO1 OHL
     NHL     CTL1     CTO2      OHL     9   180.000000     5.983120     3 ; jbk; NHL CTL1 CTO1 OHL
       C      NHL     CTL1     CTO2     9     0.000000    17.070720     1 ; jbk; C   NHL CTL1 CTO1
       C      NHL     CTL1     CTO2     9   180.000000     6.527040     2 ; jbk; C   NHL CTL1 CTO1
       C      NHL     CTL1     CTO2     9     0.000000     7.531200     3 ; jbk; C   NHL CTL1 CTO1
    CTO2     CTL1     CTO1      OHL     9     0.000000     0.836800     3 ; lip36; alkane, 3/92, X CTL1 CTL1 X
       H      NHL     CTL1     CTO2     9     0.000000     0.000000     1 ; prot22; Alanine Dipeptide ab initio calc's (LK); H NH1 CT1 CT2
    CEL3     CTO1     CTL1     CTO2     9     0.000000     0.000000     1 ; torfit to cer4 qm, jbk 10/12
     NHL        C     CTL1     HAL1     9     0.000000     0.000000     1 ; from NG2S1  CG2O1  CG311  HGA1   0.0000  1   0.00
     NHL        C     CTL1      OH1     9     0.000000     0.000000     1 ; from NG2S1  CG2O1  CG311  CG311  0.0000  1   0.00
     NHL        C     CTL1     CEL3     9     0.000000     0.000000     1 ; from NG2S1  CG2O1  CG311  CG311  0.0000  1   0.00
       H      NHL        C     CTL1     9   180.000000    10.460000     2 ; CG311  CG2O1  NG2S1  HGP1       2.5000  2   180.00
    CTL1      NHL        C     CTL1     9     0.000000     6.694400     1 ; CG311  CG2O1  NG2S1  CG311      1.6000  1     0.00
    CTL1      NHL        C     CTL1     9   180.000000    10.460000     2 ; CG311  CG2O1  NG2S1  CG311      2.5000  2   180.00
    CTL2     CEL3     CEL3     CTL3     9   180.000000     1.882800     1 ; CG321  CG2D1  CG2D1  CG331      0.4500  1   180.00
    CTL2     CEL3     CEL3     CTL3     9   180.000000    35.564000     2 ; CG321  CG2D1  CG2D1  CG331      8.5000  2   180.00
    CTL2     CEL3     CEL3     CTL2     9   180.000000     1.882800     1 ; CG321  CG2D1  CG2D1  CG321      0.4500  1   180.00
    CTL2     CEL3     CEL3     CTL2     9   180.000000    35.564000     2 ; CG321  CG2D1  CG2D1  CG321      8.5000  2   180.00
    CEL3     CEL3     CTL3     HAL3     9   180.000000     1.255200     3 ; CG2D1  CG2D1  CG331  HGA3       0.3000  3   180.00
    HEL1     CEL3     CEL3     CTL3     9     0.000000     4.184000     2 ; CG331  CG2D1  CG2D1  HGA4       1.0000  2   180.00,trans-double bond
    CTL3     CEL3     CTL2     HAL2     9     0.000000     7.949600     3 ; CG331  CG2D1  CG321  HGA2       0.1900  3     0.00
    CTL3     CEL3     CTL2     CTL2     9     0.000000     7.949600     3 ; CG331  CG2D1  CG321  CG321      0.1900  3     0.00
    HAL3     CTL3     CEL3     CTL2     9     0.000000     6.694400     3 ; CG321  CG2D1  CG331  HGA3       0.1600  3     0.00
       C     CTL1      OH1        H     9     0.000000     1.464400     1 ; CL CTL1 OH1 H
       C     CTL1      OH1        H     9     0.000000     1.548080     2 ; CL CTL1 OH1 H
       C     CTL1      OH1        H     9   180.000000     0.794960     3 ; CL CTL1 OH1 H
       C     CTL1     CEL3     HEL1     9     0.000000     0.000000     3 ; HGA4   CG2D1  CG321  CG311      0.0000  3     0.00
       C     CTL1     CEL3     CEL3     9   180.000000     2.092000     1 ; CG2D1  CG2D1  CG321  CG311      0.5000  1   180.00, correct by adm 2020/7
       C     CTL1     CEL3     CEL3     9   180.000000     5.439200     3 ; CG2D1  CG2D1  CG321  CG311      1.3000  3   180.00
       O        C     CTL1     HAL1     9     0.000000     0.000000     1 ; OG2D1  CG2O1  CG311  HGA1       0.0000  1     0.00
       O        C     CTL1      OH1     9     0.000000     5.857600     1 ; OG2D1  CG2O1  CG311  CG311      1.4000  1     0.00,cannot find close analog
       O        C     CTL1     CEL3     9     0.000000     5.857600     1 ; OG2D1  CG2O1  CG311  CG311      1.4000  1     0.00,cannot find close analog
    CTL1     CEL3     CEL3     HEL1     9     0.000000     4.184000     2 ; CG321  CG2D1  CG2D1  HGA4       1.0000  2   180.00,trans-double bond
     OH1     CTL1     CEL3     HEL1     9     0.000000     0.836800     3 ; HGA4   CG2D1  CG321  OG311      0.2000  3     0.00
     OH1     CTL1     CEL3     CEL3     9   180.000000     2.092000     1 ; CG2D1  CG2D1  CG321  CG311      0.5000  1   180.00,cannot find close analog
     OH1     CTL1     CEL3     CEL3     9   180.000000     5.439200     3 ; CG2D1  CG2D1  CG321  CG311      1.3000  3   180.00,cannot find close analog
       H      OH1     CTL1     CEL3     9     0.000000     5.439200     1 ; CG2D1  CG321  OG311  HGP1       1.3000  1     0.00
       H      OH1     CTL1     CEL3     9     0.000000     2.928800     2 ; CG2D1  CG321  OG311  HGP1       0.7000  2     0.00
       H      OH1     CTL1     CEL3     9     0.000000     0.585760     3 ; CG2D1  CG321  OG311  HGP1       0.1400  3     0.00

; specific (non-wildcard) dihedral parameters from toppar_c36_jul22/stream/misc/toppar_ions_won.str
;      i        j        k        l  func         phi0         kphi  mult

; specific (non-wildcard) dihedral parameters from toppar_c36_jul22/stream/na/toppar_all36_na_modifications.str
;      i        j        k        l  func         phi0         kphi  mult
     CN5      CN5     NN3I      CN4     9   180.000000    25.104000     2 ; 
    NN2G      CN4     NN3I      CN5     9   180.000000    25.104000     2 ; 
    NN3I      CN4     NN2G      HN2     9   180.000000     6.276000     2 ; 
    NN3I      CN4     NN2G      CN1     9   180.000000     6.276000     2 ; 
     HN3      CN4     NN2G      HN2     9   180.000000     6.276000     2 ; 
     HN3      CN4     NN2G      CN1     9   180.000000     6.276000     2 ; 
     NN2      CN3     CN3D      CN2     9   180.000000    12.552000     2 ; 5mc, adm jr. 9/9/93
     CN3     CN3D      CN2      NN3     9   180.000000     4.184000     2 ; 5mc, adm jr. 9/9/93
    CN3D      CN2      NN3      CN1     9   180.000000    41.840000     2 ; 5mc, adm jr. 9/9/93
    CN3D      CN3      NN2      CN1     9   180.000000     4.184000     2 ; 5mc, adm jr. 9/9/93
    CN3D      CN2      NN1      HN1     9   180.000000     8.368000     2 ; 5mc, adm jr. 9/9/93
     NN1      CN2     CN3D      CN3     9   180.000000     0.000000     2 ; 5mc, adm jr. 9/9/93
     NN1      CN2     CN3D      CN9     9   180.000000     0.000000     2 ; 5mc, adm jr. 9/9/93
     NN2      CN3     CN3D      CN9     9   180.000000    16.736000     2 ; 5mc, adm jr. 9/9/93
     NN3      CN2     CN3D      CN9     9   180.000000     0.000000     2 ; 5mc, adm jr. 9/9/93
     CN3     CN3D      CN9      HN9     9     0.000000     0.000000     3 ; 5mc, adm jr. 9/9/93
     CN2     CN3D      CN9      HN9     9     0.000000     1.464400     3 ; 5mc, adm jr. 9/9/93
     CN2     CN3D      CN3      HN3     9   180.000000    16.736000     2 ; 5mc, adm jr. 9/9/93
     CN9     CN3D      CN3      HN3     9   180.000000    16.736000     2 ; 5mc, adm jr. 9/9/93
     ON5      CN1     NN3G      CN2     9   180.000000     4.184000     2 ; to o6
    CN5G      CN1     NN3G      CN2     9   180.000000     8.368000     2 ; ring
     CN1     NN3G      CN2     NN3G     9   180.000000     8.368000     2 ; ring
    NN3G      CN1     CN5G      CN5     9   180.000000    33.472000     2 ; ring
    NN3G      CN2     NN3G      CN5     9   180.000000     8.368000     2 ; ring
    NN3G      CN1     CN5G      NN4     9   180.000000    20.920000     2 ; bfly
    NN3G      CN1      ON5      HN5     9   180.000000     6.276000     2 ; to h6
    CN5G      CN1      ON5      HN5     9   180.000000     7.531200     2 ; to h6
     HN1     NN1C      CN2      CN3     9   180.000000    33.472000     2 ; 
     HN1     NN1C      CN2     NN2C     9     0.000000     2.928800     1 ; 
     HN1     NN1C      CN2     NN2C     9   180.000000    25.104000     2 ; 
    NN1C      CN2     NN2C      CN1     9   180.000000     4.184000     2 ; to N4
     CN3      CN2     NN2C      CN1     9   180.000000     2.092000     2 ; ring
     NN2      CN1     NN2C      CN2     9   180.000000     2.092000     2 ; ring
     NN2      CN1     NN2C      HN2     9   180.000000    13.807200     2 ; h3
     HN2     NN2C      CN1     ON1C     9   180.000000     0.000000     2 ; h3
     HN2     NN2C      CN2     NN1C     9   180.000000     0.000000     2 ; h3
     HN2     NN2C      CN2      CN3     9   180.000000    13.807200     2 ; h3
    ON1C      CN1     NN2C      CN2     9   180.000000     6.694400     2 ; to O2
    CN5G      CN1     NN2G      CN8     9   180.000000     8.368000     2 ; to C1A
     ON1      CN1     NN2G      CN8     9   180.000000     8.368000     2 ; to C1A
     CN2     NN2G      CN8      CN9     9     0.000000     6.276000     1 ; to C1B
     CN2     NN2G      CN8      CN9     9     0.000000     4.184000     2 ; to C1B
     CN2     NN2G      CN8      CN9     9   180.000000     0.836800     3 ; to C1B
     CN2     NN2G      CN8      HN8     9     0.000000     0.627600     3 ; alkanes
    NN2G      CN8      CN9      HN9     9     0.000000     0.627600     3 ; alkanes
     NN2      CN1      NN3      CN8     9   180.000000     8.368000     2 ; to C3A
     CN8      NN3      CN1     ON1C     9   180.000000     8.368000     2 ; to C3A
     CN8      NN3      CN2      NN1     9   180.000000     8.368000     2 ; to C3A
     CN8      NN3      CN2      CN3     9   180.000000     8.368000     2 ; to C3A
     CN2      NN3      CN8      CN9     9     0.000000     8.368000     1 ; to C3B
     CN2      NN3      CN8      CN9     9     0.000000     1.255200     3 ; to C3B
     CN1      NN3      CN8      CN9     9   180.000000     2.092000     3 ; to C3B
     CN2      NN3      CN8      HN8     9     0.000000     0.627600     3 ; alkanes
     CN1      NN3      CN8      HN8     9     0.000000     0.627600     3 ; alkanes
     NN3      CN8      CN9      HN9     9     0.000000     0.627600     3 ; alkanes
     CN2     NN2G      CN8      CN8     9     0.000000     4.184000     2 ; to C1B
     CN2     NN2G      CN8      CN8     9   180.000000     0.836800     3 ; to C1B
     CN2      NN3      CN8      CN8     9     0.000000     8.368000     1 ; to C3B
     CN2      NN3      CN8      CN8     9     0.000000     1.255200     3 ; to C3B
     CN1      NN3      CN8      CN8     9   180.000000     2.092000     3 ; to C3B
    NN2G      CN8      CN8      NN3     9     0.000000     0.627600     3 ; alkanes
    NN2G      CN8      CN8      HN8     9     0.000000     0.627600     3 ; alkanes
     NN3      CN8      CN8      HN8     9     0.000000     0.627600     3 ; alkanes
     CNA      CNA      CNA      CNA     9   180.000000    12.970400     2 ; JES 8/25/89
    CNA2      CNA      CNA      CNA     9   180.000000    12.970400     2 ; dft, adm jr.
    CNA2      CNA     CNA2      CNA     9   180.000000    12.970400     2 ; dft, adm jr.
     CNA     CNA2      CNA      CNA     9   180.000000    12.970400     2 ; dft, adm jr.
     CNA     CN7B      CN7      CN7     9     0.000000     0.167360     3 ; 2.7 kcal/mole CH3 rot in ethylbenzene, adm jr, 3/7/92
     HN7     CN7B      CNA      CNA     9   180.000000     0.418400     6 ; 2.7 kcal/mole CH3 rot in ethylbenzene, adm jr, 3/7/92
     HN8      CN8     CN7B      CNA     9     0.000000     0.000000     3 ; from HN8 CN8 CN7B NN2
     HN7     CN7B      CNA     CNA2     9   180.000000     0.418400     6 ; dft, adm jr.
     HN9      CN9      CNA      CNA     9   180.000000     0.418400     6 ; 2.7 kcal/mole CH3 rot in ethylbenzene, adm jr, 3/7/92
     HN9      CN9      CNA     CNA2     9   180.000000     0.418400     6 ; dft, adm jr.
     CN7     CN7B      CNA      CNA     9   180.000000     0.962320     2 ; ethylbenzene ethyl rotation, adm jr. 3/7/92
     CN8     CN7B      CNA      CNA     9   180.000000     0.962320     2 ; ethylbenzene ethyl rotation, adm jr. 3/7/92
     CN8     CN7B      CNA     CNA2     9   180.000000     0.962320     2 ; ethylbenzene ethyl rotation, adm jr. 3/7/92
    CN7B      CNA     CNA2      CNA     9   180.000000    12.970400     2 ; JES 8/25/89 toluene and ethylbenzene
    CN7B      CNA      CNA      CNA     9   180.000000    12.970400     2 ; JES 8/25/89 toluene and ethylbenzene
     CN9      CNA      CNA      CNA     9   180.000000    12.970400     2 ; JES 8/25/89 toluene and ethylbenzene
     CN9      CNA     CNA2      CNA     9   180.000000    12.970400     2 ; dft, adm jr.
     HN7      CN7     CN7B      CNA     9     0.000000     0.167360     3 ; ethylbenzene ethyl rotation, adm jr. 3/7/92
     HNP      CNA      CNA      CNA     9   180.000000    17.572800     2 ; JES 8/25/89 benzene
     HNP      CNA     CNA2      CNA     9   180.000000    17.572800     2 ; dft, adm jr.
     HN3      CNA     CNA2      CNA     9   180.000000    17.572800     2 ; dft, adm jr.
     HNP      CNA      CNA     CNA2     9   180.000000    17.572800     2 ; dft, adm jr.
     HNP      CNA      CNA      CN9     9   180.000000    17.572800     2 ; JES 8/25/89 toluene and ethylbenzene
     HNP      CNA      CNA     CN7B     9   180.000000    17.572800     2 ; JES 8/25/89 toluene and ethylbenzene
     HNP      CNA      CNA      HNP     9   180.000000    10.041600     2 ; JES 8/25/89 benzene
     HNP      CNA     CNA2      FNA     9   180.000000    10.041600     2 ; dft, adm jr.
     HN3      CNA     CNA2      FNA     9   180.000000    10.041600     2 ; dft, adm jr.
     FNA     CNA2      CNA      CNA     9   180.000000    18.828000     2 ; dft, adm jr.
     FNA     CNA2      CNA     CNA2     9   180.000000    18.828000     2 ; dft, adm jr.
     FNA     CNA2      CNA      CN9     9   180.000000    18.828000     2 ; dft, adm jr.
     FNA     CNA2      CNA     CN7B     9   180.000000    18.828000     2 ; dft, adm jr.
     ON6     CN7B      CNA      CNA     9     0.000000     0.000000     3 ; from ON6 CN7B NN2 CN3C
     ON6     CN7B      CNA     CNA2     9     0.000000     0.000000     3 ; from ON6 CN7B NN2 CN3C
     CN7      ON6     CN7B      CNA     9     0.000000     0.000000     3 ; from CN7 ON6  CN7B NN2
     CN7      CN8     CN7B      CNA     9     0.000000     0.000000     3 ; from CN8 CN8 CN7B NR1
     ON1      CN1     CN3T     CNE1     9   180.000000    25.104000     2 ; 
     HN3      CN3     CN3T     CNE1     9   180.000000    12.552000     2 ; 
     CN1     CN3T     CNE1     HNE1     9   180.000000     4.184000     2 ; 
     CN3     CN3T     CNE1     HNE1     9   180.000000     4.184000     2 ; 
    CNE2     CNE1     CN3T      CN3     9     0.000000     3.556400     1 ; to c5a
    CNE2     CNE1     CN3T      CN3     9   180.000000     2.092000     2 ; to c5a
    CNE2     CNE1     CN3T      CN1     9   180.000000     2.092000     2 ; to c5a
    CNE2     CNE1     CN3T      CN1     9   180.000000     4.602400     3 ; to c5a
    HNE2     CNE2     CNE1     HNE1     9   180.000000    21.756800     2 ; 
    HNE2     CNE2     CNE1     CN3T     9   180.000000    21.756800     2 ; 
    ON1C      CN1     NN2G      HN2     9   180.000000    10.460000     2 ; 
     NN2      CN1     NN2G      HN2     9   180.000000    15.899200     2 ; 
     CN3      CN2     NN2G      HN2     9   180.000000    20.083200     2 ; 
     CN3     CN3D      CN2     NN2G     9   180.000000     8.368000     2 ; 
    NN2G      CN2     CN3D      CN9     9   180.000000     7.531200     2 ; 
     HN1      NN1      CN8      HN8     9   180.000000     0.083680     2 ; 
     HN1      NN1      CN8      CN9     9     0.000000     0.209200     1 ; 
     CN2      NN1      CN8      HN8     9     0.000000     0.376560     3 ; 
     CN2      NN1      CN8      CN9     9   180.000000     2.217520     1 ; 
     CN2      NN1      CN8      CN9     9     0.000000     3.347200     2 ; 
     CN2      NN1      CN8      CN9     9     0.000000     0.376560     3 ; 
     NN3      CN2      NN1      CN8     9   180.000000     6.066800     2 ; NN3  CN2  NN1  HN1
     CN3      CN2      NN1      CN8     9   180.000000     9.414000     2 ; CN3  CN2  NN1  HN1
     CN3      CN2      NN1      CN8     9     0.000000     5.439200     3 ; CN3  CN2  NN1  HN1
    CN3D      CN2      NN1      CN8     9   180.000000     9.414000     2 ; CN3  CN2  NN1  HN1
    CN3D      CN2      NN1      CN8     9     0.000000     5.439200     3 ; CN3  CN2  NN1  HN1
     NN1      CN8      CN9      HN9     9     0.000000     4.184000     1 ; 
     NN4      CN4      NN1      CN3     9     0.000000     0.962320     1 ; RETINOL PACP ! OG2D1  CG2O1  NG2S1  CG2R61
     NN4      CN4      NN1      CN3     9   180.000000     2.928800     2 ; RETINOL PACP ! OG2D1  CG2O1  NG2S1  CG2R61
    NN2B      CN4      NN1      CN3     9     0.000000     2.092000     1 ; 
    NN2B      CN4      NN1      CN3     9   180.000000     2.928800     2 ; RETINOL PACP ! CG331  CG2O1  NG2S1  CG2R61
    NN2B      CN4      NN1      CN3     9     0.000000     1.882800     3 ; RETINOL PACP ! CG331  CG2O1  NG2S1  CG2R61
    NN2B      CN4      NN1      HN2     9   180.000000     1.673600     2 ; 
     NN4      CN4      NN1      HN2     9     0.000000     1.715440     3 ; 
     CN4      NN1      CN3      CN3     9   180.000000     3.765600     2 ; RETINOL PACP ! CG2R61 CG2R61 NG2S1  CG2O1
     CN4      NN1      CN3      CN3     9     0.000000     3.138000     3 ; RETINOL PACP ! CG2R61 CG2R61 NG2S1  CG2O1
     HN2      NN1      CN3      CN3     9   180.000000     1.046000     2 ; RETINOL PACP ! CG2R61 CG2R61 NG2S1  HGP1
     HN2      NN1      CN3      CN3     9     0.000000     0.209200     3 ; RETINOL PACP ! CG2R61 CG2R61 NG2S1  HGP1
     HN1      NN1      CN8      CN8     9     0.000000     0.209200     1 ; H    NH1  CT2  CT2      0.0000  1     0.00 ! ALLOW PEP
     CN2      NN1      CN8      CN8     9   180.000000     2.217520     1 ; 
     CN2      NN1      CN8      CN8     9     0.000000     3.347200     2 ; 
     CN2      NN1      CN8      CN8     9     0.000000     0.292880     3 ; 
     NN1      CN8      CN8      HN8     9   180.000000     4.184000     2 ; 
     CN8      CN8      NNG      CNG     9     0.000000     0.418400     3 ; CG321  CG321  NG2D1  CG2D1
     CN8      CN8      NNG      HN1     9   180.000000     0.000000     6 ; X    CT2  NC2  X        0.0000  6   180.00 ! ALLOW   ALI POL
     HN8      CN8      NNG      CNG     9   180.000000     0.000000     6 ; X    CT2  NC2  X        0.0000  6   180.00 ! ALLOW   ALI POL
     CN8      NNG      CNG      NNG     9   180.000000     9.414000     2 ; NG2P1  CG2N1  NG2P1  CG334/CG324 MGUA
     HN8      CN8      NNG      HN1     9     0.000000     0.794960     3 ; CN1  NN2  CN9  HN9 ??
     NNG      CNG      NNG      HN1     9   180.000000     9.414000     2 ; NG2P1  CG2N1  NG2P1  HGP2    MGUA
       P      NN1      CN7      HN7     9     0.000000     0.627600     3 ; DMP, ADM Jr. (P ON2 CN7 HN7)
       P      NN1     CN8B      HN8     9     0.000000     0.627600     3 ; DMP, ADM Jr. (P ON2 CN7 HN7)
     NN1        P      ON2      CN7     9     0.000000     1.673600     1 ; 
     NN1        P      ON2      CN7     9    50.000000     1.673600     2 ; 
     NN1        P      ON2      CN7     9     0.000000     1.464400     3 ; 
     NN1        P      ON2     CN8B     9     0.000000     1.673600     1 ; 
     NN1        P      ON2     CN8B     9    50.000000     1.673600     2 ; 
     NN1        P      ON2     CN8B     9     0.000000     1.464400     3 ; 
     ON3        P      NN1      CN7     9     0.000000     1.673600     3 ; 
     ON3        P      NN1      CN7     9   120.000000     3.347200     2 ; 
     ON3        P      NN1      CN7     9     0.000000     2.092000     4 ; 
     ON2        P      NN1      CN7     9     0.000000     6.276000     2 ; 
     ON3        P      NN1     CN8B     9     0.000000     1.673600     3 ; for 5' phosphoramidate
     ON3        P      NN1     CN8B     9   120.000000     3.347200     2 ; for 5' phosphoramidate
     ON3        P      NN1     CN8B     9     0.000000     2.092000     4 ; for 5' phosphoramidate
     ON2        P      NN1     CN8B     9     0.000000     6.276000     2 ; for 5' phosphoramidate
     HN2      NN1      CN7      HN7     9     0.000000     0.041840     3 ; 
     HN2      NN1     CN8B      HN8     9     0.000000     0.041840     3 ; 
     HN2      NN1        P      ON2     9     0.000000     0.209200     3 ; 
     HN2      NN1        P      ON3     9     0.000000     0.209200     3 ; 
     HN2      NN1      CN7      CN7     9     0.000000     1.255200     1 ; tphc
     HN2      NN1      CN7     CN7B     9     0.000000     1.255200     1 ; tphc
     HN2      NN1      CN7      CN8     9     0.000000     1.255200     1 ; tphc
     HN7      CN7      CN7      NN1     9     0.000000     0.815880     3 ; tphc
     HN7     CN7B      CN7      NN1     9     0.000000     0.815880     3 ; tphc
     HN8      CN8      CN7      NN1     9     0.000000     0.815880     3 ; for dna
    ON6B      CN7      CN7      NN1     9     0.000000     0.836800     3 ; tphc
     ON6      CN7      CN7      NN1     9     0.000000     0.836800     3 ; for dna
     HN2      NN1        P      ON4     9     0.000000     0.209200     3 ; tphc
       P      NN1      CN7      CN7     9   180.000000     2.719600     2 ; 
       P      NN1      CN7      CN7     9   180.000000     6.276000     1 ; 
       P      NN1      CN7      CN7     9     0.000000     4.184000     3 ; 
       P      NN1      CN7     CN7B     9   220.000000     5.857600     1 ; 
       P      NN1      CN7     CN7B     9   180.000000     1.673600     5 ; 
       P      NN1      CN7      CN8     9   220.000000     5.857600     1 ; 
       P      NN1      CN7      CN8     9   180.000000     1.673600     5 ; 
     CN7     CN8B      ON2      HN8     9     0.000000     2.092000     3 ; thni
     CN7     CN8B      ON2      HN8     9     0.000000     4.184000     1 ; thni
     HN8     CN8B      ON2      HN8     9     0.000000     0.418400     3 ; thni
     NN1      CN7     CN7B     CN7B     9   180.000000     6.276000     1 ; for rna
     NN1      CN7     CN7B     CN7B     9     0.000000     6.276000     2 ; for rna
     NN1      CN7     CN7B     CN7B     9   180.000000     4.602400     3 ; for rna
     NN1      CN7      CN8     CN7B     9   180.000000     5.648400     1 ; for dna
     NN1      CN7      CN8     CN7B     9     0.000000     4.184000     2 ; for dna
     NN1      CN7      CN8     CN7B     9   180.000000     0.836800     3 ; for dna
     NN1      CN7      CN7     CN8B     9   180.000000     2.092000     2 ; 
       P      NN1     CN8B      CN7     9   120.000000     1.025080     1 ; bet C4'-C5'-O5'-P, adm jr.
     CN7      CN7     CN8B      NN1     9   180.000000     0.836800     4 ; gam adm jr.
     CN7      CN7     CN8B      NN1     9   180.000000     3.347200     3 ; gam C3'-C4'-C5'-O5'
     CN7      CN7     CN8B      NN1     9     0.000000     1.673600     2 ; gam
     CN7      CN7     CN8B      NN1     9   180.000000    10.460000     1 ; gam
     HN7      CN7     CN8B      NN1     9     0.000000     0.815880     3 ; gam H-C4'-C5'-O5'
     HN2      NN1     CN8B      CN7     9     0.000000     1.087840     1 ; tphc
    ON6B      CN7     CN8B      NN1     9   180.000000    14.225600     1 ; gam, N5' RNA
     ON6      CN7     CN8B      NN1     9   180.000000    14.225600     1 ; gam , for dna
     CN7      CN7      ON5      HN7     9     0.000000     2.092000     3 ; n5ph
     CN7      CN7      ON5      HN7     9     0.000000     4.184000     1 ; n5ph
    CN8B      CN7      ON5      HN7     9     0.000000     2.092000     3 ; n5ph
    CN8B      CN7      ON5      HN7     9     0.000000     4.184000     1 ; n5ph
     HN7      CN7      ON5      HN7     9     0.000000     0.418400     3 ; n5ph
     ON5      CN7     CN8B      NN1     9   180.000000    14.225600     1 ; n5ph
     HN3      CN3     NN2B      CT2     9   180.000000     1.255200     2 ; UPN, yxu
     ON1     CN1T     NN2B      CT2     9   180.000000    46.024000     2 ; UPN, yxu
    NN2U     CN1T     NN2B      CT2     9   180.000000    46.024000     2 ; UPN, yxu
     CN3      CN3     NN2B      CT2     9   180.000000    46.024000     2 ; UPN, yxu
     HN3      CN3      NN2      CT2     9   180.000000     1.255200     2 ; CPN, yxu
    ON1C      CN1      NN2      CT2     9   180.000000    46.024000     2 ; CPN, yxu
     NN3      CN1      NN2      CT2     9   180.000000    46.024000     2 ; CPN, yxu
     CN3      CN3      NN2      CT2     9   180.000000    46.024000     2 ; CPN, yxu
     HN3      CN4      NN2      CT2     9   180.000000     1.255200     2 ; APN, yxu
     CN5      CN5      NN2      CT2     9   180.000000    46.024000     2 ; APN, yxu
     NN4      CN4      NN2      CT2     9   180.000000    46.024000     2 ; APN, yxu
    NN3A      CN4      NN2      CT2     9   180.000000    46.024000     2 ; APN, yxu
     HN3      CN4     NN2B      CT2     9   180.000000     1.255200     2 ; GPN, yxu
     NN4      CN4     NN2B      CT2     9   180.000000    46.024000     2 ; GPN, yxu
    CN5G      CN5     NN2B      CT2     9   180.000000    46.024000     2 ; GPN, yxu
    NN3G      CN5     NN2B      CT2     9   180.000000    46.024000     2 ; GPN, yxu
       C      NH1      CT2     CT2P     9     0.000000     4.016640     2 ; alpha, mj
       C      NH1      CT2     CT2P     9     0.000000     0.711280     3 ; alpha, mj
       C      NH1      CT2     CT2P     9     0.000000     1.715440     4 ; alpha, mj
       C      NH1      CT2     CT2P     9     0.000000     1.129680     5 ; alpha, mj
       N     CT2P      CT2      NH1     9   180.000000     6.652560     1 ; beta, mj
       N     CT2P      CT2      NH1     9     0.000000     3.012480     3 ; beta, mj
       N     CT2P      CT2      NH1     9     0.000000     0.125520     4 ; beta, mj
     HB2     CT2P      CT2      NH1     9     0.000000     0.627600     3 ; beta, yxu
       N     CT2P      CT2      HB2     9     0.000000     0.627600     3 ; beta, yxu
     HB2     CT2P      CT2      HB2     9     0.000000     0.418400     3 ; beta, yxu
      CC        N     CT2P      CT2     9     0.000000     2.510400     1 ; beta, yxu
      CC        N     CT2P      CT2     9     0.000000     1.882800     2 ; beta, yxu
      CC        N      CT2      HB2     9   180.000000     0.418400     3 ; gamma, yxu
      CC        N     CT2P      HB2     9   180.000000     0.418400     3 ; gamma, yxu
     CT2        N     CT2P      CT2     9     0.000000     3.054320     1 ; gamma, mj
     CT2        N     CT2P      CT2     9     0.000000     6.359680     3 ; gamma, mj
     CT2        N     CT2P      CT2     9     0.000000     2.008320     4 ; gamma, mj
     CT2        N     CT2P      CT2     9     0.000000     1.297040     5 ; gamma, mj
     CT2        N     CT2P      HB2     9   180.000000     0.418400     3 ; gamma, yxu
    CT2P        N      CT2      HB2     9   180.000000     0.418400     3 ; gamma, yxu
       C      CT2        N       CC     9     0.000000     1.255200     2 ; delta, yxu
       C      CT2        N       CC     9   180.000000     2.092000     3 ; delta, yxu
       C      CT2        N     CT2P     9   180.000000     2.594080     4 ; delta, mj
       N      CT2        C      NH1     9     0.000000     2.845120     1 ; epsilon, mj
       N      CT2        C      NH1     9     0.000000     2.970640     2 ; epsilon, mj
       N      CT2        C      NH1     9     0.000000     1.380720     3 ; epsilon, mj
     NH3      CT2      CT2        N     9   180.000000     6.694400     1 ; beta nt, yxu
     NH3      CT2      CT2        N     9     0.000000     3.347200     2 ; beta nt, yxu
     NH3      CT2      CT2        N     9     0.000000     2.928800     3 ; beta nt, yxu
     NH3      CT2     CT2P        N     9   180.000000     6.694400     1 ; mj, as beta nt by yxu
     NH3      CT2     CT2P        N     9     0.000000     3.347200     2 ; mj, as beta nt by yxu
     NH3      CT2     CT2P        N     9     0.000000     2.928800     3 ; mj, as beta nt by yxu
     NH3      CT2      CT2      HB2     9     0.000000     1.673600     3 ; beta nt, yxu
     NH3      CT2     CT2P      HB2     9     0.000000     1.673600     3 ; mj, as beta nt by yxu
      CC      CT2        N       CC     9     0.000000     4.184000     1 ; delta ct, yxu
      CC      CT2        N       CC     9     0.000000     3.765600     2 ; delta ct, yxu
      CC      CT2        N       CC     9   180.000000     2.092000     3 ; delta ct, yxu
      CC      CT2        N       CC     9     0.000000     1.255200     4 ; delta ct, yxu
      CC      CT2        N       CC     9     0.000000     0.418400     6 ; delta ct, yxu
      CC      CT2        N     CT2P     9   180.000000     4.184000     1 ; delta ct, yxu
      CC      CT2        N     CT2P     9     0.000000     3.765600     2 ; delta ct, yxu
      CC      CT2        N     CT2P     9     0.000000     2.092000     3 ; delta ct, yxu
      CC      CT2        N     CT2P     9     0.000000     1.255200     4 ; delta ct, yxu
      CC      CT2        N     CT2P     9     0.000000     0.418400     6 ; delta ct, yxu
     CT2        N       CC        O     9   180.000000    10.878400     2 ; kappa 1, yxu
    CT2P        N       CC        O     9   180.000000    10.878400     2 ; kappa 1, yxu
     CT2        N       CC      CT2     9   180.000000    10.878400     2 ; kappa 1, yxu
    CT2P        N       CC      CT2     9   180.000000    10.878400     2 ; kappa 1, yxu
     NN2      CT2       CC        O     9   180.000000     4.184000     2 ; kappa 2, yxu
     NN2      CT2       CC        N     9   180.000000     5.439200     1 ; kappa 2, yxu
    NN2B      CT2       CC        O     9   180.000000     4.184000     2 ; kappa 2, yxu
    NN2B      CT2       CC        N     9   180.000000     5.439200     1 ; kappa 2, yxu
     HB2      CT2       CC        O     9   180.000000     0.000000     3 ; kappa 2, yxu
     HB2      CT2       CC        N     9     0.000000     0.000000     3 ; kappa 2, yxu
       H      NH1      CT2     CT2P     9     0.000000     0.000000     1 ; as H NH1 CT2 CT2, mj
    CN1T     NN2B      CT2      HA2     9     0.000000     1.255200     3 ; UPN, yxu
    CN1T     NN2B      CT2       CC     9     0.000000     4.184000     2 ; UPN, yxu
     CN3     NN2B      CT2      HA2     9     0.000000     1.255200     3 ; UPN, yxu
     CN3     NN2B      CT2       CC     9     0.000000     4.184000     2 ; UPN, yxu
     CN1      NN2      CT2      HA2     9     0.000000     1.255200     3 ; CPN, yxu
     CN1      NN2      CT2       CC     9     0.000000     4.184000     2 ; CPN, yxu
     CN3      NN2      CT2      HA2     9     0.000000     1.255200     3 ; CPN, yxu
     CN3      NN2      CT2       CC     9     0.000000     4.184000     2 ; CPN, yxu
     CN4      NN2      CT2      HA2     9     0.000000     0.000000     3 ; APN, yxu
     CN4      NN2      CT2       CC     9     0.000000     3.347200     2 ; APN, yxu
     CN5      NN2      CT2      HA2     9     0.000000     0.000000     3 ; APN, yxu
     CN5      NN2      CT2       CC     9     0.000000     3.347200     2 ; APN, yxu
     CN4     NN2B      CT2      HA2     9     0.000000     0.000000     3 ; GPN, yxu
     CN4     NN2B      CT2       CC     9     0.000000     3.347200     2 ; GPN, yxu
     CN5     NN2B      CT2      HA2     9     0.000000     0.000000     3 ; GPN, yxu
     CN5     NN2B      CT2       CC     9     0.000000     3.347200     2 ; GPN, yxu
     CN7     CN7B     ON2M      CN9     9   180.000000     0.836800     1 ; c-C2'-OM-cm For THF-2'O2M
     CN7     CN7B     ON2M      CN9     9   180.000000     7.740400     2 ; 
     CN7     CN7B     ON2M      CN9     9     0.000000     4.184000     3 ; 
     HN7     CN7B     ON2M      CN9     9     0.000000     4.184000     1 ; h-C2'-OM-cm
     HN7     CN7B     ON2M      CN9     9   180.000000     7.949600     2 ; 
     HN7     CN7B     ON2M      CN9     9     0.000000     1.589920     3 ; 
    CN7B     ON2M      CN9      HN9     9   180.000000     0.418400     3 ; C2'-OM-CM-H OK
    CN7B     ON2M      CN9      HN9     9     0.000000     5.020800     2 ; 
    CN7B     CN7B     ON2M      CN9     9   180.000000     8.368000     2 ; 
    NN2B     CN7B     CN7B     ON2M     9     0.000000     0.000000     3 ; 
    ON2M     CN7B      CN7      ON2     9     0.000000     0.815880     3 ; from HN7 CN7 CN7 ON2
     NN2     CN7B     CN7B     ON2M     9     0.000000     0.000000     3 ; 
    ON2M     CN7B      CN7      ON5     9     0.000000     0.815880     3 ; 
    ON6B     CN7B     CN7B     ON2M     9     0.000000     0.000000     3 ; 
     CN7      CN7     CN7B     ON2M     9     0.000000     0.000000     3 ; 
     HN7     CN7B     CN7B     ON2M     9   180.000000     0.397480     3 ; OG311  CN7B CN7 HN7 -- NA, sugar
     HN7      CN7     CN7B     ON2M     9     0.000000     0.815880     3 ; from HN7 CN7 CN7 ON5
     HN8      CN8     CN7B      ON2     9     0.000000     0.815880     3 ; 25P1
     ON2     CN7B     CN7B     NN2B     9     0.000000     0.000000     3 ; 25P1
     ON2        P      ON2     CN7B     9   180.000000     5.020800     1 ; 10/97, DMP, adm jr., 25P1
     ON2        P      ON2     CN7B     9   180.000000     0.418400     2 ; 10/97, DMP, adm jr., 25P1
     ON2        P      ON2     CN7B     9   180.000000     0.418400     3 ; 10/97, DMP, adm jr., 25P1
     ON2        P      ON2     CN7B     9     0.000000     0.000000     6 ; 10/97, DMP, adm jr., 25P1
     CN8      CN7     CN7B      ON6     9     0.000000     2.510400     6 ; 25P1
     ON2     CN7B      CN8      CN7     9     0.000000     3.347200     6 ; 
     ON2     CN7B      CN8      CN7     9     0.000000     1.673600     5 ; Moves the barrier right
     ON2     CN7B      CN8      CN7     9   180.000000     8.368000     3 ; 
     CN7     CN7B      NN2      CN1     9     0.000000     4.184000     3 ; 25P1
     CN7     CN7B      NN2      CN3     9   180.000000     0.000000     3 ; NF 030697, 25P1
     CN8     CN7B     CN7B      NN2     9     0.000000     0.000000     3 ; 25P1
     CN8     CN7B     CN7B     NN2B     9     0.000000     0.000000     3 ; 25P1
     HN7     CN7B      CN7      CN8     9     0.000000     0.815880     3 ; cn8 -> cn9, 25P1
    CN7B     ON6B      CN7      CN8     9     0.000000     8.368000     3 ; To lower barrier in RNA, 25P1
     CN8     CN7B      ON2        P     9   180.000000    10.460000     1 ; eps, 25P1
     CN8     CN7B     CN7B     ON6B     9     0.000000     1.673600     6 ; RNA, 25P1
    CN7B     CN7B      CN8      CN7     9     0.000000     0.000000     6 ; RNA, 25P1
     HN8      CN8     CN7B     CN7B     9     0.000000     0.815880     3 ; RNA, H-C3'-C2'-C1', 25P1
     HN7     CN7B     CN7B      CN8     9     0.000000     0.815880     3 ; RNA, H-C1'-C2'-C3', 25P1
    CN7E      CN7      CN8      CN7     9     0.000000     0.627600     3 ; north, C1-C2-C3-C4
     CN7     CN7E      CN6      CN8     9     0.000000     0.627600     3 ; north, C2-C1-C5-C6
     CN7     CN7E      CN6      CN7     9     0.000000     0.627600     3 ; north, C2-C1-C5-C4
     CN8     CN7E      CN6      CN7     9     0.000000     0.627600     3 ; north, C6-C1-C5-C4
     CN6      CN8     CN7E      CN7     9     0.000000     0.627600     3 ; north, C5-C6-C1-C2
    CN7E      CN8      CN6      CN7     9     0.000000     0.627600     3 ; north, C1-C6-C5-C4
    CN7E     CN7E      CN8      CN6     9     0.000000     0.627600     3 ; south, C4-C5-C6-C1
    CN7E     CN7E      CN6      CN8     9     0.000000     0.627600     3 ; south, C4-C5-C1-C6
    CN8B      CN6     CN7E      CN7     9     0.000000     0.627600     3 ; north, C5'-C5-C1-C2
    CN8B      CN6     CN7E      CN8     9     0.000000     0.627600     3 ; north, C5'-C5-C1-C6
    CN8B      CN6      CN8     CN7E     9     0.000000     0.627600     3 ; north, C5'-C5-C6-C1
     CN8     CN7E     CN7E     CN8B     9     0.000000     0.627600     3 ; south, C5'-C4-C5-C6
     CN6     CN7E     CN7E     CN8B     9     0.000000     0.627600     3 ; south, C1-C5-C4-C5'
     CN6     CN8B      CN7      HN7     9     0.000000     0.627600     3 ; south, C1-C2-C3-H31
     HN7      CN6     CN8B      HN8     9     0.000000     0.627600     3 ; south, H11-C1-C2-H2*, model compd only
     HN7      CN6     CN8B      CN7     9     0.000000     0.627600     3 ; south, H11-C1-C2-C3, model compd only
     HN8     CN8B      CN7     CN7E     9     0.000000     0.627600     3 ; south, H2*-C2-C3-C4
     CN6     CN8B      CN7     CN7E     9     0.000000     0.627600     3 ; south, C1-C2-C3-C4
    CN8B      CN7     CN7E      HN7     9     0.000000     0.627600     3 ; south, C2-C3-C4-H41
    CN8B      CN7     CN7E     CN7E     9     0.000000     0.627600     3 ; south, C2-C3-C4-C5
    CN7E     CN7E     CN8B      HN8     9     0.000000     0.627600     3 ; south, C5-C4-C5'-H5'
     HN7     CN7E     CN7E     CN8B     9     0.000000     0.627600     3 ; south, H51-C5-C4-C5'
    CN8B      CN6     CN7E      HN7     9     0.000000     0.627600     3 ; north, C5'-C5-C1-H11
     HN8     CN8B      CN6     CN7E     9     0.000000     0.627600     3 ; north, H5'-C5'-C5-C1
     HN7     CN7E      CN7      HN7     9     0.000000     0.627600     3 ; north, H11-C1-C2-H21, and south, H41-C4-C3-H31
    CN7E      CN6      CN8      HN8     9     0.000000     0.627600     3 ; north, C1-C5-C6-H6*, and south, C5-C1-C6-H6*
    CN7E      CN6      CN7      HN7     9     0.000000     0.627600     3 ; north, C1-C5-C4-H41
    CN7E     CN7E      CN8      HN8     9     0.000000     0.627600     3 ; south, C4-C5-C6-H6*
     CN7     CN7E      CN6      HN7     9     0.000000     0.627600     3 ; north, model compd only
    CN7E      CN8      CN6      HN7     9     0.000000     0.627600     3 ; north,south, model cmpd only
    CN7E     CN7E      CN6      HN7     9     0.000000     0.627600     3 ; south, model cmpd only
    CN7E     CN7E      CN7      HN7     9     0.000000     0.627600     3 ; south, C5-C4-C3-H31
     HN7      CN7     CN7E      CN6     9     0.000000     0.627600     3 ; north, H21-C2-C1-C5
     HN7      CN7      CN6      CN8     9     0.000000     0.627600     3 ; north, H41-C4-C5-C6
     HN7     CN7E      CN6      CN8     9     0.000000     0.627600     3 ; north, H11-C1-C5-C6, and south, H51-C5-C1-C6
     HN7     CN7E      CN8      CN6     9     0.000000     0.627600     3 ; north, H11-C1-C6-C5, and south, H51-C5-C6-C1
     HN8      CN8     CN7E      CN6     9     0.000000     0.627600     3 ; north, H6*-C6-C1-C5, and south, H6*-C6-C5-C1
     HN7     CN7E      CN6      HN7     9     0.000000     0.627600     3 ; north,south, model cmpd only
     HN7      CN6     CN7E      CN8     9     0.000000     0.627600     3 ; north,south, model compd only
     HN7     CN7E      CN8      HN8     9     0.000000     0.627600     3 ; north, H11-C1-C6-H6*, and south, H51-C5-C6-H6*
     HN8      CN8      CN6      CN7     9     0.000000     0.627600     3 ; north, H6*-C6-C5-C4
     HN7     CN7E      CN6      CN7     9     0.000000     0.627600     3 ; north, H11-C1-C5-C4
     HN7     CN7E     CN7E      CN7     9     0.000000     0.627600     3 ; south, H51-C5-C4-C3
     HN7     CN7E     CN7E      CN8     9     0.000000     0.627600     3 ; south, H41-C4-C5-C6
     HN7     CN7E     CN7E      CN6     9     0.000000     0.627600     3 ; south, H41-C4-C5-C1
     HN7     CN7E     CN7E      HN7     9     0.000000     0.627600     3 ; south, H41-C4-C5-H51
     CN6      CN7      CN8      CN7     9     0.000000     1.673600     6 ; C4'-C3'-C2'-C1', north, C5-C4-C3-C2
     CN6     CN7E     CN7E      CN7     9     0.000000     7.322000     3 ; Nilesh, south, boat-chair energy, C1-C5-C4-C3
    CN7E      CN6     CN8B      CN7     9     0.000000     7.322000     3 ; Nilesh, south, boat-chair energy, C5-C1-C2-C3
     CN8     CN7E     CN7E      CN7     9     0.000000    16.736000     3 ; Nilesh, south, boat-chair energy, C6-C5-C4-C3
     CN8      CN6     CN8B      CN7     9     0.000000    16.736000     3 ; Nilesh, south, boat-chair energy, C6-C1-C2-C3
     CN6     CN7E      CN7      CN8     9     0.000000     2.092000     3 ; Nilesh, north, boat-chair energy, C5-C1-C2-C3
    CN7E      CN6      CN7      CN8     9     0.000000     2.092000     3 ; Nilesh, north, boat-chair energy, C1-C5-C4-C3
     CN8      CN6      CN7      CN8     9     0.000000    16.736000     3 ; Nilesh, north, boat-chair energy, C6-C5-C4-C3
     CN8     CN7E      CN7      CN8     9     0.000000    16.736000     3 ; Nilesh, north, boat-chair energy, C6-C1-C2-C3
    CN8B      CN6     CN7E     CN7E     9     0.000000     1.046000     3 ; south, C2-C1-C5-C4, to get C2-C1-C5-C4 planar
     CN8      CN6      CN7      ON2     9     0.000000     1.882800     2 ; north sugar C6'-C4'-C3'-O3', C6-C5-C4-O3'
    CN7E      CN6      CN7      ON2     9     0.000000     1.882800     2 ; north sugar C6'-C4'-C3'-O3', C1-C5-C4-O3'
    CN7E     CN7E     CN8B      ON2     9     0.000000     1.882800     2 ; south sugar C3'-C4'-C5'-O5', C5-C4-C5'-O5'
     CN6     CN8B      CN7      ON2     9     0.000000     7.949600     2 ; south sugar C1'-C2'-C3'-O3', C1-C2-C3-O3'
     CN6     CN8B      CN7      ON5     9     0.000000     7.949600     2 ; south sugar C1'-C2'-C3'-O3', model compd only
    CN7E     CN7E      CN7      ON2     9     0.000000     3.765600     6 ; south sugar O4'-C4'-C3'-O3', C5-C4-C3-O3'
    CN7E     CN7E      CN7      ON5     9     0.000000     3.765600     6 ; south sugar O4'-C4'-C3'-O3', model cmpd only
     ON2      CN7      CN8      CN7     9     0.000000     2.928800     2 ; north sugar O3'-C4-C3-C2
     ON5      CN7      CN8      CN7     9     0.000000     2.928800     2 ; north sugar O3'-C4-C3-C2, model cmpd only
     HN8     CN8B      CN7      ON2     9     0.000000     0.815880     3 ; south sugar H2'-C2'-C3'-O3', H2*-C2-C3-O3'
     HN7     CN7E      CN7      ON2     9     0.000000     0.815880     3 ; south sugar H4'-C4'-C3'-O3', H41-C4-C3-O3'
     HN7     CN7E      CN7      ON5     9     0.000000     0.815880     3 ; south sugar H4'-C4'-C3'-O3', model cmpd only
    CN7E      CN7      ON5      HN5     9     0.000000     2.092000     3 ; south, model cmpd only
    CN7E      CN7      ON5      HN5     9   180.000000     1.255200     2 ; south, model cmpd only
    CN7E      CN7      ON5      HN5     9     0.000000     6.276000     1 ; south, model cmpd only
    CN8B      CN7      ON5      HN5     9     0.000000     2.092000     3 ; south, model cmpd only
    CN8B      CN7      ON5      HN5     9   180.000000     4.184000     2 ; south, model cmpd only
    CN8B      CN7      ON5      HN5     9     0.000000     1.255200     1 ; south, model cmpd only
     CN8      CN6      CN7      ON5     9     0.000000     1.882800     2 ; north sugar C6'-C4'-C3'-O3', model cmpd only
    CN7E      CN6      CN7      ON5     9     0.000000     1.882800     2 ; north sugar O4'-C4'-C3'-O3', model cmpd only
     CN6      CN7      ON2        P     9   180.000000    10.041600     1 ; eps, north only, C5-C4-O3'-P
     CN6      CN7      ON2        P     9   180.000000     1.673600     2 ; eps, north only, C5-C4-O3'-P
     CN6      CN7      ON2        P     9   240.000000     6.276000     3 ; eps, north only, C5-C4-O3'-P
     CN6      CN7      ON2       P2     9   180.000000    10.041600     1 ; eps, north only, C5-C4-O3'-P, adm, 2011 DNA update
     CN6      CN7      ON2       P2     9   180.000000     1.673600     2 ; eps, north only, C5-C4-O3'-P, adm, 2011 DNA update
     CN6      CN7      ON2       P2     9   240.000000     6.276000     3 ; eps, north only, C5-C4-O3'-P, adm, 2011 DNA update
    CN7E      CN7      ON2        P     9   180.000000     1.882800     4 ; eps, south only, C4-C3-O3'-P
    CN7E      CN7      ON2        P     9   180.000000     1.882800     3 ; eps, south only, C4-C3-O3'-P
    CN7E      CN7      ON2        P     9   180.000000     1.046000     5 ; eps, south only, C4-C3-O3'-P
    CN7E      CN7      ON2        P     9     0.000000     2.092000     1 ; eps, south only, C4-C3-O3'-P
    CN7E      CN7      ON2       P2     9   180.000000     1.882800     4 ; eps, south only, C4-C3-O3'-P, adm, 2011 DNA update
    CN7E      CN7      ON2       P2     9   180.000000     1.882800     3 ; eps, south only, C4-C3-O3'-P, adm, 2011 DNA update
    CN7E      CN7      ON2       P2     9   180.000000     1.046000     5 ; eps, south only, C4-C3-O3'-P, adm, 2011 DNA update
    CN7E      CN7      ON2       P2     9     0.000000     2.092000     1 ; eps, south only, C4-C3-O3'-P, adm, 2011 DNA update
    CN8B      CN7      ON2        P     9   180.000000     8.368000     1 ; eps, south only, C2-C3-O3'-P
    CN8B      CN7      ON2       P2     9   180.000000     8.368000     1 ; eps, south only, C2-C3-O3'-P, adm, 2011 DNA update
     HN7      CN7      CN6      HN7     9     0.000000     0.627600     3 ; north, model cmpd only
     ON2      CN7      CN6      HN7     9     0.000000     0.627600     3 ; north, model cmpd only
     CN8      CN7      CN6      HN7     9     0.000000     0.627600     3 ; north, model cmpd only
     HN7      CN6      CN8      HN8     9     0.000000     0.627600     3 ; north, south, model cmpd only
     CN8      CN7     CN7E      HN7     9     0.000000     0.627600     3 ; north, C3-C2-C1-H11
     CN7      CN8      CN7     NN2B     9   180.000000     4.184000     1 ; north, C4-C3-C2-N1/N9
     CN7      CN8      CN7     NN2B     9   180.000000     3.347200     3 ; north, C4-C3-C2-N1/N9
     CN7     CN8B      CN6     NN2B     9     0.000000     2.928800     3 ; south, C3-C2-C1-N1/N9
     CN7      CN8      CN6      NN2     9     0.000000     2.928800     3 ; south, C3-C2-C1-N1/N9
     CN7     CN8B      CN6      NN2     9     0.000000     2.928800     3 ; south, C3-C2-C1-N1/N9
    CN7E      CN8      CN6      NN2     9     0.000000     2.928800     3 ; south, C3-C2-C1-N1/N9
    CN7E     CN7E      CN6     NN2B     9     0.000000     0.627600     3 ; south, C4-C5-C1-N1/N9
    CN7E     CN7E      CN6      NN2     9     0.000000     0.627600     3 ; south, C4-C5-C1-N1/N9
     CN6     CN7E      CN7     NN2B     9     0.000000     0.627600     3 ; north, C5-C1-C2-N1/N9
     CN6     CN7E      CN7      NN2     9     0.000000     0.627600     3 ; north, C5-C1-C2-N1/N9
     CN8     CN7E      CN7     NN2B     9     0.000000     0.627600     3 ; north, C6-C1-C2-N1/N9
     CN8     CN7E      CN7      NN2     9     0.000000     0.627600     3 ; north, C6-C1-C2-N1/N9
    CN7E      CN8      CN6     NN2B     9     0.000000     0.627600     3 ; south, C5-C6-C1-N1/N9
     CN8     CN7E      CN6     NN2B     9     0.000000     0.627600     3 ; south, C6-C5-C1-N1/N9
     CN8     CN7E      CN6      NN2     9     0.000000     0.627600     3 ; south, C6-C5-C1-N1/N9
     HN8      CN8      CN6     NN2B     9     0.000000     0.627600     3 ; south, H6*-C6-C1-N1/N9
     HN8     CN8B      CN6     NN2B     9     0.000000     0.627600     3 ; south, H2*-C2-C1-N1/N9
     HN8     CN8B      CN6      NN2     9     0.000000     0.627600     3 ; south, H2*-C2-C1-N1/N9
     HN8      CN8      CN6      NN2     9     0.000000     0.627600     3 ; south, H6*-C6-C1-N1/N9
     HN7     CN7E      CN6     NN2B     9     0.000000     0.627600     3 ; H51-C5-C1-N1/N9
     HN7     CN7E      CN6      NN2     9     0.000000     0.627600     3 ; H51-C5-C1-N1/N9
     HN7     CN7E      CN7     NN2B     9     0.000000     0.627600     3 ; H51-C5-C1-N1/N9
     HN7     CN7E      CN7      NN2     9     0.000000     0.627600     3 ; H51-C5-C1-N1/N9
     CN7      CN7      NN2      CN4     9   180.000000     2.092000     1 ; adenine, north
     CN7      CN7      NN2      CN5     9   180.000000     4.602400     1 ; adenine, north
    CN7E      CN7      NN2      CN4     9   180.000000     2.092000     1 ; adenine, north
    CN7E      CN7      NN2      CN5     9   180.000000     4.602400     1 ; adenine, north
     CN8      CN7      NN2      CN4     9   180.000000     2.092000     1 ; adenine, north
     CN8      CN7      NN2      CN5     9   180.000000     4.602400     1 ; adenine, north
    CN8B      CN6      NN2      CN5     9     0.000000     1.255200     3 ; adenine, south
     CN8      CN6      NN2      CN5     9     0.000000     1.255200     3 ; adenine, south
    CN8B      CN6      NN2      CN4     9     0.000000     0.418400     3 ; adenine, south
     CN8      CN6      NN2      CN4     9     0.000000     0.418400     3 ; adenine, south
    CN7E      CN6      NN2      CN5     9   180.000000     4.602400     1 ; adenine, south
    CN7E      CN6      NN2      CN4     9   180.000000     4.602400     1 ; adenine, south
     CN7      CN7     NN2B      CN4     9   180.000000     2.092000     1 ; guanine, north
     CN7      CN7     NN2B      CN5     9   180.000000     4.602400     1 ; guanine, north
    CN7E      CN7     NN2B      CN4     9   180.000000     2.092000     1 ; guanine, north
    CN7E      CN7     NN2B      CN5     9   180.000000     4.602400     1 ; guanine, north
     CN8      CN7     NN2B      CN4     9   180.000000     2.092000     1 ; guanine, north
     CN8      CN7     NN2B      CN5     9   180.000000     4.602400     1 ; guanine, north
    CN8B      CN6     NN2B      CN5     9     0.000000     1.255200     3 ; guanine, south
     CN8      CN6     NN2B      CN5     9     0.000000     1.255200     3 ; adenine, south
    CN8B      CN6     NN2B      CN4     9     0.000000     0.418400     3 ; guanine, south
     CN8      CN6     NN2B      CN4     9     0.000000     0.418400     3 ; adenine, south
    CN7E      CN6     NN2B      CN5     9   180.000000     4.602400     1 ; guanine, south
    CN7E      CN6     NN2B      CN4     9   180.000000     4.602400     1 ; guanine, south
     CN8      CN6     NN2B      CN3     9   180.000000     0.000000     3 ; thymine, south
     CN8      CN6     NN2B     CN1T     9     0.000000     1.255200     3 ; thymine, south
    CN8B      CN6     NN2B      CN3     9   180.000000     0.000000     3 ; thymine, south
    CN8B      CN6     NN2B     CN1T     9     0.000000     1.255200     3 ; thymine, south
    CN7E      CN6     NN2B      CN3     9   180.000000     0.000000     3 ; thymine, south
    CN7E      CN6     NN2B     CN1T     9     0.000000     1.255200     3 ; thymine, south
     CN8      CN7     NN2B      CN3     9   180.000000     0.000000     3 ; thymine, north
     CN8      CN7     NN2B     CN1T     9   180.000000     0.000000     3 ; thymine, north
    CN7E      CN7     NN2B      CN3     9     0.000000     1.673600     4 ; thymine, north
    CN7E      CN7     NN2B     CN1T     9     0.000000     4.184000     3 ; thymine, north
     CN8      CN7      NN2      CN3     9   180.000000     0.000000     3 ; cytosine, north
     CN8      CN7      NN2      CN1     9   180.000000     0.000000     3 ; cytosine, north
    CN7E      CN7      NN2      CN3     9     0.000000     1.673600     4 ; cytosine, north
    CN7E      CN7      NN2      CN1     9     0.000000     4.184000     3 ; cytosine, north
     CN8      CN6      NN2      CN3     9   180.000000     0.000000     3 ; cytosine, south
     CN8      CN6      NN2      CN1     9     0.000000     1.255200     3 ; cytosine, south
    CN8B      CN6      NN2      CN3     9   180.000000     0.000000     3 ; cytosine, south
    CN8B      CN6      NN2      CN1     9   180.000000     0.836800     3 ; cytosine, south
    CN7E      CN6      NN2      CN3     9   180.000000     0.000000     3 ; cytosine, south
    CN7E      CN6      NN2      CN1     9   180.000000     0.836800     3 ; cytosine, south
     HN7      CN7     NN2B      CN3     9     0.000000     0.815880     3 ; north, H21-C2-N1/N9-C, (from HN7  CN7B NN2  CN3)
     HN7      CN7      NN2      CN3     9     0.000000     0.815880     3 ; north, H21-C2-N1/N9-C, (from HN7  CN7B NN2  CN3)
     HN7      CN7     NN2B     CN1T     9     0.000000     0.815880     3 ; north, H21-C2-N1/N9-C, (from HN7  CN7B NN2  CN3)
     HN7      CN7      NN2      CN1     9     0.000000     0.815880     3 ; north, H21-C2-N1/N9-C, (from HN7  CN7B NN2  CN3)
     HN7      CN7      NN2      CN4     9     0.000000     0.815880     3 ; north, H21-C2-N1/N9-C, (from HN7  CN7B NN2  CN3)
     HN7      CN7     NN2B      CN4     9     0.000000     0.815880     3 ; north, H21-C2-N1/N9-C, (from HN7  CN7B NN2  CN3)
     HN7      CN7      NN2      CN5     9     0.000000     0.815880     3 ; north, H21-C2-N1/N9-C, (from HN7  CN7B NN2  CN3)
     HN7      CN7     NN2B      CN5     9     0.000000     0.815880     3 ; north, H21-C2-N1/N9-C, (from HN7  CN7B NN2  CN3)
     CN8     CN7E      CN7      HN7     9     0.000000     0.627600     3 ; north, C6-C1-C2-H21
     HN8      CN8     CN7E      CN7     9     0.000000     0.627600     3 ; north, H6*-C6-C1-C2
     CN7     CN7E     CN8B      ON2     9   180.000000     0.627600     3 ; gamma, south, C3-C4-C5'-O5'
     CN7     CN7E     CN8B      ON2     9     0.000000     0.418400     2 ; gamma, south, C3-C4-C5'-O5'
     CN7     CN7E     CN8B      ON2     9   180.000000     5.230000     1 ; gamma, south, C3-C4-C5'-O5'
    CN8B      CN7     CN7E     CN8B     9     0.000000     7.531200     3 ; south, C2'-C3'-C4'-C5', C2-C3-C4-C5'
     HN7     CN7E     CN8B      ON2     9     0.000000     0.815880     3 ; gamma, south, H41-C4-C5'-O5'
     HN7     CN7E     CN8B      HN8     9     0.000000     0.627600     3 ; gamma, south, H41-C4-C5'-H5'
     CN7     CN7E     CN8B      HN8     9     0.000000     0.815880     3 ; gamma, south, C3-C4-C5'-H5'
     HN8     CN8B      CN6      CN7     9     0.000000     0.815880     3 ; gamma, north, H5'-C5'-C5-C4
     HN8     CN8B      CN6      CN8     9     0.000000     0.815880     3 ; gamma, north, H5'-C5'-C5-C6
     CN8      CN6     CN8B      ON2     9   180.000000     0.627600     1 ; gamma, north, C6-C5-C5'-O5'
    CN7E      CN6     CN8B      ON2     9     0.000000     2.510400     1 ; gamma, north, C1-C5-C5'-O5'
    CN7E      CN6     CN8B      ON2     9     0.000000     2.928800     3 ; gamma, north, C1-C5-C5'-O5'
    CN7E      CN6     CN8B      ON5     9     0.000000     2.510400     1 ; gamma, north, C1-C5-C5'-O5'
    CN7E      CN6     CN8B      ON5     9     0.000000     2.928800     3 ; gamma, north, C1-C5-C5'-O5'
     CN7      CN6     CN8B      ON2     9     0.000000     2.092000     2 ; gamma, north, C4-C5-C5'-O5'
     CN7      CN6     CN8B      ON5     9     0.000000     2.092000     2 ; gamma, north, C4-C5-C5'-O5'
     ON2      CN7     CN7E     CN8B     9     0.000000     0.836800     4 ; delta, south, O3'-C3-C4-C5'
     ON2      CN7     CN7E     CN8B     9   180.000000     3.347200     3 ; delta, south, O3'-C3-C4-C5', decreases P [100,250]
     ON5      CN7     CN7E     CN8B     9     0.000000     0.836800     4 ; delta, south, model cmpd only
     ON5      CN7     CN7E     CN8B     9   180.000000     3.347200     3 ; delta, south, model cmpd only, decreases P [100,250]
     ON5      CN7      CN6     CN8B     9     0.000000     0.836800     4 ; delta, north, model cmpd only
     ON5      CN7      CN6     CN8B     9   180.000000     3.347200     3 ; delta, north, model cmpd only, decreases P [100,250]
     ON2      CN7      CN6     CN8B     9     0.000000     0.836800     4 ; delta, north, O3'-C4-C5-C5'
     ON2      CN7      CN6     CN8B     9   180.000000     3.347200     3 ; delta, north, O3'-C4-C5-C5', decreases P [100,250]
    CN8B      CN6      CN7      CN8     9   180.000000     9.204800     2 ; north, C5'-C4'-C3'-C2', C5'-C5-C4-C3
    CN8B      CN6      CN7      CN8     9   180.000000     2.301200     6 ; north, C5'-C4'-C3'-C2', C5'-C5-C4-C3
    CN8B      CN6      CN7      HN7     9     0.000000     0.815880     3 ; north, C5'-C4'-C3'-H3', C5'-C5-C4-H41
    CN8B      CN6      CN8      HN8     9     0.000000     0.815880     3 ; north, C5'-C5-C6-H6*, and south, C2-C1-C6-H6*
       P      ON2     CN8B      CN6     9   120.000000     0.836800     1 ; north, beta, C5-C5'-O5'-P
      P2      ON2     CN8B      CN6     9   120.000000     0.836800     1 ; north, beta, C5-C5'-O5'-P, adm, 2011 DNA update
     HN5      ON5     CN8B      CN6     9   120.000000     0.836800     1 ; north, beta, C5-C5'-O5'-P
       P      ON2     CN8B     CN7E     9   120.000000     0.836800     1 ; south, beta, C4-C5'-O5'-P
      P2      ON2     CN8B     CN7E     9   120.000000     0.836800     1 ; south, beta, C4-C5'-O5'-P, adm, 2011 DNA update
     HN5      ON5     CN8B     CN7E     9   120.000000     0.836800     1 ; south, beta, C4-C5'-O5'-P
     CN6      CN7      ON5      HN5     9     0.000000     2.092000     3 ; north, C4'-C3'-O3'-H3'', model cmpd only
     HN7      CN7     CN7E     CN8B     9     0.000000     0.815880     3 ; south, H4'-C4'-C3'-O3', H31-C3-C4-C5'
     CN8      CN7     CN8B      ON5     9   180.000000     0.836800     3 ; from gam
     CN8     CN8B      CN8      HN8     9     0.000000     0.815880     1 ; Nilesh, newly assigned
     ON5      CN7      CN7      CN8     9   180.000000     2.092000     6 ; corresponds to ON5  CN7  CN7  ON6
     ON5      CN7      CN7      CN8     9     0.000000     2.092000     5 ; 
     ON5      CN7      CN7      CN8     9     0.000000     0.836800     4 ; 
     ON5      CN7      CN7      CN8     9     0.000000     0.836800     3 ; 
     ON2      CN7      CN7      CN8     9   180.000000     2.092000     6 ; corresponds to ON5  CN7  CN7  ON6
     ON2      CN7      CN7      CN8     9     0.000000     2.092000     5 ; 
     ON2      CN7      CN7      CN8     9     0.000000     0.836800     4 ; 
     ON2      CN7      CN7      CN8     9     0.000000     0.836800     3 ; 
     CN8      CN7      CN7      CN8     9     0.000000     0.000000     3 ; from C2'-C3'-C4'-O4'
     CN8     CN8B      CN8      CN7     9   180.000000     2.092000     6 ; from  c4'-o4'-c1'-c2', tau0
     CN8     CN8B      CN8      CN7     9     0.000000     2.092000     3 ; 
     HN8     CN8B      CN7      ON5     9     0.000000     0.815880     1 ; phosphoramidate and carbocyclic sugars
    CN7B      CN7      ON2       P2     9     0.000000     2.510400     5 ; LNA na36, from CN7, yxu
    CN7B      CN7      ON2       P2     9     0.000000     0.836800     4 ; LNA na36, from CN7, yxu
    CN7B      CN7      ON2       P2     9   180.000000     0.000000     3 ; LNA na36, from CN7, yxu
    CN7B      CN7      ON2       P2     9     0.000000     1.673600     2 ; LNA na36, from CN7, yxu
    CN7B      CN7      ON2       P2     9   180.000000     7.949600     1 ; LNA na36, from CN7, yxu
    NN2B     CN7B     CN7B     ON6B     9     0.000000    12.552000     3 ; LNA n2, yxu, 12/2016
     NN2     CN7B     CN7B     ON6B     9     0.000000    12.552000     3 ; LNA n2, yxu, 12/2016
    ON6B     CN7B     CN7B     ON6B     9   180.000000     8.368000     1 ; LNA n2, yxu, 12/2016
    ON6B     CN7B     CN7B     ON6B     9   180.000000     3.765600     6 ; LNA n2, yxu, 12/2016
     ON2      CN7     CN7B     ON6B     9     0.000000     0.000000     3 ; LNA n3, yxu, 12/2016
     ON5      CN7     CN7B     ON6B     9     0.000000     0.000000     3 ; LNA n3, yxu, 12/2016
     HN7      CN7     CN7B     ON6B     9   180.000000     2.092000     3 ; LNA n3, yxu, 12/2016
     CN7      CN7     CN7B     ON6B     9     0.000000     0.000000     2 ; LNA n3, yxu, 12/2016
     CN7     CN7B     ON6B     CN8B     9   180.000000     3.347200     3 ; LNA o2, yxu, 12/2016
    CN7B     CN7B     ON6B     CN8B     9   180.000000     3.347200     3 ; LNA o2, yxu, 12/2016
     HN7     CN7B     ON6B     CN8B     9   180.000000     1.255200     3 ; LNA o2, yxu, 12/2016
     CN7     CN8B     ON6B     CN7B     9     0.000000     0.000000     3 ; LNA co, yxu, 12/2016
     HN8     CN8B     ON6B     CN7B     9     0.000000     0.000000     3 ; LNA co, yxu, 12/2016
    ON6B     CN8B      CN7     ON6B     9     0.000000     0.836800     3 ; LNA c6, yxu, 12/2016
    ON6B     CN8B      CN7     CN8B     9     0.000000     0.836800     3 ; LNA c6, yxu, 12/2016
    ON6B     CN8B      CN7      CN7     9     0.000000     0.836800     3 ; LNA c6, yxu, 12/2016
     ON5     CN8B      CN7     CN8B     9   180.000000     0.000000     3 ; LNA gam, yxu, 12/2016
     ON2     CN8B      CN7     CN8B     9   180.000000     0.000000     3 ; LNA gam, yxu, 12/2016
     HN8     CN8B      CN7     CN8B     9   180.000000     0.000000     3 ; LNA gam, yxu, 12/2016
    NN2B      CN5     NN2U     CN1T     9   180.000000    16.736000     2 ; from NG2S3 CG2R64 NG2R61 CG2R63
    NN2B      CN5     NN2U      HN2     9   180.000000     0.000000     2 ; from NG2S3 CG2R64 NG2R61 HGP1
    CN1T     NN2U      CN5     CN5G     9   180.000000     2.092000     2 ; from CG2R61 CG2R61 NG2R61 CG2R63
     ON1     CN1T     NN2G      CN1     9   180.000000     6.694400     2 ; from OG2D4 CG2R63 NG2R61 CG2R62
     ON1     CN1T     NN2G      CN8     9   180.000000    46.024000     2 ; from OG2D4 CG2R63 NG2R61 CG331
     ON1     CN1T     NN2G      CN9     9   180.000000    46.024000     2 ; from OG2D4 CG2R63 NG2R61 CG331
    NN2U     CN1T     NN2G      CN1     9   180.000000    12.552000     2 ; NA T
    NN2U     CN1T     NN2G      CN8     9   180.000000    46.024000     2 ; from NG2R61 CG2R63 NG2R61 CG331
    NN2U     CN1T     NN2G      CN9     9   180.000000    46.024000     2 ; from NG2R61 CG2R63 NG2R61 CG331
     HN2     NN2U      CN5     CN5G     9   180.000000     4.184000     2 ; from CG2R61 CG2R61 NG2R61 HGP1
    CN1T     NN2G      CN8      HN8     9     0.000000     0.794960     3 ; from HGA3 CG331 NG2R61 CG2R63
    CN1T     NN2G      CN9      HN9     9     0.000000     0.794960     3 ; from HGA3 CG331 NG2R61 CG2R63
    CN1T     NN2G      CN8      CN8     9     0.000000     7.531200     1 ; from CG321 CG321 NG2S1 CG2O1
    CN1T     NN2G      CN8      CN9     9     0.000000     7.531200     1 ; from CG321 CG321 NG2S1 CG2O1
     CN1     NN2G      CN8      HN8     9     0.000000     0.794960     3 ; from HGA3 CG331 NG2R61 CG2R63
     CN1     NN2G      CN9      HN9     9     0.000000     0.794960     3 ; from HGA3 CG331 NG2R61 CG2R63
     CN1     NN2G      CN8      CN8     9     0.000000     7.531200     1 ; from CG321 CG321 NG2S1 CG2O1
     CN1     NN2G      CN8      CN9     9     0.000000     7.531200     1 ; from CG321 CG321 NG2S1 CG2O1

; specific (non-wildcard) dihedral parameters from toppar_c36_jul22/stream/na/toppar_all36_na_nad_ppi.str
;      i        j        k        l  func         phi0         kphi  mult
     ON4        P      ON2     CN7B     9     0.000000     3.974800     2 ; for NADPH
     ON4        P      ON2     CN7B     9     0.000000     2.092000     3 ; for NADPH
     CN3      NN2     CN3B     HN3B     9   180.000000    29.288000     2 ; nad/ppi, jjp1/adm jr. 7/95
     HN2      NN2     CN3B     HN3B     9   180.000000    12.552000     2 ; nad/ppi, jjp1/adm jr. 7/95
    HN3B      CN3     CN3A     HN3B     9   180.000000     8.368000     2 ; nad/ppi, jjp1/adm jr. 7/95
    HN3B      CN3     CN3B     HN3B     9   180.000000     4.184000     2 ; nad/ppi, jjp1/adm jr. 7/95
     NN2     CN3B      CN3     HN3B     9   180.000000    29.288000     2 ; nad/ppi, jjp1/adm jr. 7/95
     CN3     CN1A      CN3     HN3B     9   180.000000    29.288000     2 ; nad/ppi, jjp1/adm jr. 7/95
    CN1A      CN3     CN3B     HN3B     9   180.000000     4.184000     2 ; nad/ppi, jjp1/adm jr. 7/95
    CN1A      CN3     CN3A     HN3B     9   180.000000    20.920000     2 ; nad/ppi, jjp1/adm jr. 7/95
     CN3     CN1A      CN3      HN3     9   180.000000    29.288000     2 ; nad/ppi, jjp1/adm jr. 7/95
    CN1A      CN3      CN3      HN3     9   180.000000     4.184000     2 ; nad/ppi, jjp1/adm jr. 7/95
    CN3A      CN3     CN1A      ON1     9   180.000000     9.957920     2 ; nad/ppi, jjp1/adm jr. 7/95
    CN3B      CN3     CN1A      ON1     9   180.000000     9.957920     2 ; nad/ppi, jjp1/adm jr. 7/95
    CN3A      CN3     CN1A      NN1     9   180.000000     1.464400     1 ; nad/ppi, jjp1/adm jr. 7/95
    CN3A      CN3     CN1A      NN1     9     0.000000     2.594080     2 ; nad/ppi, jjp1/adm jr. 7/95
    CN3B      CN3     CN1A      NN1     9     0.000000     1.464400     1 ; nad/ppi, jjp1/adm jr. 7/95
    CN3B      CN3     CN1A      NN1     9     0.000000     2.594080     2 ; nad/ppi, jjp1/adm jr. 7/95
     CN3     CN3A      CN3     CN1A     9   180.000000    12.552000     2 ; nad/ppi, jjp1/adm jr. 7/95
     CN3     CN3A      CN3     CN3B     9   180.000000    25.104000     2 ; nad/ppi, jjp1/adm jr. 7/95
     NN2     CN3B      CN3     CN3A     9   180.000000    29.288000     2 ; nad/ppi, jjp1/adm jr. 7/95
    CN3B      NN2     CN3B      CN3     9   180.000000    16.736000     2 ; nad/ppi, jjp1/adm jr. 7/95
     CN8      CN3     CN1A      ON1     9   180.000000     4.184000     2 ; nadh, jjp1,adm jr. 4/95
     CN8      CN3     CN1A      ON1     9     0.000000     4.184000     3 ; nadh, jjp1,adm jr. 4/95
     CN8      CN3     CN1A      ON1     9     0.000000     1.673600     6 ; nadh, jjp1,adm jr. 4/95
     CN8      CN3     CN1A      NN1     9   180.000000     2.092000     2 ; nadh, jjp1,adm jr. 4/95
     CN8      CN3     CN1A      NN1     9   180.000000     1.464400     3 ; nadh, jjp1,adm jr. 4/95
     CN8      CN3     CN1A      NN1     9     0.000000     1.673600     6 ; nadh, jjp1,adm jr. 4/95
    CN3C      CN3     CN1A      ON1     9     0.000000     1.255200     1 ; nadh, jjp1,adm jr. 4/95
    CN3C      CN3     CN1A      ON1     9   180.000000     8.158800     2 ; nadh, jjp1,adm jr. 4/95
    CN3C      CN3     CN1A      NN1     9   180.000000     4.602400     1 ; nadh, jjp1,adm jr. 4/95
    CN3C      CN3     CN1A      NN1     9   180.000000     8.158800     2 ; nadh, jjp1,adm jr. 4/95
     HN2      NN2     CN3C      HN3     9   180.000000    16.736000     2 ; nad/ppi, jjp1/adm jr. 7/95
     CN3      NN2     CN3C      HN3     9   180.000000    29.288000     2 ; nad/ppi, jjp1/adm jr. 7/95
     NN2     CN3C      CN3      HN3     9   180.000000    29.288000     2 ; nad/ppi, jjp1/adm jr. 7/95
     CN8      CN3     CN3C      NN2     9   180.000000     0.418400     2 ; nad/ppi, jjp1/adm jr. 7/95
    CN3C      CN3      CN8      CN3     9   180.000000    16.736000     3 ; nad/ppi, jjp1/adm jr. 7/95
    CN1A      CN3     CN3C      NN2     9   180.000000    10.460000     2 ; nad/ppi, jjp1/adm jr. 7/95
    CN3C      NN2     CN3C      CN3     9   180.000000     0.418400     2 ; nad/ppi, jjp1/adm jr. 7/95
     HN7      CN7      CN7      CN7     9     0.000000     0.815880     3 ; 
     HN7     CN7B      NN2     CN3B     9     0.000000     0.815880     3 ; 
     HN7     CN7B      NN2     CN3C     9     0.000000     0.815880     3 ; 
     HN7      CN7     CN7B      ON6     9     0.000000     0.815880     3 ; 
     HN7      CN7     CN7B      ON2     9     0.000000     0.815880     3 ; 
     HN7      CN7     CN7B      NN2     9     0.000000     0.815880     3 ; 
     ON6     CN7B      CN7      ON5     9   180.000000    14.225600     1 ; gam
     CN7     CN7B      NN2     CN3B     9     0.000000     0.000000     3 ; 
     CN8     CN7B      NN2     CN3B     9     0.000000     0.000000     3 ; 25P1
    CN7B     CN7B      NN2     CN3B     9     0.000000     0.000000     3 ; for NADPH
     ON6     CN7B      NN2     CN3B     9     0.000000     0.000000     3 ; 
    ON6B     CN7B      NN2     CN3B     9     0.000000     0.000000     3 ; for NADPH
     CN7     CN7B      NN2     CN3C     9     0.000000     0.000000     3 ; 
    CN7B     CN7B      NN2     CN3C     9     0.000000     0.000000     3 ; for NADPH
     ON6     CN7B      NN2     CN3C     9     0.000000     0.000000     3 ; 
    ON6B     CN7B      NN2     CN3C     9     0.000000     0.000000     3 ; for NADPH
     CN7      CN7     CN7B      NN2     9     0.000000     0.000000     3 ; 
     CN8      CN7     CN7B      NN2     9     0.000000     0.000000     3 ; 25P1
     CN7     CN7B      NN2      CN5     9     0.000000     1.255200     3 ; NF
     CN7     CN7B      NN2      CN4     9   180.000000     0.000000     3 ; NF
     ON2      CN7     CN7B      NN2     9     0.000000     0.000000     3 ; 
     ON5      CN7     CN7B      NN2     9     0.000000     0.000000     3 ; 

; specific (non-wildcard) dihedral parameters from toppar_c36_jul22/stream/prot/toppar_all36_prot_arg0.str
;      i        j        k        l  func         phi0         kphi  mult
    CRN1     NRC4     CR33     HRA3     9   180.000000     0.460240     3 ; MGU1, methylguanidine
    NRN2     CRN1     NRC4     CR33     9   180.000000    27.196000     2 ; MGU1, methylguanidine
    NRC4     CRN1     NRN2     HRM2     9   180.000000     5.439200     3 ; MGU1, methylguanidine
    NRN2     CRN1     NRN2     HRM2     9   180.000000     5.439200     3 ; MGU1, methylguanidine
    NRC4     CRN1     NRN1     CR33     9   180.000000     2.092000     2 ; MGU2, methylguanidine2
    NRN2     CRN1     NRN1     CR33     9   180.000000     2.092000     2 ; MGU2, methylguanidine2
    HRP2     NRC4     CRN1     NRN2     9   180.000000    21.756800     2 ; MGU2, methylguanidine2
    HRP2     NRC4     CRN1     NRN1     9   180.000000    21.756800     2 ; MGU2, methylguanidine2
    HRM2     NRN2     CRN1     NRN1     9   180.000000     5.439200     3 ; MGU2, methylguanidine2
    NRC4     CRN1     NRN1     HRM1     9   180.000000    11.715200     3 ; MGU2, methylguanidine2
    NRN2     CRN1     NRN1     HRM1     9   180.000000    11.715200     3 ; MGU2, methylguanidine2
    CRN1     NRN1     CR33     HRA3     9   180.000000     0.000000     3 ; MGU2, methylguanidine2
    HRM1     NRN1     CR33     HRA3     9     0.000000     1.757280     3 ; MGU2, methylguanidine2
     CT2      CT2     NRC4     CRN1     9     0.000000     0.418400     3 ; RETINOL SCH1, Schiff's base, deprotonated
     CT2     NRC4     CRN1     NRN2     9   180.000000    27.196000     2 ; MGU1, methylguanidine
     HA2      CT2     NRC4     CRN1     9   180.000000     0.460240     3 ; MGU1, methylguanidine
     CT2      CT2     NRN1     HRM1     9   180.000000     1.255200     3 ; amines
     CT2      CT2     NRN1     CRN1     9   180.000000     1.255200     3 ; amines
     CT2     NRN1     CRN1     NRC4     9   180.000000     2.092000     2 ; MGU2, methylguanidine2
     HA2      CT2     NRN1     HRM1     9     0.000000     1.757280     3 ; MGU2, methylguanidine2
     HA2      CT2     NRN1     CRN1     9   180.000000     0.000000     3 ; MGU2, methylguanidine2
     CT2     NRN1     CRN1     NRN2     9   180.000000     2.092000     2 ; MGU2, methylguanidine2

; specific (non-wildcard) dihedral parameters from toppar_c36_jul22/stream/prot/toppar_all36_prot_c36m_d_aminoacids.str
;      i        j        k        l  func         phi0         kphi  mult
       C     CTD1      NH1        C     9   180.000000     0.836800     1 ; ALLOW PEP
      CC     CTD1      CT2       CA     9     0.000000     0.167360     3 ; ALLOW   ARO
      CC     CTD1      NH1        C     9   180.000000     0.836800     1 ; ALLOW PEP POL
      CD     CTD1      NH1        C     9   180.000000     0.836800     1 ; ALLOW PEP POL
    CTD1        C        N      CP1     9   180.000000    11.506000     2 ; ALLOW PRO
    CTD1        C        N      CP1     9     0.000000     1.255200     4 ; ALLOW PRO
    CTD1        C        N      CP3     9   180.000000    11.506000     2 ; ALLOW PRO
    CTD1        C        N      CP3     9     0.000000     1.255200     4 ; ALLOW PRO
    CTD1        C      NH1     CTD1     9     0.000000     6.694400     1 ; ALLOW PEP
    CTD1        C      NH1     CTD1     9   180.000000    10.460000     2 ; ALLOW PEP
     CT1      NH1        C     CTD1     9     0.000000     6.694400     1 ; ALLOW PEP ! mix L and D
     CT1      NH1        C     CTD1     9   180.000000    10.460000     2 ; ALLOW PEP ! mix L and D
     CT1        C      NH1     CTD1     9     0.000000     6.694400     1 ; ALLOW PEP ! mix L and D
     CT1        C      NH1     CTD1     9   180.000000    10.460000     2 ; ALLOW PEP ! mix L and D
     CT1     CTD1      NH1        C     9     0.000000     7.531200     1 ; ALLOW PEP ! mix L and D
    CTD1      CT1      NH1        C     9     0.000000     7.531200     1 ; ALLOW PEP ! mix L and D
    CTD1      NH1        C      CP1     9     0.000000     6.694400     1 ; ALLOW PEP PRO
    CTD1      NH1        C      CP1     9   180.000000    10.460000     2 ; ALLOW PEP PRO
     CT2        C      NH1     CTD1     9     0.000000     6.694400     1 ; ALLOW PEP
     CT2        C      NH1     CTD1     9   180.000000    10.460000     2 ; ALLOW PEP
     CT2     CTD1      NH1        C     9     0.000000     7.531200     1 ; ALLOW PEP
     CT2      NH1        C     CTD1     9     0.000000     6.694400     1 ; ALLOW PEP
     CT2      NH1        C     CTD1     9   180.000000    10.460000     2 ; ALLOW PEP
     CT3        C      NH1     CTD1     9     0.000000     6.694400     1 ; ALLOW PEP
     CT3        C      NH1     CTD1     9   180.000000    10.460000     2 ; ALLOW PEP
     CT3     CTD1      NH1        C     9     0.000000     7.531200     1 ; ALLOW PEP
     CT3      NH1        C     CTD1     9     0.000000     6.694400     1 ; ALLOW PEP
     CT3      NH1        C     CTD1     9   180.000000    10.460000     2 ; ALLOW PEP
       H      NH1        C     CTD1     9   180.000000    10.460000     2 ; ALLOW PEP
       H      NH1     CTD1        C     9     0.000000     0.000000     1 ; ALLOW PEP
       H      NH1     CTD1       CC     9     0.000000     0.000000     1 ; ALLOW PEP POL
       H      NH1     CTD1       CD     9     0.000000     0.000000     1 ; ALLOW PEP POL
       H      NH1     CTD1     CTD1     9     0.000000     0.000000     1 ; ALLOW PEP
       H      NH1      CT1     CTD1     9     0.000000     0.000000     1 ; ALLOW PEP ! mix L and D
       H      NH1     CTD1      CT1     9     0.000000     0.000000     1 ; ALLOW PEP
       H      NH1     CTD1      CT2     9     0.000000     0.000000     1 ; ALLOW PEP
       H      NH1     CTD1      CT3     9     0.000000     0.000000     1 ; ALLOW PEP
       H      NH2       CC     CTD1     9   180.000000     5.857600     2 ; ALLOW   PEP POL ARO PRO
       H      OH1     CTD1      CT1     9     0.000000     5.564720     1 ; ALLOW ALC ! mix L and D
       H      OH1     CTD1      CT1     9     0.000000     0.753120     2 ; ALLOW ALC ! mix L and D
       H      OH1     CTD1      CT1     9     0.000000     1.338880     3 ; ALLOW ALC ! mix L and D
       H      OH1     CTD1      CT3     9     0.000000     5.564720     1 ; ALLOW ALC
       H      OH1     CTD1      CT3     9     0.000000     0.753120     2 ; ALLOW ALC
       H      OH1     CTD1      CT3     9     0.000000     1.338880     3 ; ALLOW ALC
      HA     CTD1      CT2       CA     9     0.000000     0.167360     3 ; ALLOW   ARO
     HB1     CTD1      NH1        C     9     0.000000     0.000000     1 ; ALLOW PEP
     HB1     CTD1      NH1        H     9     0.000000     0.000000     1 ; ALLOW PEP
       N        C      CT1     CTD1     9     0.000000     0.000000     1 ; ALLOW PEP PRO ! mix L and D
       N        C     CTD1      CT1     9     0.000000     0.000000     1 ; ALLOW PEP PRO ! mix L and D
       N        C     CTD1      CT2     9     0.000000     0.000000     1 ; ALLOW PEP PRO
       N        C     CTD1      CT3     9     0.000000     0.000000     1 ; ALLOW PEP PRO
       N        C     CTD1      HB1     9     0.000000     0.000000     1 ; ALLOW PEP PRO
       N     CTD1      CT2       CA     9     0.000000     0.167360     3 ; ALLOW   ARO
     NH1        C      CT1     CTD1     9     0.000000     0.000000     1 ; ALLOW PEP ! mix L and D
     NH1        C     CTD1      CT1     9     0.000000     0.000000     1 ; ALLOW PEP ! mix L and D
     NH1        C     CTD1      CT2     9     0.000000     0.000000     1 ; ALLOW PEP
     NH1        C     CTD1      CT3     9     0.000000     0.000000     1 ; ALLOW PEP
     NH1        C     CTD1      HB1     9     0.000000     0.000000     1 ; ALLOW PEP
     NH1        C     CTD1      NH1     9     0.000000     2.510400     1 ; ALLOW PEP
     NH1     CTD1        C        N     9     0.000000     1.673600     1 ; ALLOW PEP PRO
     NH3     CTD1        C        N     9     0.000000     1.673600     1 ; ALLOW PEP PRO
     NH3     CTD1        C      NH1     9     0.000000     2.510400     1 ; ALLOW PEP PRO
     NH3     CTD1       CC      NH2     9     0.000000     1.673600     1 ; ALLOW PEP PRO
     NR3     CPH1      CT2     CTD1     9     0.000000     0.794960     3 ; ALLOW ARO
       O        C      CT1     CTD1     9     0.000000     5.857600     1 ; ALLOW PEP ! mix L and D
       O        C     CTD1      CT1     9     0.000000     5.857600     1 ; ALLOW PEP ! mix L and D
       O        C     CTD1      CT2     9     0.000000     5.857600     1 ; ALLOW PEP
       O        C     CTD1      CT3     9     0.000000     5.857600     1 ; ALLOW PEP
       O        C     CTD1      HB1     9     0.000000     0.000000     1 ; ALLOW PEP
       O        C     CTD1      NH1     9     0.000000     0.000000     1 ; ALLOW PEP
       O        C     CTD1      NH3     9     0.000000     0.000000     1 ; ALLOW PEP PRO
       O        C      NH1     CTD1     9   180.000000    10.460000     2 ; ALLOW PEP
      OC       CC     CTD1      NH3     9   180.000000    13.388800     2 ; ALLOW PEP PRO
      SM       SM      CT2     CTD1     9     0.000000     1.297040     3 ; ALLOW  SUL ALI
     NH1     CTD1      CT1      HA1     9     0.000000     0.836800     3 ; From X    CT1  CT1  X
     HB1     CTD1      CT1      HA1     9     0.000000     0.836800     3 ; From X    CT1  CT1  X
     HB1     CTD1      CT1      CT3     9     0.000000     0.836800     3 ; From X    CT1  CT1  X
     HA1      CT1     CTD1        C     9     0.000000     0.836800     3 ; From X    CT1  CT1  X
     NH1     CTD1      CT2      HA2     9     0.000000     0.836800     3 ; From X    CT1  CT2  X
     HB1     CTD1      CT2      HA2     9     0.000000     0.836800     3 ; From X    CT1  CT2  X
     HB1     CTD1      CT2      OH1     9     0.000000     0.836800     3 ; From X    CT1  CT2  X
     HB1     CTD1      CT2      CT2     9     0.000000     0.836800     3 ; From X    CT1  CT2  X
     HA2      CT2     CTD1        C     9     0.000000     0.836800     3 ; From X    CT1  CT2  X
     HB1     CTD1      CT2        S     9     0.000000     0.836800     3 ; From X    CT1  CT2  X
     HB1     CTD1      CT2       CC     9     0.000000     0.836800     3 ; From X    CT1  CT2  X
     HB1     CTD1      CT2       CY     9     0.000000     0.836800     3 ; From X    CT1  CT2  X
     HB1     CTD1      CT2     CPH1     9     0.000000     0.836800     3 ; From X    CT1  CT2  X
     HB1     CTD1      CT1      CT2     9     0.000000     0.836800     3 ; From X    CT1  CT1  X
     HB1     CTD1      CT2      CT1     9     0.000000     0.836800     3 ; From X    CT1  CT2  X
     HB1     CTD1      CT2       CA     9     0.000000     0.836800     3 ; From X    CT1  CT2  X
     HB1     CTD1      CT1      OH1     9     0.000000     0.836800     3 ; From X    CT1  CT1  X
     NH1     CTD1     CT2A      HA2     9     0.000000     0.836800     3 ; From X    CT1  CT2  X
    CTD1     CT2A      CT2      HA2     9     0.000000     0.794960     3 ; From X    CT2  CT2  X
     HB1     CTD1     CT2A      HA2     9     0.000000     0.836800     3 ; From X    CT1  CT2  X
     HB1     CTD1     CT2A      CT2     9     0.000000     0.836800     3 ; From X    CT1  CT2  X
     HA2     CT2A     CTD1        C     9     0.000000     0.836800     3 ; From X    CT1  CT2  X
     HA2     CT2A     CTD1       CC     9     0.000000     0.836800     3 ; RB: added for C-ter Glu
     HB1     CTD1     CT2A     CPH1     9     0.000000     0.836800     3 ; From X    CT1  CT2  X
       C      NH1     CTD1     CT2A     9     0.000000     7.531200     1 ; from CT2  CT1  NH1  C
       H      NH1     CTD1     CT2A     9     0.000000     0.000000     1 ; from H    NH1  CT1  CT2
    CT2A     CTD1        C        O     9     0.000000     5.857600     1 ; from O    C    CT1  CT2
    CT2A     CTD1        C      NH1     9     0.000000     0.000000     1 ; NH1  C    CT1  CT2
    CT2A     CTD1        C        N     9     0.000000     0.000000     1 ; RB: added for GLU-PRO in UBQ
    CTD1     CT2A      CT2       CD     9     0.000000     0.794960     3 ; From X    CT2  CT2  X
       C     CTD1      CT2      CT2     9   180.000000     1.464400     1 ; -180, +60
       C     CTD1      CT2      CT2     9   180.000000     1.757280     2 ; -180, +60
       C     CTD1      CT2      CT2     9   180.000000     7.991440     3 ; 
     CT2      CT2     CTD1      NH1     9   180.000000     3.681920     1 ; 
     CT2      CT2     CTD1      NH1     9   180.000000     0.000000     2 ; (-180), +60
     CT2      CT2     CTD1      NH1     9     0.000000     7.949600     3 ; 
      CC      CT2      CT2     CTD1     9   180.000000     7.698560     1 ; (-180), -60, +60
      CC      CT2      CT2     CTD1     9   180.000000     3.514560     2 ; 
      CC      CT2      CT2     CTD1     9   180.000000     1.631760     3 ; 
    CTD1      CT2      CT2      CT2     9   180.000000     2.635920     1 ; 
    CTD1      CT2      CT2      CT2     9     0.000000     0.041840     2 ; 
    CTD1      CT2      CT2      CT2     9     0.000000     0.627600     3 ; 
    CTD1      CT2      CT2        S     9   180.000000     0.585760     1 ; 
    CTD1      CT2      CT2        S     9     0.000000     2.259360     2 ; 
    CTD1      CT2      CT2        S     9     0.000000     2.886960     3 ; 
       C     CTD1      CT2       CC     9   180.000000     5.899440     1 ; |
       C     CTD1      CT2       CC     9   180.000000     5.397360     2 ; HN-N
       C     CTD1      CT2       CC     9   180.000000     2.468560     3 ; |   HB1 OD1    HD21 (cis to OD1)
      CC      CT2     CTD1      NH1     9   180.000000     1.171520     1 ; |   |   ||    /
      CC      CT2     CTD1      NH1     9   180.000000     2.092000     2 ; HA-CA--CB--CG--ND2
      CC      CT2     CTD1      NH1     9     0.000000     1.589920     3 ; |   |         \
    CTD1      CT2       CC      NH2     9   180.000000     2.594080     1 ; |   HB2        HD22 (trans to OD1)
    CTD1      CT2       CC      NH2     9   180.000000     2.761440     2 ; O=C
    CTD1      CT2       CC      NH2     9   180.000000     3.012480     3 ; |
    CTD1      CT2       CC        O     9   180.000000     1.757280     1 ; 
    CTD1      CT2       CC        O     9   180.000000     0.627600     2 ; 
    CTD1      CT2       CC        O     9   180.000000     3.974800     3 ; 
    CTD1      CT2       CC       OC     9     0.000000     3.514560     1 ; 
    CTD1      CT2       CC       OC     9   180.000000     4.100320     2 ; 
    CTD1      CT2       CC       OC     9     0.000000     6.108640     3 ; 
    CTD1      CT2        S       HS     9     0.000000     0.836800     1 ; |
    CTD1      CT2        S       HS     9     0.000000     2.719600     2 ; HN-N
    CTD1      CT2        S       HS     9     0.000000     0.920480     3 ; |   HB1
       C     CTD1      CT2        S     9   180.000000     1.004160     1 ; |   |
       C     CTD1      CT2        S     9   180.000000     3.138000     2 ; HA-CA--CB--SG
       C     CTD1      CT2        S     9   180.000000     5.648400     3 ; |   |     \
     NH1     CTD1      CT2        S     9     0.000000     1.422560     1 ; |   HB2    HG1
     NH1     CTD1      CT2        S     9   180.000000     2.092000     2 ; O=C
     NH1     CTD1      CT2        S     9     0.000000     5.983120     3 ; |
      CC      CT2     CT2A     CTD1     9   180.000000     0.000000     1 ; |
      CC      CT2     CT2A     CTD1     9   180.000000     1.589920     2 ; HN-N
      CC      CT2     CT2A     CTD1     9   180.000000     2.468560     3 ; |   HB1 HG1   OE1
       C     CTD1     CT2A      CT2     9     0.000000     0.460240     1 ; |   |   |    //
       C     CTD1     CT2A      CT2     9   180.000000     4.100320     2 ; HA-CA--CB--CG--CD
       C     CTD1     CT2A      CT2     9   180.000000     6.694400     3 ; |   |   |    \
      CC     CTD1     CT2A      CT2     9   180.000000     6.694400     3 ; |   HB2 HG2   OE2(-)
     CT2     CT2A     CTD1      NH1     9     0.000000     1.255200     1 ; (-180), (-60)           !   O=C
     CT2     CT2A     CTD1      NH1     9     0.000000     1.464400     2 ; -180                    !     |
     CT2     CT2A     CTD1      NH1     9     0.000000     7.363840     3 ; 
    CPH1     CPH1      CT2     CTD1     9     0.000000     7.280160     1 ; |          HD1    HE1
    CPH1     CPH1      CT2     CTD1     9     0.000000     0.627600     2 ; HN-N           |     /
    CPH1     CPH1      CT2     CTD1     9   180.000000     3.221680     3 ; |   HB1    ND1--CE1
    CTD1      CT2     CPH1      NR1     9     0.000000     6.234160     1 ; |   |     /      ||
    CTD1      CT2     CPH1      NR1     9   180.000000     0.376560     2 ; HA-CA--CB--CG       ||
    CTD1      CT2     CPH1      NR1     9   180.000000     3.305360     3 ; |   |     \\     ||
    CTD1      CT2     CPH1      NR2     9     0.000000     4.560560     1 ; |   HB2    CD2--NE2
    CTD1      CT2     CPH1      NR2     9     0.000000     0.376560     2 ; O=C           |
    CTD1      CT2     CPH1      NR2     9   180.000000     2.803280     3 ; |          HD2
       C     CTD1      CT2     CPH1     9   180.000000     0.753120     1 ; 
       C     CTD1      CT2     CPH1     9   180.000000     2.677760     2 ; 
       C     CTD1      CT2     CPH1     9   180.000000     3.640080     3 ; 
    CPH1      CT2     CTD1      NH1     9     0.000000     0.000000     1 ; 
    CPH1      CT2     CTD1      NH1     9   180.000000     0.000000     2 ; 
    CPH1      CT2     CTD1      NH1     9     0.000000     3.765600     3 ; 
    CPH1     CPH1     CT2A     CTD1     9     0.000000     8.535360     1 ; 
    CPH1     CPH1     CT2A     CTD1     9     0.000000     1.840960     2 ; |          HD1    HE1
    CPH1     CPH1     CT2A     CTD1     9   180.000000     0.543920     3 ; HN-N           |     /
    CTD1     CT2A     CPH1      NR3     9   180.000000     2.217520     1 ; |   HB1    ND1--CE1
    CTD1     CT2A     CPH1      NR3     9   180.000000     1.757280     2 ; |   |     /      ||
    CTD1     CT2A     CPH1      NR3     9   180.000000     1.255200     3 ; HA-CA--CB--CG       ||
       C     CTD1     CT2A     CPH1     9   180.000000     7.322000     1 ; |   |     \\     ||
       C     CTD1     CT2A     CPH1     9     0.000000     0.543920     2 ; |   HB2    CD2--NE2(+)
       C     CTD1     CT2A     CPH1     9   180.000000     7.782240     3 ; O=C           |     \
    CPH1     CT2A     CTD1      NH1     9   180.000000     4.560560     1 ; |          HD2    HE2
    CPH1     CT2A     CTD1      NH1     9   180.000000     0.920480     2 ; 
    CPH1     CT2A     CTD1      NH1     9     0.000000     9.706880     3 ; 
    CTD1      CT1      CT2      CT3     9   180.000000     1.589920     1 ; |    HG21 HG22
    CTD1      CT1      CT2      CT3     9   180.000000     0.543920     2 ; HN-N      | /
    CTD1      CT1      CT2      CT3     9   180.000000     1.213360     3 ; |     CG2--HG23
       C     CTD1      CT1      CT2     9   180.000000     0.418400     1 ; -180,-,+60              !     |    /
       C     CTD1      CT1      CT2     9   180.000000     2.175680     2 ; HA-CA--CB-HB    HD1
       C     CTD1      CT1      CT2     9   180.000000     1.213360     3 ; |    \       /
     CT2      CT1     CTD1      NH1     9   180.000000     0.502080     1 ; |     CG1--CD--HD2
     CT2      CT1     CTD1      NH1     9   180.000000     1.506240     2 ; -180,-,-                !   O=C    / \     \
     CT2      CT1     CTD1      NH1     9     0.000000     1.715440     3 ; | HG11 HG12  HD3
    CTD1      CT2      CT1      CT3     9     0.000000     0.209200     1 ; |        HD11 HD12
    CTD1      CT2      CT1      CT3     9   180.000000     0.418400     2 ; HN-N          | /
    CTD1      CT2      CT1      CT3     9   180.000000     0.041840     3 ; |   HB1   CD1--HD13
       C     CTD1      CT2      CT1     9   180.000000     1.338880     1 ; |   |    /
       C     CTD1      CT2      CT1     9   180.000000     2.552240     2 ; -60                     !  HA-CA--CB--CG-HG
       C     CTD1      CT2      CT1     9   180.000000     3.012480     3 ; |   |    \
     CT1      CT2     CTD1      NH1     9   180.000000     2.008320     1 ; |   HB2   CD2--HD23
     CT1      CT2     CTD1      NH1     9   180.000000     1.757280     2 ; O=C          | \
     CT1      CT2     CTD1      NH1     9     0.000000     2.719600     3 ; |        HD21 HD22
      CA       CA      CT2     CTD1     9     0.000000     4.476880     1 ; 
      CA       CA      CT2     CTD1     9   180.000000     1.004160     2 ; 
      CA       CA      CT2     CTD1     9   180.000000     0.711280     3 ; 
       C     CTD1      CT2       CA     9   180.000000     5.355520     1 ; (-180),-60,+60
       C     CTD1      CT2       CA     9   180.000000     3.932960     2 ; -60
       C     CTD1      CT2       CA     9   180.000000     6.568880     3 ; all
      CA      CT2     CTD1      NH1     9   180.000000     2.175680     1 ; -60,+60
      CA      CT2     CTD1      NH1     9   180.000000     2.594080     2 ; -60,+60
      CA      CT2     CTD1      NH1     9     0.000000     6.610720     3 ; none
    CTD1      CT2      OH1        H     9     0.000000     0.083680     1 ; |
    CTD1      CT2      OH1        H     9     0.000000     2.343040     2 ; HN-N
    CTD1      CT2      OH1        H     9     0.000000     2.050160     3 ; |   HB1
       C     CTD1      CT2      OH1     9   180.000000     2.719600     1 ; |   |
       C     CTD1      CT2      OH1     9   180.000000     1.046000     2 ; HA-CA--CB--OG
       C     CTD1      CT2      OH1     9   180.000000     4.895280     3 ; |   |     \
     NH1     CTD1      CT2      OH1     9   180.000000     0.753120     1 ; |   HB2    HG1
     NH1     CTD1      CT2      OH1     9   180.000000     0.794960     2 ; O=C
     NH1     CTD1      CT2      OH1     9     0.000000     6.108640     3 ; |
    CTD1      CT1      OH1        H     9     0.000000     0.753120     1 ; |
    CTD1      CT1      OH1        H     9     0.000000     0.251040     2 ; HN-N
    CTD1      CT1      OH1        H     9     0.000000     1.046000     3 ; |     OG1--HG1
       C     CTD1      CT1      OH1     9   180.000000     3.305360     1 ; raise                      !     |    /
       C     CTD1      CT1      OH1     9   180.000000     1.631760     2 ; lower this value if needed  !  HA-CA--CB-HB
       C     CTD1      CT1      OH1     9   180.000000     4.142160     3 ; |    \
     NH1     CTD1      CT1      OH1     9     0.000000     0.376560     1 ; raise to lower -180        !     |     CG2--HG21
     NH1     CTD1      CT1      OH1     9   180.000000     0.794960     2 ; O=C    / \
     NH1     CTD1      CT1      OH1     9     0.000000     0.711280     3 ; | HG21 HG22
      CA       CY      CT2     CTD1     9     0.000000     0.125520     1 ; 
      CA       CY      CT2     CTD1     9     0.000000     2.301200     2 ; |                  HE3
      CA       CY      CT2     CTD1     9   180.000000     1.631760     3 ; HN-N                   |
     CPT       CY      CT2     CTD1     9   180.000000     1.506240     1 ; |   HB1            CE3
     CPT       CY      CT2     CTD1     9     0.000000     0.209200     2 ; |   |             /  \\
     CPT       CY      CT2     CTD1     9   180.000000     0.794960     3 ; HA-CA--CB---CG-----CD2   CZ3-HZ3
       C     CTD1      CT2       CY     9   180.000000     4.560560     1 ; modulates -180, +60        !     |   |    ||     ||     |
       C     CTD1      CT2       CY     9   180.000000     2.092000     2 ; modulates -180, +60        !     |   HB2  CD1    CE2   CH2-HH2
       C     CTD1      CT2       CY     9   180.000000     4.895280     3 ; O=C       /   \   / \  //
      CY      CT2     CTD1      NH1     9   180.000000     1.213360     1 ; modulates -180             !     |     HD1    NE1   CZ2
      CY      CT2     CTD1      NH1     9   180.000000     2.761440     2 ; modulates -60,60           !                   |     |
      CY      CT2     CTD1      NH1     9     0.000000     4.895280     3 ; HE1   HZ2
       C     CTD1      CT1      CT3     9   180.000000     0.585760     1 ; |    HG11 HG12
       C     CTD1      CT1      CT3     9   180.000000     1.087840     2 ; HN-N      | /
       C     CTD1      CT1      CT3     9   180.000000     1.380720     3 ; |     CG1--HG13
     CT3      CT1     CTD1      NH1     9     0.000000     0.753120     1 ; |    /
     CT3      CT1     CTD1      NH1     9     0.000000     0.251040     2 ; HA-CA--CB-HB
     CT3      CT1     CTD1      NH1     9     0.000000     2.468560     3 ; |    \
       C        N     CPD1        C     9     0.000000     3.347200     3 ; 
      CC     CPD1        N        C     9     0.000000     3.347200     3 ; 
      CD     CPD1        N        C     9   180.000000     0.000000     1 ; 
     CP1        C        N     CPD1     9   180.000000    11.506000     2 ; 
     CP1        C        N     CPD1     9     0.000000     1.255200     4 ; 
    CPD1        C        N     CPD1     9   180.000000    11.506000     2 ; 
    CPD1        C        N     CPD1     9     0.000000     1.255200     4 ; 
     CP2     CPD1        N        C     9     0.000000     3.347200     3 ; 
     CP2      CP3        N     CPD1     9     0.000000     0.418400     3 ; 
     CP2      CP3       NP     CPD1     9     0.000000     0.334720     3 ; 
     CP3        N        C     CPD1     9   180.000000    11.506000     2 ; 
     CP3        N        C     CPD1     9     0.000000     1.255200     4 ; 
     CP3        N     CPD1        C     9     0.000000     0.418400     3 ; 
     CP3        N     CPD1       CC     9     0.000000     0.418400     3 ; 
     CP3        N     CPD1      CP2     9     0.000000     0.418400     3 ; 
     CP3       NP     CPD1        C     9     0.000000     0.334720     3 ; 
     CP3       NP     CPD1       CC     9     0.000000     0.334720     3 ; 
     CP3       NP     CPD1       CD     9     0.000000     0.334720     3 ; 
     CP3       NP     CPD1      CP2     9     0.000000     0.334720     3 ; 
     CT1        C        N     CPD1     9   180.000000    11.506000     2 ; 
     CT1        C        N     CPD1     9     0.000000     1.255200     4 ; 
    CTD1        C        N     CPD1     9   180.000000    11.506000     2 ; 
    CTD1        C        N     CPD1     9     0.000000     1.255200     4 ; 
     CT1      NH1        C     CPD1     9     0.000000     6.694400     1 ; 
     CT1      NH1        C     CPD1     9   180.000000    10.460000     2 ; 
    CTD1      NH1        C     CPD1     9     0.000000     6.694400     1 ; 
    CTD1      NH1        C     CPD1     9   180.000000    10.460000     2 ; 
     CT2        C        N     CPD1     9   180.000000    11.506000     2 ; 
     CT2        C        N     CPD1     9     0.000000     1.255200     4 ; 
     CT2      NH1        C     CPD1     9     0.000000     6.694400     1 ; 
     CT2      NH1        C     CPD1     9   180.000000    10.460000     2 ; 
     CT3        C        N     CPD1     9   180.000000    11.506000     2 ; 
     CT3        C        N     CPD1     9     0.000000     1.255200     4 ; 
     CT3      NH1        C     CPD1     9     0.000000     6.694400     1 ; 
     CT3      NH1        C     CPD1     9   180.000000    10.460000     2 ; 
       H      NH1        C     CPD1     9   180.000000    10.460000     2 ; 
       H      NH2       CC     CPD1     9   180.000000    10.460000     2 ; 
     HA2      CP3        N     CPD1     9     0.000000     0.418400     3 ; 
     HA2      CP3       NP     CPD1     9     0.000000     0.334720     3 ; 
     HB1     CPD1        N        C     9     0.000000     3.347200     3 ; 
     HB1     CPD1        N      CP3     9     0.000000     0.418400     3 ; 
     HB1     CPD1       NP      CP3     9     0.000000     0.334720     3 ; 
      HC       NP     CPD1        C     9     0.000000     0.334720     3 ; 
      HC       NP     CPD1       CC     9     0.000000     0.334720     3 ; 
      HC       NP     CPD1       CD     9     0.000000     0.334720     3 ; 
      HC       NP     CPD1      CP2     9     0.000000     0.334720     3 ; 
      HC       NP     CPD1      HB1     9     0.000000     0.334720     3 ; 
       N        C     CPD1      CP2     9     0.000000     1.673600     1 ; 
       N        C     CPD1      CP2     9     0.000000     2.510400     2 ; 
       N        C     CPD1      HB1     9   180.000000     1.673600     1 ; 
       N        C     CPD1      HB1     9     0.000000     2.510400     2 ; 
       N        C     CPD1        N     9     0.000000     1.255200     1 ; 
       N        C     CPD1        N     9     0.000000    -1.255200     4 ; 
     NH1        C     CPD1      CP2     9     0.000000     1.673600     1 ; 
     NH1        C     CPD1      CP2     9     0.000000     2.510400     2 ; 
     NH1        C     CPD1      HB1     9   180.000000     1.673600     1 ; 
     NH1        C     CPD1      HB1     9     0.000000     2.510400     2 ; 
     NH1        C     CPD1        N     9     0.000000     1.255200     1 ; 
     NH1        C     CPD1        N     9     0.000000    -1.255200     4 ; 
     NH2       CC     CPD1      CP2     9     0.000000     1.673600     1 ; 
     NH2       CC     CPD1      CP2     9     0.000000     2.510400     2 ; 
     NH2       CC     CPD1      HB1     9   180.000000     1.673600     1 ; 
     NH2       CC     CPD1      HB1     9     0.000000     2.510400     2 ; 
     NH2       CC     CPD1        N     9     0.000000     1.255200     1 ; 
     NH2       CC     CPD1        N     9     0.000000    -1.255200     4 ; 
      NP     CPD1        C        N     9     0.000000     1.255200     1 ; 
      NP     CPD1        C      NH1     9     0.000000     1.255200     1 ; 
      NP     CPD1       CC      NH2     9     0.000000     1.255200     1 ; 
       O        C     CPD1      CP2     9   180.000000     1.673600     1 ; 
       O        C     CPD1      CP2     9     0.000000     2.510400     2 ; 
       O        C     CPD1      HB1     9     0.000000     1.673600     1 ; 
       O        C     CPD1      HB1     9     0.000000     2.510400     2 ; 
       O        C     CPD1        N     9     0.000000    -1.255200     4 ; 
       O        C        N     CPD1     9   180.000000    11.506000     2 ; 
       O        C        N     CPD1     9     0.000000     1.255200     4 ; 
       O       CC     CPD1      CP2     9   180.000000     1.673600     1 ; 
       O       CC     CPD1      CP2     9     0.000000     2.510400     2 ; 
       O       CC     CPD1      HB1     9     0.000000     1.673600     1 ; 
       O       CC     CPD1      HB1     9     0.000000     2.510400     2 ; 
       O       CC     CPD1        N     9     0.000000    -1.255200     4 ; 
      OC       CC     CPD1      CP2     9     0.000000     0.669440     3 ; 
      OC       CC     CPD1      HB1     9     0.000000     0.669440     3 ; 
      OC       CC     CPD1        N     9     0.000000     0.669440     3 ; 
      OC       CC     CPD1       NP     9     0.000000     0.669440     3 ; 

; specific (non-wildcard) dihedral parameters from toppar_c36_jul22/stream/prot/toppar_all36_prot_fluoro_alkanes.str
;      i        j        k        l  func         phi0         kphi  mult
       H      OH1      CT2      CF3     9     0.000000     1.673600     1 ; triflouroethanol
       H      OH1      CT2      CF3     9     0.000000     3.765600     2 ; 
       H      OH1      CT2      CF3     9     0.000000     2.928800     3 ; 
       H      OH1      CT2      CF3     9     0.000000     0.502080     4 ; 
     HA2      CT2      CF3       F3     9     0.000000     0.661072     3 ; 
     OH1      CT2      CF3       F3     9     0.000000     1.046000     3 ; 

; specific (non-wildcard) dihedral parameters from toppar_c36_jul22/stream/prot/toppar_all36_prot_heme.str
;      i        j        k        l  func         phi0         kphi  mult
     HE2      CE2      CE1      CPB     9   180.000000    21.756800     2 ; 

; specific (non-wildcard) dihedral parameters from toppar_c36_jul22/stream/prot/toppar_all36_prot_model.str
;      i        j        k        l  func         phi0         kphi  mult
      C3       C3       C3      HB2     9     0.000000     0.418400     6 ; hf/6-31g* cyclopropane
     HB2       C3       C3      HB2     9   180.000000     0.836800     5 ; hf/6-31g* cyclopropane
     CT3        S      CT2      CT1     9   180.000000     1.004160     1 ; ALOW    ALI SUL ION
     CT3        S      CT2      CT1     9     0.000000     1.548080     3 ; ALOW    ALI SUL ION
     CT1     CT2A      CT1      NH3     9     0.000000     0.794960     3 ; From X    CT2  CT2  X  !temporary RJP
     HA1      CT1     CT2A      CT1     9     0.000000     0.836800     3 ; From X    CT1  CT2  X  !temporary RJP
      CC      CT1     CT2A      CT1     9     0.000000     0.836800     3 ; From X    CT1  CT2  X  !temporary RJP
      CD      CT1     CT2A      CT1     9     0.000000     0.836800     3 ; From X    CT1  CT2  X  !temporary RJP
     HB1      CT1     CT2A      CT1     9     0.000000     0.836800     3 ; From X    CT1  CT2  X  !temporary RJP
     HA1      CT1     CT2A      HA2     9     0.000000     0.836800     3 ; From X    CT1  CT2  X  !temporary RJP
       C      CT1     CT2A      CT1     9     0.000000     0.460240     1 ; from fitted GLU   !temporary RJP
       C      CT1     CT2A      CT1     9   180.000000     4.100320     2 ; from fitted GLU   !temporary RJP
       C      CT1     CT2A      CT1     9   180.000000     6.694400     3 ; from fitted GLU   !temporary RJP
     CT1     CT2A      CT1      NH1     9   180.000000     3.681920     1 ; from fitted GLU   !temporary RJP
     CT1     CT2A      CT1      NH1     9   180.000000     0.000000     2 ; from fitted GLU   !temporary RJP
     CT1     CT2A      CT1      NH1     9     0.000000     7.949600     3 ; from fitted GLU   !temporary RJP

; specific (non-wildcard) dihedral parameters from toppar_c36_jul22/stream/prot/toppar_all36_prot_modify_res.str
;      i        j        k        l  func         phi0         kphi  mult
     CT1      CT2        C      NH1     9   180.000000     0.209200     6 ; DKAM, from CT2 CT2 CC NH2 , kevo
     CT1      CT2        C        O     9   180.000000     0.209200     6 ; DKAM, from CT2 CT2 CC O   , kevo
      CS       SS       ZN       SS     9     0.000000     0.000000     3 ; Dummy for Anionic Cys-Zn bond
     HA2       CS       SS       ZN     9     0.000000     0.000000     3 ; Dummy for Anionic Cys-Zn bond
     CT1       CS       SS       ZN     9     0.000000     0.000000     3 ; Dummy for Anionic Cys-Zn bond
      ZN       SS       ZN       SS     9     0.000000     0.000000     3 ; Dummy for Anionic Cys-Zn bond
      SS       ZN      NR2     CPH1     9     0.000000     0.000000     3 ; 
      SS       ZN      NR2     CPH2     9     0.000000     0.000000     3 ; 
     CT2       SS       ZN      NR2     9     0.000000     0.000000     3 ; 
      ZN      NR2     CPH2      NR1     9     0.000000     0.000000     3 ; 
      ZN      NR2     CPH1     CPH1     9     0.000000     0.000000     3 ; 
      ZN      NR2     CPH1      CT2     9     0.000000     0.000000     3 ; 
      ZN      NR2     CPH2      HR1     9     0.000000     0.000000     3 ; 
      CS       SS       ZN      NR2     9     0.000000     0.000000     3 ; 
     NR2       ZN      NR2     CPH1     9     0.000000     0.000000     3 ; 
     NR2       ZN      NR2     CPH2     9     0.000000     0.000000     3 ; 
     HR3     CPH1      NR2       ZN     9     0.000000     0.000000     3 ; 
     CT3       CT     CT2A      HA2     9     0.000000     0.794960     3 ; ASM
    CT2A       CT      CT3      HA3     9     0.000000     0.669440     3 ; ASM
     CT3       CT     CT2A       CC     9     0.000000     0.836800     3 ; ASM
     CT3       CT      CT2      CT1     9     0.000000     0.836800     3 ; LEM
       C       CT      NH1        C     9   180.000000     4.560560     1 ; RMSE = 1.10565
       C       CT      NH1        C     9   180.000000     1.338880     2 ; RMSE = 1.10565
       C       CT      NH1        C     9     0.000000     0.418400     3 ; RMSE = 1.10565
     NH1        C       CT      NH1     9     0.000000     0.167360     1 ; RMSE = 1.10565
     NH1        C       CT      NH1     9   180.000000     4.476880     2 ; RMSE = 1.10565
     NH1        C       CT      NH1     9   180.000000     1.046000     3 ; RMSE = 1.10565
     CT3       CT      NH1        C     9     0.000000     0.000000     1 ; decided to set these to zero in RMSE = 1.10565 fit
       O        C       CT      CT3     9     0.000000     0.000000     1 ; decided to set these to zero in RMSE = 1.10565 fit
     NH1        C       CT      CT3     9     0.000000     0.000000     1 ; decided to set these to zero in RMSE = 1.10565 fit
       O        C       CT      NH1     9     0.000000     0.000000     1 ; decided to set these to zero in RMSE = 1.10565 fit
       H      NH1       CT        C     9     0.000000     0.000000     1 ; ALLOW PEP
       H      NH1       CT      CT3     9     0.000000     0.000000     1 ; ALLOW PEP
       H      NH1        C       CT     9   180.000000    10.460000     2 ; ALLOW PEP
       O        C      NH1       CT     9   180.000000    10.460000     2 ; ALLOW PEP
     NH1       CT      CT3      HA3     9     0.000000     0.836800     3 ; ALLOW ALI
       C       CT      CT3      HA3     9     0.000000     0.836800     3 ; ALLOW ALI
     CT3        C      NH1       CT     9     0.000000     6.694400     1 ; ALLOW PEP
     CT3        C      NH1       CT     9   180.000000    10.460000     2 ; ALLOW PEP
     CT3      NH1        C       CT     9     0.000000     6.694400     1 ; ALLOW PEP
     CT3      NH1        C       CT     9   180.000000    10.460000     2 ; ALLOW PEP
     CT1        C      NH1       CT     9     0.000000     6.694400     1 ; ALLOW PEP
     CT1        C      NH1       CT     9   180.000000    10.460000     2 ; ALLOW PEP
      CT        C      NH1      CT1     9     0.000000     6.694400     1 ; ALLOW PEP
      CT        C      NH1      CT1     9   180.000000    10.460000     2 ; ALLOW PEP
      CT        C      NH1       CT     9     0.000000     6.694400     1 ; ALLOW PEP
      CT        C      NH1       CT     9   180.000000    10.460000     2 ; ALLOW PEP
     CT2       CT      NH1        C     9     0.000000     0.000000     1 ; Set to 0 because same as CT3 CT NH1 C 1.8 1 0 ; kevo
       C      NH1       CT     CT2A     9     0.000000     0.000000     1 ; Set to 0 because same as CT3 CT NH1 C 1.8 1 0 ; kevo
       O        C       CT      CT2     9     0.000000     0.000000     1 ; Set to 0 because same as O C CT CT3 1.4 1 0 ; kevo
    CT2A       CT        C        O     9     0.000000     0.000000     1 ; Set to 0 because same as O C CT CT3 1.4 1 0 ; kevo
       N        C       CT      CT2     9     0.000000     0.000000     1 ; Same as NH1 C CT CT3 ; kevo
     NH1        C       CT      CT2     9     0.000000     0.000000     1 ; Same as NH1 C CT CT3 ; kevo
    CT2A       CT        C      NH1     9     0.000000     0.000000     1 ; Same as NH1 C CT CT3 ; kevo
    CT2A       CT        C        N     9     0.000000     0.000000     1 ; Same as NH1 C CT CT3 ; kevo
       H      NH1       CT      CT2     9     0.000000     0.000000     1 ; Same as H NH1 CT CT3 ; kevo
       H      NH1       CT     CT2A     9     0.000000     0.000000     1 ; Same as H NH1 CT CT3 ; kevo
     NH1       CT      CT2      HA2     9     0.000000     0.836800     3 ; Same as NH1 CT CT3 HA3 ; kevo
     NH1       CT     CT2A      HA2     9     0.000000     0.836800     3 ; Same as NH1 CT CT3 HA3 ; kevo
     HA2      CT2       CT        C     9     0.000000     0.836800     3 ; Same as C CT CT3 HA3 ; kevo
     HA2     CT2A       CT        C     9     0.000000     0.836800     3 ; Same as C CT CT3 HA3 ; kevo
      SM       SM      CT2       CT     9     0.000000     1.297040     3 ; Terminal CA ==> ALLOW  SUL ALI
      CT      CT2      CT2      HA2     9     0.000000     0.794960     3 ; Terminal CA ==> From X    CT2  CT2  X
      CT     CT2A      CT2      HA2     9     0.000000     0.794960     3 ; Terminal CA ==> From X    CT2  CT2  X
      CT     CT2A      CT2       CD     9     0.000000     0.794960     3 ; Terminal CA ==> From X    CT2  CT2  X
       C       CT      CT2      CT2     9   180.000000     1.464400     1 ; Beyond CH3
       C       CT      CT2      CT2     9   180.000000     1.757280     2 ; Beyond CH3
       C       CT      CT2      CT2     9   180.000000     7.991440     3 ; Beyond CH3
     CT2      CT2       CT      NH1     9   180.000000     3.681920     1 ; Beyond CH3
     CT2      CT2       CT      NH1     9   180.000000     0.000000     2 ; Beyond CH3
     CT2      CT2       CT      NH1     9     0.000000     7.949600     3 ; Beyond CH3
      CC      CT2      CT2       CT     9   180.000000     7.698560     1 ; Terminal CA
      CC      CT2      CT2       CT     9   180.000000     3.514560     2 ; Terminal CA
      CC      CT2      CT2       CT     9   180.000000     1.631760     3 ; Terminal CA
      CT      CT2      CT2      CT2     9   180.000000     2.635920     1 ; Terminal CA
      CT      CT2      CT2      CT2     9     0.000000     0.041840     2 ; Terminal CA
      CT      CT2      CT2      CT2     9     0.000000     0.627600     3 ; Terminal CA
      CT      CT2      CT2        S     9   180.000000     0.585760     1 ; Terminal CA
      CT      CT2      CT2        S     9     0.000000     2.259360     2 ; Terminal CA
      CT      CT2      CT2        S     9     0.000000     2.886960     3 ; Terminal CA
       C       CT      CT2       CC     9   180.000000     5.899440     1 ; Beyond CH3
       C       CT      CT2       CC     9   180.000000     5.397360     2 ; Beyond CH3
       C       CT      CT2       CC     9   180.000000     2.468560     3 ; Beyond CH3
      CC      CT2       CT      NH1     9   180.000000     1.171520     1 ; Beyond CH3
      CC      CT2       CT      NH1     9   180.000000     2.092000     2 ; Beyond CH3
      CC      CT2       CT      NH1     9     0.000000     1.589920     3 ; Beyond CH3
      CT      CT2       CC      NH2     9   180.000000     2.594080     1 ; Terminal CA
      CT      CT2       CC      NH2     9   180.000000     2.761440     2 ; Terminal CA
      CT      CT2       CC      NH2     9   180.000000     3.012480     3 ; Terminal CA
      CT      CT2       CC        O     9   180.000000     1.757280     1 ; Terminal CA
      CT      CT2       CC        O     9   180.000000     0.627600     2 ; Terminal CA
      CT      CT2       CC        O     9   180.000000     3.974800     3 ; Terminal CA
       C       CT     CT2A       CC     9   180.000000     6.736240     1 ; Beyond CH3
       C       CT     CT2A       CC     9   180.000000     5.397360     2 ; Beyond CH3
       C       CT     CT2A       CC     9   180.000000     2.468560     3 ; Beyond CH3
      CC     CT2A       CT      NH1     9   180.000000     2.845120     1 ; Beyond CH3
      CC     CT2A       CT      NH1     9   180.000000     0.418400     2 ; Beyond CH3
      CC     CT2A       CT      NH1     9     0.000000     1.589920     3 ; Beyond CH3
      CT     CT2A       CC       OC     9     0.000000     3.514560     1 ; Terminal CA
      CT     CT2A       CC       OC     9   180.000000     4.100320     2 ; Terminal CA
      CT     CT2A       CC       OC     9     0.000000     6.108640     3 ; Terminal CA
      CT      CT2        S       HS     9     0.000000     0.836800     1 ; Terminal CA
      CT      CT2        S       HS     9     0.000000     2.719600     2 ; Terminal CA
      CT      CT2        S       HS     9     0.000000     0.920480     3 ; Terminal CA
       C       CT      CT2        S     9   180.000000     1.004160     1 ; Beyond CH3
       C       CT      CT2        S     9   180.000000     3.138000     2 ; Beyond CH3
       C       CT      CT2        S     9   180.000000     5.648400     3 ; Beyond CH3
     NH1       CT      CT2        S     9     0.000000     1.422560     1 ; Beyond CH3
     NH1       CT      CT2        S     9   180.000000     2.092000     2 ; Beyond CH3
     NH1       CT      CT2        S     9     0.000000     5.983120     3 ; Beyond CH3
      CC      CT2     CT2A       CT     9   180.000000     0.000000     1 ; Terminal CA
      CC      CT2     CT2A       CT     9   180.000000     1.589920     2 ; Terminal CA
      CC      CT2     CT2A       CT     9   180.000000     2.468560     3 ; Terminal CA
       C       CT     CT2A      CT2     9     0.000000     0.460240     1 ; Beyond CH3
       C       CT     CT2A      CT2     9   180.000000     4.100320     2 ; Beyond CH3
       C       CT     CT2A      CT2     9   180.000000     6.694400     3 ; Beyond CH3
      CC       CT     CT2A      CT2     9   180.000000     6.694400     3 ; Beyond CH3
     CT2     CT2A       CT      NH1     9     0.000000     1.255200     1 ; Beyond CH3
     CT2     CT2A       CT      NH1     9     0.000000     1.464400     2 ; Beyond CH3
     CT2     CT2A       CT      NH1     9     0.000000     7.363840     3 ; Beyond CH3
    CPH1     CPH1      CT2       CT     9     0.000000     7.280160     1 ; Terminal CA
    CPH1     CPH1      CT2       CT     9     0.000000     0.627600     2 ; Terminal CA
    CPH1     CPH1      CT2       CT     9   180.000000     3.221680     3 ; Terminal CA
      CT      CT2     CPH1      NR1     9     0.000000     6.234160     1 ; Terminal CA
      CT      CT2     CPH1      NR1     9   180.000000     0.376560     2 ; Terminal CA
      CT      CT2     CPH1      NR1     9   180.000000     3.305360     3 ; Terminal CA
      CT      CT2     CPH1      NR2     9     0.000000     4.560560     1 ; Terminal CA
      CT      CT2     CPH1      NR2     9     0.000000     0.376560     2 ; Terminal CA
      CT      CT2     CPH1      NR2     9   180.000000     2.803280     3 ; Terminal CA
       C       CT      CT2     CPH1     9   180.000000     0.753120     1 ; Beyond CH3
       C       CT      CT2     CPH1     9   180.000000     2.677760     2 ; Beyond CH3
       C       CT      CT2     CPH1     9   180.000000     3.640080     3 ; Beyond CH3
    CPH1      CT2       CT      NH1     9     0.000000     0.000000     1 ; Beyond CH3
    CPH1      CT2       CT      NH1     9   180.000000     0.000000     2 ; Beyond CH3
    CPH1      CT2       CT      NH1     9     0.000000     3.765600     3 ; Beyond CH3
    CPH1     CPH1     CT2A       CT     9     0.000000     8.535360     1 ; Terminal CA
    CPH1     CPH1     CT2A       CT     9     0.000000     1.840960     2 ; Terminal CA
    CPH1     CPH1     CT2A       CT     9   180.000000     0.543920     3 ; Terminal CA
      CT     CT2A     CPH1      NR3     9   180.000000     2.217520     1 ; Terminal CA
      CT     CT2A     CPH1      NR3     9   180.000000     1.757280     2 ; Terminal CA
      CT     CT2A     CPH1      NR3     9   180.000000     1.255200     3 ; Terminal CA
       C       CT     CT2A     CPH1     9   180.000000     7.322000     1 ; Beyond CH3
       C       CT     CT2A     CPH1     9     0.000000     0.543920     2 ; Beyond CH3
       C       CT     CT2A     CPH1     9   180.000000     7.782240     3 ; Beyond CH3
    CPH1     CT2A       CT      NH1     9   180.000000     4.560560     1 ; Beyond CH3
    CPH1     CT2A       CT      NH1     9   180.000000     0.920480     2 ; Beyond CH3
    CPH1     CT2A       CT      NH1     9     0.000000     9.706880     3 ; Beyond CH3
      CA       CA      CT2       CT     9     0.000000     4.476880     1 ; Terminal CA
      CA       CA      CT2       CT     9   180.000000     1.004160     2 ; Terminal CA
      CA       CA      CT2       CT     9   180.000000     0.711280     3 ; Terminal CA
       C       CT      CT2       CA     9   180.000000     5.355520     1 ; Beyond CH3
       C       CT      CT2       CA     9   180.000000     3.932960     2 ; Beyond CH3
       C       CT      CT2       CA     9   180.000000     6.568880     3 ; Beyond CH3
      CA      CT2       CT      NH1     9   180.000000     2.175680     1 ; Beyond CH3
      CA      CT2       CT      NH1     9   180.000000     2.594080     2 ; Beyond CH3
      CA      CT2       CT      NH1     9     0.000000     6.610720     3 ; Beyond CH3
      CT      CT2      OH1        H     9     0.000000     0.083680     1 ; Terminal CA
      CT      CT2      OH1        H     9     0.000000     2.343040     2 ; Terminal CA
      CT      CT2      OH1        H     9     0.000000     2.050160     3 ; Terminal CA
       C       CT      CT2      OH1     9   180.000000     2.719600     1 ; Beyond CH3
       C       CT      CT2      OH1     9   180.000000     1.046000     2 ; Beyond CH3
       C       CT      CT2      OH1     9   180.000000     4.895280     3 ; Beyond CH3
     NH1       CT      CT2      OH1     9   180.000000     0.753120     1 ; Beyond CH3
     NH1       CT      CT2      OH1     9   180.000000     0.794960     2 ; Beyond CH3
     NH1       CT      CT2      OH1     9     0.000000     6.108640     3 ; Beyond CH3
      CA       CY      CT2       CT     9     0.000000     0.125520     1 ; Terminal CA
      CA       CY      CT2       CT     9     0.000000     2.301200     2 ; Terminal CA
      CA       CY      CT2       CT     9   180.000000     1.631760     3 ; Terminal CA
     CPT       CY      CT2       CT     9   180.000000     1.506240     1 ; Terminal CA
     CPT       CY      CT2       CT     9     0.000000     0.209200     2 ; Terminal CA
     CPT       CY      CT2       CT     9   180.000000     0.794960     3 ; Terminal CA
       C       CT      CT2       CY     9   180.000000     4.560560     1 ; Beyond CH3
       C       CT      CT2       CY     9   180.000000     2.092000     2 ; Beyond CH3
       C       CT      CT2       CY     9   180.000000     4.895280     3 ; Beyond CH3
      CY      CT2       CT      NH1     9   180.000000     1.213360     1 ; Beyond CH3
      CY      CT2       CT      NH1     9   180.000000     2.761440     2 ; Beyond CH3
      CY      CT2       CT      NH1     9     0.000000     4.895280     3 ; Beyond CH3
       H      NH2       CT      CT2     9     0.000000     0.460240     3 ; From LSN HC-NH2-CT2-CT2; didn't change H NH1 CT CT3 so won't change this; kevo
      CC       CT      CT2       CA     9     0.000000     0.167360     3 ; ALLOW ARO; beyond CH3; kevo
     NH3       CT     CT2A      CT2     9     0.000000     0.836800     3 ; From X    CT1  CT2  X !N terminus ; beyond CH3; kevo
     HA2     CT2A       CT       CC     9     0.000000     0.836800     3 ; RB: added for C-ter Glu; same as C CT CT3 HA3; kevo
     HA2     CT2A       CT       CD     9     0.000000     0.836800     3 ; Same as C CT CT3 HA3 ; kevo
     NH3       CT     CT2A      HA2     9     0.000000     0.836800     3 ; Same as NH1 CT CT3 HA3 ; kevo
     NH3       CT     CT2A       CC     9     0.000000     0.836800     3 ; Beyond CH3
      CC     CT2A       CT       CC     9     0.000000     0.836800     3 ; Beyond CH3
    CPH1     CT2A       CT       CC     9     0.000000     0.836800     3 ; Beyond CH3
    CPH1     CT2A       CT      NH3     9     0.000000     0.836800     3 ; Beyond CH3
    CPH1     CT2A       CT       CD     9     0.000000     0.836800     3 ; Beyond CH3
     CT2     CT2A       CT       CD     9     0.000000     0.836800     3 ; Beyond CH3
      CC       CT      NH1        C     9   180.000000     0.836800     1 ; ALLOW PEP POL; would benefit from refitting; kevo
      CD       CT      NH1        C     9   180.000000     0.836800     1 ; ALLOW PEP POL; would benefit from refitting; kevo
       H      NH1       CT       CC     9     0.000000     0.000000     1 ; ALLOW PEP POL; same as H NH1 CT C; kevo
       H      NH1       CT       CD     9     0.000000     0.000000     1 ; ALLOW PEP POL; same as H NH1 CT C; kevo
       H      NH2       CC       CT     9   180.000000     5.857600     2 ; ALLOW PEP POL ARO PRO; terminal CA; just as transferable as H NH1 C CT ; kevo
     NH3       CT        C        N     9     0.000000     1.673600     1 ; ALLOW PEP PRO; would benefit from refitting; kevo
     NH3       CT        C      NH1     9     0.000000     2.510400     1 ; ALLOW PEP PRO; would benefit from refitting; kevo
       O        C       CT      NH3     9     0.000000     0.000000     1 ; ALLOW PEP PRO; would benefit from refitting; kevo
     NH3       CT      CT3      HA3     9     0.000000     0.836800     3 ; 
      CC       CT      CT3      HA3     9     0.000000     0.836800     3 ; 
     CT3       CT       CC       OC     9   180.000000     0.209200     6 ; 
     NH1       CT       CC       OC     9   180.000000     0.209200     6 ; 
     CT3       CT      NH3       HC     9     0.000000     0.418400     3 ; 
       C       CT      NH3       HC     9     0.000000     0.418400     3 ; 
     NH3       CT       CC       OC     9   180.000000     0.209200     6 ; 
      CC       CT      NH3       HC     9     0.000000     0.418400     3 ; 
      CT        C        N      CP1     9   180.000000    11.506000     2 ; ALLOW PRO; terminal CA; just as transferable as CT3 C NH1 CT ; kevo
      CT        C        N      CP1     9     0.000000     1.255200     4 ; ALLOW PRO; terminal CA; just as transferable as CT3 C NH1 CT ; kevo
      CT        C        N      CP3     9   180.000000    11.506000     2 ; ALLOW PRO; terminal CA; just as transferable as CT3 C NH1 CT ; kevo
      CT        C        N      CP3     9     0.000000     1.255200     4 ; ALLOW PRO; terminal CA; just as transferable as CT3 C NH1 CT ; kevo
      CT      NH1        C      CP1     9     0.000000     6.694400     1 ; ALLOW PEP PRO; terminal CA; kevo
      CT      NH1        C      CP1     9   180.000000    10.460000     2 ; ALLOW PEP PRO; terminal CA; kevo
     CT2        C      NH1       CT     9     0.000000     6.694400     1 ; ALLOW PEP; terminal CA; same as CT3 C NH1 CT ; kevo
     CT2        C      NH1       CT     9   180.000000    10.460000     2 ; ALLOW PEP; terminal CA; same as CT3 C NH1 CT ; kevo
     CT2      NH1        C       CT     9     0.000000     6.694400     1 ; ALLOW PEP; terminal CA; same as CT3 NH1 C CT ; kevo
     CT2      NH1        C       CT     9   180.000000    10.460000     2 ; ALLOW PEP; terminal CA; same as CT3 NH1 C CT ; kevo
       N        C       CT      CT3     9     0.000000     0.000000     1 ; ALLOW PEP PRO; same as NH1 C CT CT3; kevo
       N        C       CT      NH1     9   180.000000     0.669440     1 ; Optimized by kevo with -0.2 offset
       N        C       CT      NH1     9   180.000000     4.476880     2 ; Optimized by kevo
       N        C       CT      NH1     9   180.000000     1.046000     3 ; Optimized by kevo
      CT      CT2      CT1      HA1     9     0.000000     0.836800     3 ; From X    CT1  CT2  X
      CT      CT2      CT1      CT3     9     0.000000     0.209200     1 ; Beyond CH3
      CT      CT2      CT1      CT3     9   180.000000     0.418400     2 ; Beyond CH3
      CT      CT2      CT1      CT3     9   180.000000     0.041840     3 ; Beyond CH3
       C       CT      CT2      CT1     9   180.000000     1.338880     1 ; Terminal CA
       C       CT      CT2      CT1     9   180.000000     2.552240     2 ; Terminal CA
       C       CT      CT2      CT1     9   180.000000     3.012480     3 ; Terminal CA
     CT1      CT2       CT      NH1     9   180.000000     2.008320     1 ; Terminal CA
     CT1      CT2       CT      NH1     9   180.000000     1.757280     2 ; Terminal CA
     CT1      CT2       CT      NH1     9     0.000000     2.719600     3 ; Terminal CA
     CT2     CC1A     CC1A      CT2     9   180.000000    41.840000     2 ; from CT3  CC1A CC1A CT3 (double bond)
     CT2     CC1A     CC1A      HE1     9   180.000000    21.756800     2 ; from CT3  CC1A CC1A HE1 (double bond)
     HE1     CC1A      CT2      CT2     9     0.000000     0.502080     3 ; from lipid HEL1 CEL1 CTL2 CTL2 (same in CGenFF)
     CT3        C        N      CT3     9   180.000000    10.878400     2 ; DMA, dimethylacetamide, xxwy
     CT2        C        N      CT2     9   180.000000    10.878400     2 ; MGY; from CT3 C N CT3, DMA; kevo
     CT2        C        N      CT3     9   180.000000    10.878400     2 ; NMGLYD; from CT3 C N CT3, DMA; kevo
     CT3        C        N      CT2     9   180.000000    10.878400     2 ; NMGLYD; from CT3 C N CT3, DMA; kevo
       O        C        N      CT3     9   180.000000    10.878400     2 ; DMA, dimethylacetamide, xxwy
       O        C        N      CT2     9   180.000000    10.878400     2 ; NMGLYD; from CT3 C N CT3, DMA; kevo
     HA3      CT3        N      CT3     9     0.000000     1.757280     3 ; DMA, dimethylacetamide, xxwy
     HA3      CT3        N      CT2     9     0.000000     1.757280     3 ; NMGLYD; from CT3 C N CT3, DMA; kevo
     HA3      CT3        N        C     9     0.000000     0.000000     3 ; DMA, dimethylacetamide; sp2-methyl, no torsion potential; xxwy & jhs
     HB2      CT2        N        C     9     0.000000     0.000000     3 ; NMGLYD; from HA3 CT3 N C, DMA and HB2 CT2 NH1 C; kevo
     HB2      CT2        N      CT3     9     0.000000     1.757280     3 ; NMGLYD; from HA3 CT3 N   CT3, DMA; kevo
       C      CT2        N        C     9   180.000000     5.020800     1 ; NMGLYD, N-methylglycine dipeptide, kevo
       C      CT2        N        C     9   180.000000     1.924640     2 ; NMGLYD, N-methylglycine dipeptide, kevo
       C      CT2        N        C     9   180.000000     0.209200     3 ; NMGLYD, N-methylglycine dipeptide, kevo
       C      CT2        N      CT3     9     0.000000     6.276000     1 ; NMGLYD, N-methylglycine dipeptide, kevo
       N        C      CT2        N     9   180.000000     0.460240     1 ; NMGLYD, N-methylglycine dipeptide, kevo
       N        C      CT2        N     9   180.000000     3.974800     2 ; NMGLYD, N-methylglycine dipeptide, kevo
       N        C      CT2        N     9   180.000000     1.213360     3 ; NMGLYD, N-methylglycine dipeptide, kevo
       O        C      CT2        N     9     0.000000     0.878640     1 ; NMGLYD, N-methylglycine dipeptide, kevo
       O        C      CT2        N     9   180.000000     4.518720     2 ; NMGLYD, N-methylglycine dipeptide, kevo
       O        C      CT2        N     9     0.000000     1.255200     3 ; NMGLYD, N-methylglycine dipeptide, kevo
  CG2R51   CG2R51   NG2R51      CT2     9     0.000000     0.000000     1 ; protrz, from CG2R51 CG2R51 NG2R51 CG3C51, penalty= 31.4
   HGR52   CG2R51   NG2R51      CT2     9   180.000000     0.000000     2 ; protrz, from HGR52 CG2R53 NG2R51 CG331, penalty= 28.9
     CT2      CT2      CT2   NG2R51     9     0.000000     0.836800     3 ; protrz, from CG321 CG321 CG321 NG2S1, penalty= 11.9
  NG2R51      CT2      CT2      HA2     9     0.000000     0.815880     3 ; protrz, from NG2S1 CG321 CG321 HGA2, penalty= 11
  NG2R50   NG2R50   NG2R51      CT2     9   180.000000    10.460000     2 ; protrz, from NG2R50 NG2R50 NG2R51 HGP1, kevo
     CT2      CT2   NG2R51   CG2R51     9     0.000000     1.610840     1 ; ETRZ, 1-Ethyl-1,2,3-trizaole, kevo
     CT2      CT2   NG2R51   CG2R51     9     0.000000     1.757280     2 ; ETRZ, 1-Ethyl-1,2,3-trizaole, kevo
     CT2      CT2   NG2R51   CG2R51     9     0.000000     0.334720     3 ; ETRZ, 1-Ethyl-1,2,3-trizaole, kevo
     CT2      CT2   NG2R51   CG2R51     9     0.000000     0.230120     4 ; ETRZ, 1-Ethyl-1,2,3-trizaole, kevo
     CT2      CT2   NG2R51   NG2R50     9   180.000000     1.610840     1 ; ETRZ, 1-Ethyl-1,2,3-trizaole, kevo
     CT2      CT2   NG2R51   NG2R50     9     0.000000     1.757280     2 ; ETRZ, 1-Ethyl-1,2,3-trizaole, kevo
     CT2      CT2   NG2R51   NG2R50     9   180.000000     0.334720     3 ; ETRZ, 1-Ethyl-1,2,3-trizaole, kevo
     CT2      CT2   NG2R51   NG2R50     9     0.000000     0.230120     4 ; ETRZ, 1-Ethyl-1,2,3-trizaole, kevo
     HA2      CT2   NG2R51   CG2R51     9     0.000000     0.000000     3 ; protrz, from HGA3 CG331 NG2R51 CG2R53, penalty= 9
     HA2      CT2   NG2R51   NG2R50     9     0.000000     0.000000     3 ; protrz, from HGA3 CG331 NG2R51 CG2R53, kevo
     CT2   CG2R51   NG2R50   NG2R50     9   180.000000    12.552000     2 ; from CT2  CPH1 NR2 _CPH2_, kevo
     HA2      CT2   CG2R51   CG2R51     9     0.000000     0.000000     3 ; from HA2  CT2  CPH1 CPH1, kevo
   HGR52   CG2R51   CG2R51      CT2     9   180.000000     8.368000     2 ; from HR3  CPH1 CPH1 CT2 , kevo
  NG2R51   CG2R51   CG2R51      CT2     9   180.000000    12.552000     2 ; from NR1  CPH1 CPH1 CT2 , kevo
  NG2R50   CG2R51      CT2      HA2     9     0.000000     0.794960     3 ; from NR2  CPH1 CT2  HA2 , kevo
  CG2R51   CG2R51      CT2      CT1     9     0.000000     7.280160     1 ; from CPH1 CPH1 CT2  CT1 , kevo
  CG2R51   CG2R51      CT2      CT1     9     0.000000     0.627600     2 ; from CPH1 CPH1 CT2  CT1 , kevo
  CG2R51   CG2R51      CT2      CT1     9   180.000000     3.221680     3 ; from CPH1 CPH1 CT2  CT1 , kevo
     CT1      CT2   CG2R51   NG2R50     9     0.000000     4.560560     1 ; from CT1  CT2  CPH1 NR2 , kevo
     CT1      CT2   CG2R51   NG2R50     9     0.000000     0.376560     2 ; from CT1  CT2  CPH1 NR2 , kevo
     CT1      CT2   CG2R51   NG2R50     9   180.000000     2.803280     3 ; from CT1  CT2  CPH1 NR2 , kevo
     HB1      CT1      CT2   CG2R51     9     0.000000     0.836800     3 ; from HB1  CT1  CT2  CPH1, kevo
       C      CT1      CT2   CG2R51     9   180.000000     0.753120     1 ; from C    CT1  CT2  CPH1, kevo
       C      CT1      CT2   CG2R51     9   180.000000     2.677760     2 ; from C    CT1  CT2  CPH1, kevo
       C      CT1      CT2   CG2R51     9   180.000000     3.640080     3 ; from C    CT1  CT2  CPH1, kevo
  CG2R51      CT2      CT1      NH1     9     0.000000     0.000000     1 ; from CPH1 CT2  CT1  NH1 , kevo
  CG2R51      CT2      CT1      NH1     9   180.000000     0.000000     2 ; from CPH1 CT2  CT1  NH1 , kevo
  CG2R51      CT2      CT1      NH1     9     0.000000     3.765600     3 ; from CPH1 CT2  CT1  NH1 , kevo
     HA1      CP2      OH1        H     9     0.000000     0.585760     3 ; 0.14 3 0
       N      CP3      CP2      OH1     9   180.000000     8.409840     1 ; 
       N      CP3      CP2      OH1     9     0.000000    10.711040     2 ; 
       N      CP3      CP2      OH1     9     0.000000     9.999760     3 ; 
     CP3      CP2      OH1        H     9     0.000000     2.384880     1 ; 
     CP3      CP2      OH1        H     9   180.000000     0.627600     2 ; 
     CP3      CP2      OH1        H     9   180.000000     0.460240     3 ; 
     CP2      CP2      OH1        H     9     0.000000     4.267680     1 ; 
     CP2      CP2      OH1        H     9   180.000000     1.799120     2 ; 
     CP2      CP2      OH1        H     9     0.000000     3.556400     3 ; 
     CP1      CP2      CP2      OH1     9     0.000000     4.100320     1 ; 
     CP1      CP2      CP2      OH1     9   180.000000     4.058480     2 ; 
     CP1      CP2      CP2      OH1     9   180.000000     0.251040     3 ; 
     CP3        N      CP1       CD     9     0.000000     0.334720     3 ; from CP3  NP   CP1  CD, alex
     NR2     CPH2      NR1      CT3     9   180.000000    12.552000     2 ; CT2  CPH1 NR1  CPH2
    CPH1     CPH1      NR1      CT3     9   180.000000    46.024000     2 ; N7B NN2  CN5  CN5
    CPH1      NR1      CT3      HA3     9     0.000000     0.000000     3 ; HN7  CN7B NN2  CN5
    CPH2      NR1      CT3      HA3     9     0.000000     0.819646     3 ; HN7  CN7B NN2  CN4
     CT3      NR1     CPH1      HR3     9   180.000000    12.552000     2 ; HR1  CPH2 NR1  CPH1
     CT3      NR1     CPH2      HR3     9   180.000000    12.552000     2 ; HR1  CPH2 NR1  CPH1
     CT3      NR1     CPH2      HR1     9   180.000000    12.552000     2 ; HR1  CPH2 NR1  CPH1
     NR3     CPH2      NR3      CT3     9   180.000000    12.552000     2 ; CT2  CPH1 NR1  CPH2
    CPH1      NR3      CT3      HA3     9     0.000000     0.000000     3 ; HN7  CN7B NN2  CN5
    CPH2      NR3      CT3      HA3     9     0.000000     0.819646     3 ; HN7  CN7B NN2  CN4
    CPH1     CPH1      NR3      CT3     9   180.000000    46.024000     2 ; N7B NN2  CN5  CN5
     CT3      NR3     CPH2      HR2     9   180.000000    12.552000     2 ; HR1  CPH2 NR1  CPH1
     CT3      NR3     CPH1      HR1     9   180.000000    12.552000     2 ; HR1  CPH2 NR1  CPH1
     CT2      CT2      CE1      HE1     9     0.000000     0.502080     3 ; 
     CT2      CT2      CE1      CE2     9   180.000000     2.092000     1 ; from CE2  CE1  CT2  CT3
     CT2      CT2      CE1      CE2     9   180.000000     5.439200     3 ; from CE2  CE1  CT2  CT3
     CT2      CT2      CE1      CE1     9   180.000000     2.092000     1 ; from CE2  CE1  CT2  CT3
     CT2      CT2      CE1      CE1     9   180.000000     5.439200     3 ; from CE2  CE1  CT2  CT3
     CE1      CE1      CT2      HA2     9     0.000000     0.502080     3 ; 
     CT1      CT2      CE1      HE1     9     0.000000     0.502080     3 ; 
     CT1      CT2      CE1      CE1     9   180.000000     2.092000     1 ; 
     CT1      CT2        S   CG2R64     9   180.000000     0.627600     3 ; from  HGA3   CG331  SG311 CG2R63 ! 2SMPYR
  NG2R62   CG2R64        S      CT2     9   180.000000     8.870080     2 ; from  NG2R62 CG2R64 SG311 CG311 ! 2SMPYR
  NG2R62   CG2R64        S      CT2     9   180.000000     0.794960     4 ; from  NG2R62 CG2R64 SG311 CG311 ! 2SMPYR
       S   CG2R64   NG2R62   CG2R64     9   180.000000     8.368000     2 ; from  SG311  CG2R64 NG2R62 CG2R62 ! 4O2SM
     HA2      CT2        S   CG2R64     9   180.000000     0.627600     3 ; from  HGA3   CG331  SG311 CG2R63 ! 2SMPYR
  NG2R62   CG2R64      NH3      CT2     9   180.000000     5.857600     1 ; NG2R62 CG2R64 NG311  CG331  ! 4MC, yxu
  NG2R62   CG2R64      NH3      CT2     9   180.000000     5.439200     2 ; NG2R62 CG2R64 NG311  CG331  ! 4MC, yxu
     NH3   CG2R64   NG2R62   CG2R64     9   180.000000    12.970400     2 ; NG311  CG2R65 NG2R62 CG2R65 ! 4MC, yxu
  NG2R62   CG2R64      NH3       HC     9   180.000000    10.041600     2 ; NG2R62 CG2R65 NG311  HGPAM1 ! 4MC, yxu
  CG2R61   CG2R61    CG321        S     9     0.000000     0.497896     2 ; CG2R61 CG2R61 CG321  NG2S1 !NZAD, N-benzylacetamide, isg
  CG2R61   CG2R61    CG321        S     9   180.000000     0.552288     4 ; CG2R61 CG2R61 CG321  NG2S1 !NZAD, N-benzylacetamide, isg
  CG2R61   CG2R61    CG321        S     9   180.000000     0.054392     6 ; CG2R61 CG2R61 CG321  NG2S1 !NZAD, N-benzylacetamide, isg
  CG2R61    CG321        S      CT2     9     0.000000     0.062760     1 ; CG2R61 CG321  NG2S1  CG2O1 !NZAD, N-benzylacetamide, isg
  CG2R61    CG321        S      CT2     9     0.000000     1.246832     2 ; CG2R61 CG321  NG2S1  CG2O1 !NZAD, N-benzylacetamide, isg
  CG2R61    CG321        S      CT2     9   180.000000     0.317984     3 ; CG2R61 CG321  NG2S1  CG2O1 !NZAD, N-benzylacetamide, isg
  CG2R61    CG321        S      CT2     9     0.000000     2.589896     4 ; CG2R61 CG321  NG2S1  CG2O1 !NZAD, N-benzylacetamide, isg
  CG2R61    CG321        S      CT2     9     0.000000     0.619232     6 ; CG2R61 CG321  NG2S1  CG2O1 !NZAD, N-benzylacetamide, isg
     CT1      CT3   CG2R51   NG2R50     9   180.000000     2.217520     1 ; HIS
     CT1      CT3   CG2R51   NG2R50     9   180.000000     1.757280     2 ; HIS
     CT1      CT3   CG2R51   NG2R50     9   180.000000     1.255200     3 ; HIS
  CG2R51   CG2R51      CT3      CT1     9     0.000000     8.535360     1 ; HIS
  CG2R51   CG2R51      CT3      CT1     9     0.000000     1.840960     2 ; HIS
  CG2R51   CG2R51      CT3      CT1     9   180.000000     0.543920     3 ; HIS
     CT3   CG2R51   NG2R50   NG2R50     9   180.000000    23.012000     2 ; OXAD
  NG2R50   CG2R51   CG2R51      CT3     9   180.000000    12.552000     2 ; OXAD
     CT3   CG2R51   CG2R51    HGR52     9   180.000000     8.368000     2 ; HIS
     HA3      CT3   CG2R51   NG2R50     9     0.000000     0.794960     3 ; HIS
     HA3      CT3   CG2R51   CG2R51     9     0.000000     0.000000     3 ; HIS
  NG2R50   NG2R50   NG2R50      CT2     9   180.000000    58.576000     2 ; HIS
  NG2R50   NG2R50      CT2      CT2     9     0.000000     8.535360     1 ; HIS
  NG2R50   NG2R50      CT2      CT2     9     0.000000     1.840960     2 ; HIS
  NG2R50   NG2R50      CT2      CT2     9   180.000000     0.543920     3 ; HIS
  NG2R50   NG2R50      CT2      HA2     9     0.000000     0.000000     3 ; HIS
  CG2R51   NG2R50      CT2      CT2     9   180.000000     2.217520     1 ; HIS
  CG2R51   NG2R50      CT2      CT2     9   180.000000     1.757280     2 ; HIS
  CG2R51   NG2R50      CT2      CT2     9   180.000000     1.255200     3 ; HIS
  CG2R51   NG2R50      CT2      HA2     9     0.000000     0.000000     3 ; HIS
  CG2R51   CG2R51   NG2R50      CT2     9   180.000000    58.576000     2 ; HIS
   HGR52   CG2R51   NG2R50      CT2     9   180.000000     4.184000     2 ; OXAD
     CT3        C    NG2D1   CG2DC1     9   180.000000     4.847582     1 ; from CG2DC1 NG2D1 CG2O1 CG331, sm035
     CT3        C    NG2D1   CG2DC1     9     0.000000     6.292318     2 ; from CG2DC1 NG2D1 CG2O1 CG331, sm035
     CT3        C    NG2S0    CG311     9   180.000000    10.878400     2 ; from CG321 CG2O1 NG2S0 CG331, sm114
     CT3        C    NG2S0    CG321     9   180.000000    10.878400     2 ; from CG321 CG2O1 NG2S0 CG331, sm095
     CT3        C    NG2S0    CG331     9   180.000000    10.878400     2 ; from CG331 CG2O1 NG2S0 CG331, sm095
     CT3        C    NG2S0   CG3C50     9   180.000000    11.506000     2 ; start.pd , from CG331 CG2O1 NG2S0 CG3C51, penalty= 0.8, sm140
     CT3        C    NG2S0   CG3C50     9     0.000000     1.255200     4 ; start.pd , from CG331 CG2O1 NG2S0 CG3C51, penalty= 0.8, sm140
     CT3        C    NG2S0   CG3C51     9   180.000000    11.506000     2 ; from CG331 CG2O1 NG2S0 CG3C51, sm014
     CT3        C    NG2S0   CG3C51     9     0.000000     1.255200     4 ; from CG331 CG2O1 NG2S0 CG3C51, sm014
     CT3        C    NG2S0   CG3C52     9   180.000000    11.506000     2 ; from CG331 CG2O1 NG2S0 CG3C52, sm014
     CT3        C    NG2S0   CG3C52     9     0.000000     1.255200     4 ; from CG331 CG2O1 NG2S0 CG3C52, sm014
     CT3        C    NG2S1   CG2D1O     9     0.000000     6.586034     1 ; from CG2D1O NG2S1 CG2O1 CG331, sm070
     CT3        C    NG2S1   CG2D1O     9   180.000000     0.217568     2 ; from CG2D1O NG2S1 CG2O1 CG331, sm070
     CT3        C    NG2S1    CG311     9     0.000000     6.694400     1 ; from CG331 CG2O1 NG2S1 CG311
     CT3        C    NG2S1    CG311     9   180.000000    10.460000     2 ; from CG331 CG2O1 NG2S1 CG311
     CT3        C    NG2S1   CG3C51     9     0.000000     6.694400     1 ; from CG331 CG2O1 NG2S1 CG3C51, penalty= 10, sm155
     CT3        C    NG2S1   CG3C51     9   180.000000    10.460000     2 ; from CG331 CG2O1 NG2S1 CG3C51, penalty= 10, sm155
     CT3        C    NG2S1     HGP1     9   180.000000    10.460000     2 ; from CG331 CG201 NG2S1 HGP1, sm070
   SG2P1    CG321      CT1        C     9     0.000000    -4.745493     1 ; sm228
   SG2P1    CG321      CT1        C     9     0.000000     0.236396     2 ; sm228
   SG2P1    CG321      CT1        C     9     0.000000     2.545964     3 ; sm228
   SG2P1    CG321      CT1      HB1     9     0.000000     0.762325     3 ; sm228
   SG2P1    CG321      CT1      NH1     9     0.000000     8.645818     1 ; sm228
   SG2P1    CG321      CT1      NH1     9     0.000000    -0.626763     2 ; sm228
   SG2P1    CG321      CT1      NH1     9     0.000000    -0.005021     3 ; sm228
  CG2D1O    CG2O1      NH1      CT3     9     0.000000     6.694400     1 ; from CG2DC1 CG2O1 NG2S1 CG331, penalty= 3.5, sm070
  CG2D1O    CG2O1      NH1      CT3     9   180.000000    10.460000     2 ; from CG2DC1 CG2O1 NG2S1 CG331, penalty= 3.5, sm070
   CG311    CG2O1      NH1      CT3     9     0.000000     6.694400     1 ; from CG311 CG2O1 NG2S1 CG331, sm035
   CG311    CG2O1      NH1      CT3     9   180.000000    10.460000     2 ; from CG311 CG2O1 NG2S1 CG331, sm035
   CG321    CG2O1      NH1      CT3     9     0.000000     6.694400     1 ; from CG321 CG2O1 NG2S1 CG331
   CG321    CG2O1      NH1      CT3     9   180.000000    10.460000     2 ; from CG321 CG2O1 NG2S1 CG331
  CG3C50    CG2O1      NH1      CT3     9     0.000000     6.694400     1 ; start.pd , from CG3C51 CG2O1 NG2S1 CG331, penalty= 0.8, sm140
  CG3C50    CG2O1      NH1      CT3     9   180.000000    10.460000     2 ; start.pd , from CG3C51 CG2O1 NG2S1 CG331, penalty= 0.8, sm140
  CG3C51    CG2O1      NH1      CT3     9     0.000000     6.694400     1 ; from CG3C51 CG2O1 NG2S1 CG331, sm014
  CG3C51    CG2O1      NH1      CT3     9   180.000000    10.460000     2 ; from CG3C51 CG2O1 NG2S1 CG331, sm014
   OG2D1    CG2O1      NH1      CT3     9   180.000000    10.460000     2 ; from OG2D1 CG2O1 NG2S1 CG331, sm014
     HA3      CT3        C    NG2D1     9     0.000000     0.000000     3 ; from NG2D1 CG2O1 CG331 HGA3, sm035
     HA3      CT3        C    NG2S0     9     0.000000     0.000000     3 ; from NG2S0 CG2O1 CG331 HGA3, sm014
     HA3      CT3        C    NG2S1     9     0.000000     0.000000     3 ; from HGA3 CG331 CG201 NG2S1, sm070
   CG2O1      NH1      CT3      HA3     9     0.000000     0.000000     3 ; from HGA3 CG331 NG2S1 CG2O1, sm014
   CG302   CG2R61   CG2R61      CT1     9   180.000000     8.269258     2 ; from CG302 CG2R61 CG2R61 CG331, TFG2
   CLGR1   CG2R61   CG2R61      CT1     9   180.000000    14.936880     2 ; from CLGR1 CG2R61 CG2R61 CG331, CPG2
   NG2O1   CG2R61   CG2R61      CT1     9   180.000000    12.753669     2 ; from NG2O1 CG2R61 CG2R61 CG331, PRV
   NG1T1    NG1T1    CG321      CT1     9     0.000000     2.541780     1 ; from NG1T1 NG1T1 CG321 CG331, AZDA
   NG1T1    NG1T1    CG321      CT1     9     0.000000     1.704562     3 ; from NG1T1 NG1T1 CG321 CG331, AZDA
  NG2R53    CG321    CG2O1      NH1     9     0.000000     2.510400     1 ; from NG2S1 CG2O1 CG321 NG2S1, PENALTY= 1 SUI
   NG2S1        C      CT1      NH3     9     0.000000     2.510400     1 ; PROT ala dipeptide, new C VDW Rmin, adm jr., 3/3/93 SWG SUI HT7 CRF B2H
     CT1        C    NG2S0   CG3C51     9   180.000000    11.506000     2 ; PROT AcProNH2, ProNH2, AcProNHCH3 RLD 4/23/93 MP8 4FB HZP HYP 8LJ FP9 PRS
     CT1        C    NG2S0   CG3C51     9     0.000000     1.255200     4 ; PROT AcProNH2, ProNH2, AcProNHCH3 RLD 4/23/93 MP8 4FB HZP HYP 8LJ FP9 PRS
     CT1        C    NG2S0   CG3C52     9   180.000000    11.506000     2 ; PROT AcProNH2, ProNH2, AcProNHCH3 RLD 4/23/93 PXU MP8 4FB HZP HYP 8LJ FP9 PRS
     CT1        C    NG2S0   CG3C52     9     0.000000     1.255200     4 ; PROT AcProNH2, ProNH2, AcProNHCH3 RLD 4/23/93 PXU MP8 4FB HZP HYP 8LJ FP9 PRS
     HB1      CT1        C    NG2S0     9     0.000000     0.000000     1 ; PROT AcProNH2, ProNH2, AcProNHCH3 RLD 4/23/93 I4G PXU MP8 4FB HZP HYP 8LJ FP9 PRS
     CT3      CT1        C    NG2S0     9     0.000000     0.000000     1 ; PROT AcProNH2, ProNH2, AcProNHCH3 RLD 4/23/93 I4G PXU MP8 4FB HZP HYP 8LJ FP9 PRS
       C    NG2S0   CG3C51     HGA1     9     0.000000     3.347200     3 ; PROT AcProNH2, ProNH2, AcProNHCH3 RLD 4/23/93 MP8 4FB HZP HYP 8LJ FP9 PRS
       C    NG2S0   CG3C51   CG3C52     9     0.000000     3.347200     3 ; PROT AcProNH2, ProNH2, AcProNHCH3 RLD 4/23/93 MP8 4FB HZP HYP FP9 PRS
       C    NG2S0   CG3C51    CG2O1     9     0.000000     3.347200     3 ; PROT AcProNH2, ProNH2, AcProNHCH3 RLD 4/23/93 MP8 4FB HZP HYP 8LJ FP9 PRS
       C    NG2S0   CG3C52   CG3C51     9   180.000000     0.000000     3 ; from CG3C52 CG3C52 NG2S0 CG2O1, PENALTY= 0.4 MP8 4FB HZP HYP FP9
       C    NG2S0   CG3C52     HGA2     9   180.000000     0.000000     3 ; PROT AcProNH2, ProNH2, AcProNHCH3 RLD 4/23/93 PXU MP8 4FB HZP HYP 8LJ FP9 PRS
       O        C    NG2S0   CG3C51     9   180.000000    11.506000     2 ; PROT AcProNH2, ProNH2, AcProNHCH3 RLD 4/23/93 MP8 4FB HZP HYP 8LJ FP9 PRS
       O        C    NG2S0   CG3C51     9     0.000000     1.255200     4 ; PROT AcProNH2, ProNH2, AcProNHCH3 RLD 4/23/93 MP8 4FB HZP HYP 8LJ FP9 PRS
       O        C    NG2S0   CG3C52     9   180.000000    11.506000     2 ; PROT AcProNH2, ProNH2, AcProNHCH3 RLD 4/23/93 PXU MP8 4FB HZP HYP 8LJ FP9 PRS
       O        C    NG2S0   CG3C52     9     0.000000     1.255200     4 ; PROT AcProNH2, ProNH2, AcProNHCH3 RLD 4/23/93 PXU MP8 4FB HZP HYP 8LJ FP9 PRS
     CT1        C    NG2S1     HGP1     9   180.000000    10.460000     2 ; PROT Gives appropriate NMA cis/trans barrier. (LK) SWG SUI HT7 CRF B2H CRO MDO PIA
     CT1        C    NG2S1    CG311     9     0.000000     6.694400     1 ; PROT NMA cis/trans energy difference. (LK) SWG HT7 CRF B2H CRO MDO PIA HMR FGL
     CT1        C    NG2S1    CG311     9   180.000000    10.460000     2 ; PROT Gives appropriate NMA cis/trans barrier. (LK) SWG HT7 CRF B2H CRO MDO PIA HMR
     HB1      CT1        C    NG2S1     9     0.000000     0.000000     1 ; PROT Alanine Dipeptide ab initio calc's (LK) SWG SUI HT7 CRF B2H CRO MDO PIA
     CT3      CT1        C    NG2S1     9     0.000000     0.000000     1 ; PROT ala dipeptide, new C VDW Rmin, 4/10/93 (LK) SWG SUI HT7 CRF B2H CRO
       C    NG2S1    CG311     HGA1     9     0.000000     0.000000     1 ; PROT Alanine Dipeptide ab initio calc's (LK) SWG HT7 CRF B2H CRO MDO PIA HMR
       C    NG2S1    CG311    CG331     9     0.000000     7.531200     1 ; PROT ala dipeptide, new C VDW Rmin, adm jr., 3/3/93c MDO PIA B3A
       C    NG2S1    CG311    CG321     9     0.000000     7.531200     1 ; PROT ala dipeptide, new C VDW Rmin, adm jr., 3/3/93c SWG HT7 HMR GYS CH6
       O        C    NG2S1     HGP1     9   180.000000    10.460000     2 ; PROT Gives appropriate NMA cis/trans barrier. (LK) SWG SUI HT7 CRF B2H CRO MDO PIA
       O        C    NG2S1    CG311     9   180.000000    10.460000     2 ; PROT Gives appropriate NMA cis/trans barrier. (LK) SWG HT7 CRF B2H CRO MDO PIA HMR
       C    NG2S1    CG311    CG2O3     9   180.000000     0.836800     1 ; PROT ala dipeptide, new C VDW Rmin, adm jr., 3/3/93c FGL
       C    NG2S1    CG311    CG2O1     9   180.000000     0.836800     1 ; PROT ala dipeptide, new C VDW Rmin, adm jr., 3/3/93c FGL
     CT1        C    NG2S1    CG331     9     0.000000     6.694400     1 ; PROT NMA cis/trans energy difference. (LK)
     CT1        C    NG2S1    CG331     9   180.000000    10.460000     2 ; PROT Gives appropriate NMA cis/trans barrier. (LK)
       C    NG2S1    CG331     HGA3     9     0.000000     0.000000     3 ; PROT, sp2-methyl, no torsion potential
       O        C    NG2S1    CG331     9   180.000000    10.460000     2 ; PROT Gives appropriate NMA cis/trans barrier. (LK)
       C    NG2S0    CG321     HGA2     9     0.000000     0.000000     3 ; from HGA3 CG331 NG2S0 CG2O1, PENALTY= 6 I4G
       C    NG2S0    CG321    CG2O1     9   180.000000     0.836800     1 ; from CG2O1 CG321 NG2S1 CG2O1, PENALTY= 10 I4G
       C    NG2S0    CG321    CG311     9     0.000000     7.531200     1 ; from CG311 CG321 NG2S1 CG2O1, PENALTY= 10 I4G
       O        C    NG2S0    CG321     9   180.000000    10.878400     2 ; from OG2D1 CG2O1 NG2S0 CG331, PENALTY= 0.9 I4G
       C    NG2S0    CG311     HGA1     9     0.000000     0.000000     1 ; from HGA1 CG311 NG2S1 CG2O1, PENALTY= 10 MAA
       C    NG2S0    CG311    CG331     9     0.000000     7.531200     1 ; from CG331 CG311 NG2S1 CG2O1, PENALTY= 10 MAA
       C    NG2S0    CG311    CG2O1     9   180.000000     0.836800     1 ; from CG2O1 CG311 NG2S1 CG2O1, PENALTY= 10 MAA
       C    NG2S0    CG331     HGA3     9     0.000000     0.000000     3 ; DMA, dimethylacetamide; from PROT, sp2-methyl, no torsion potential; xxwy & jhs MAA
       O        C    NG2S0    CG311     9   180.000000    10.878400     2 ; from OG2D1 CG2O1 NG2S0 CG331, PENALTY= 1.5 MAA
       O        C    NG2S0    CG331     9   180.000000    10.878400     2 ; DMF, Dimethylformamide, xxwy MAA
       C    NG2S0   CG3C50   CG3C52     9     0.000000     3.347200     3 ; from CG3C52 CG3C51 NG2S0 CG2O1, PENALTY= 6 PXU
       C    NG2S0   CG3C50    CG2O1     9     0.000000     3.347200     3 ; from CG2O1 CG3C51 NG2S0 CG2O1, PENALTY= 6 PXU
       C    NG2S0   CG3C52   CG3C52     9   180.000000     0.000000     3 ; PROT AcProNH2, ProNH2, AcProNHCH3 RLD 4/23/93 PXU
       O        C    NG2S0   CG3C50     9   180.000000    11.506000     2 ; from OG2D1 CG2O1 NG2S0 CG3C51, PENALTY= 0.8 PXU
       O        C    NG2S0   CG3C50     9     0.000000     1.255200     4 ; from OG2D1 CG2O1 NG2S0 CG3C51, PENALTY= 0.8 PXU
       O        C    NG2S1   CG3C51     9   180.000000    10.460000     2 ; from OG2D1 CG2O1 NG2S1 CG321, PENALTY= 10 SUI
       C    NG2S1    CG311    CG311     9     0.000000     7.531200     1 ; PROT ala dipeptide, new C VDW Rmin, adm jr., 3/3/93c CRF B2H CRO
   CG321    CG2O1      NH1      CT1     9     0.000000     6.694400     1 ; PROT NMA cis/trans energy difference. (LK) CRQ SWG I4G SUI HT7 CRF B2H CRO MDO
   CG321    CG2O1      NH1      CT1     9   180.000000    10.460000     2 ; PROT Gives appropriate NMA cis/trans barrier. (LK) CRQ SWG I4G SUI HT7 CRF B2H CRO
    HGA2    CG321    CG2O1      NH1     9     0.000000     0.000000     3 ; PROT, sp2-methyl, no torsion potential CRQ SWG I4G SUI HT7 CRF B2H CRO MDO PIA
   CG2O1      NH1      CT1      HB1     9     0.000000     0.000000     1 ; PROT Alanine Dipeptide ab initio calc's (LK) CRQ SWG I4G SUI HT7 CRF PXU B2H
   CG2O1      NH1      CT1      CT3     9     0.000000     7.531200     1 ; PROT ala dipeptide, new C VDW Rmin, adm jr., 3/3/93c CRQ SWG I4G SUI HT7
   OG2D1    CG2O1      NH1        H     9   180.000000    10.460000     2 ; PROT Gives appropriate NMA cis/trans barrier. (LK) CRQ SWG I4G SUI HT7 CRF PXU B2H
   OG2D1    CG2O1      NH1      CT1     9   180.000000    10.460000     2 ; PROT Gives appropriate NMA cis/trans barrier. (LK) CRQ SWG I4G SUI HT7 CRF PXU B2H
   CG321    CG2O1      NH1        H     9   180.000000    10.460000     2 ; PROT Gives appropriate NMA cis/trans barrier. (LK) CRQ SWG I4G SUI HT7 CRF B2H CRO
   NG2S0   CG3C51    CG2O1      NH1     9     0.000000     1.255200     1 ; PROT AcProNH2, ProNH2, AcProNHCH3 RLD 4/23/93 MP8 4FB HZP HYP 8LJ FP9 PRS
   NG2S0   CG3C51    CG2O1      NH1     9   180.000000     1.255200     4 ; PROT AcProNH2, ProNH2, AcProNHCH3 RLD 4/23/93 MP8 4FB HZP HYP 8LJ FP9 PRS
  CG3C51    CG2O1      NH1        H     9   180.000000    10.460000     2 ; PROT AcProNH2, ProNH2, AcProNHCH3 RLD 4/23/93 MP8 4FB PR4 HZP HYP 8LJ FP9 PRS
  CG3C51    CG2O1      NH1      CT1     9     0.000000     6.694400     1 ; PROT AcProNH2, ProNH2, AcProNHCH3 RLD 4/23/93 MP8 4FB PR4 HZP HYP 8LJ FP9 PRS
  CG3C51    CG2O1      NH1      CT1     9   180.000000    10.460000     2 ; PROT AcProNH2, ProNH2, AcProNHCH3 RLD 4/23/93 MP8 4FB PR4 HZP HYP 8LJ FP9 PRS
    HGA1   CG3C51    CG2O1      NH1     9   180.000000     1.673600     1 ; PROT AcProNH2, ProNH2, AcProNHCH3 RLD 4/23/93 MP8 4FB PR4 HZP HYP 8LJ FP9 PRS
    HGA1   CG3C51    CG2O1      NH1     9     0.000000     2.510400     2 ; PROT AcProNH2, ProNH2, AcProNHCH3 RLD 4/23/93 MP8 4FB PR4 HZP HYP 8LJ FP9 PRS
  CG3C52   CG3C51    CG2O1      NH1     9     0.000000     1.673600     1 ; PROT AcProNH2, ProNH2, AcProNHCH3 RLD 4/23/93 MP8 4FB PR4 HZP HYP FP9 PRS
  CG3C52   CG3C51    CG2O1      NH1     9     0.000000     2.510400     2 ; PROT AcProNH2, ProNH2, AcProNHCH3 RLD 4/23/93 MP8 4FB PR4 HZP HYP FP9 PRS
   NG2S1    CG311    CG2O1      NH1     9     0.000000     2.510400     1 ; PROT ala dipeptide, new C VDW Rmin, adm jr., 3/3/93 FME FGL AYA CXM
   CG311    CG2O1      NH1        H     9   180.000000    10.460000     2 ; PROT Gives appropriate NMA cis/trans barrier. (LK) FME FGL AYA MAA CXM
   CG311    CG2O1      NH1      CT1     9     0.000000     6.694400     1 ; PROT NMA cis/trans energy difference. (LK) FME FGL AYA MAA CXM
   CG311    CG2O1      NH1      CT1     9   180.000000    10.460000     2 ; PROT Gives appropriate NMA cis/trans barrier. (LK) FME FGL AYA MAA CXM
    HGA1    CG311    CG2O1      NH1     9     0.000000     0.000000     1 ; PROT Alanine Dipeptide ab initio calc's (LK) FME FGL AYA MAA CXM
   CG331    CG311    CG2O1      NH1     9     0.000000     0.000000     1 ; PROT ala dipeptide, new C VDW Rmin, 4/10/93 (LK) AYA MAA
   CG311    CG321    CG2O1      NH1     9     0.000000     0.000000     1 ; from NG2S1 CG2O1 CG321 CG321, PENALTY= 0.6 HT7 HMR B3X B3Y B3K B3E
      CC      CT1      NH1    CG2O1     9   180.000000     0.836800     1 ; PROT ala dipeptide, new C VDW Rmin, adm jr., 3/3/93c CRQ SWG I4G SUI HT7
     CT1        C    NG2S1    CG321     9     0.000000     6.694400     1 ; PROT NMA cis/trans energy difference. (LK) CR2 GL3
     CT1        C    NG2S1    CG321     9   180.000000    10.460000     2 ; PROT Gives appropriate NMA cis/trans barrier. (LK) CR2 GL3
       C    NG2S1    CG321     HGA2     9     0.000000     0.000000     3 ; PROT, sp2-methyl, no torsion potential CR2 GL3
       C    NG2S1    CG321   CG2R53     9     0.000000     0.062760     1 ; from CG2R61 CG321 NG2S1 CG2O1, PENALTY= 8.5 CR2
       C    NG2S1    CG321   CG2R53     9     0.000000     1.246832     2 ; from CG2R61 CG321 NG2S1 CG2O1, PENALTY= 8.5 CR2
       C    NG2S1    CG321   CG2R53     9   180.000000     0.317984     3 ; from CG2R61 CG321 NG2S1 CG2O1, PENALTY= 8.5 CR2
       C    NG2S1    CG321   CG2R53     9     0.000000     2.589896     4 ; from CG2R61 CG321 NG2S1 CG2O1, PENALTY= 8.5 CR2
       C    NG2S1    CG321   CG2R53     9     0.000000     0.619232     6 ; from CG2R61 CG321 NG2S1 CG2O1, PENALTY= 8.5 CR2
       O        C    NG2S1    CG321     9   180.000000    10.460000     2 ; PROT Gives appropriate NMA cis/trans barrier. (LK) CR2 GL3
   CG321    CG311    CG2O1      NH1     9     0.000000     0.000000     1 ; PROT ala dipeptide, new C VDW Rmin, 4/10/93 (LK) FME CXM
  CG2D1O    CG2O1      NH1        H     9   180.000000    10.460000     2 ; from CG2DC1 CG2O1 NG2S1 HGP1, PENALTY= 3.5 DYA
  CG2D1O    CG2O1      NH1      CT1     9     0.000000     6.694400     1 ; from CG2DC2 CG2O1 NG2S1 CG331, PENALTY= 5 DYA
  CG2D1O    CG2O1      NH1      CT1     9   180.000000    10.460000     2 ; from CG2DC2 CG2O1 NG2S1 CG331, PENALTY= 5 DYA
   CG331    CG2O1      NH1        H     9   180.000000    10.460000     2 ; PROT Gives appropriate NMA cis/trans barrier. (LK)
   CG331    CG2O1      NH1      CT1     9     0.000000     6.694400     1 ; PROT NMA cis/trans energy difference. (LK)
   CG331    CG2O1      NH1      CT1     9   180.000000    10.460000     2 ; PROT Gives appropriate NMA cis/trans barrier. (LK)
    HGA3    CG331    CG2O1      NH1     9     0.000000     0.000000     3 ; PROT, sp2-methyl, no torsion potential
       C    NG2S1    CG321    CG2O1     9   180.000000     0.836800     1 ; PROT ala dipeptide, new C VDW Rmin, adm jr., 3/3/93c GL3
   NG2S1    CG321    CG2O1      NH1     9     0.000000     2.510400     1 ; PROT ala dipeptide, new C VDW Rmin, adm jr., 3/3/93 GL3
   NG2S0    CG321    CG2O1      NH1     9     0.000000     2.510400     1 ; from NG2S1 CG2O1 CG321 NG2S1, PENALTY= 1 I4G
   NG2S0    CG311    CG2O1      NH1     9     0.000000     2.510400     1 ; from NG2S1 CG2O1 CG311 NG2S1, PENALTY= 1 MAA
   NG2S0   CG3C50    CG2O1      NH1     9     0.000000     1.255200     1 ; from NG2S1 CG2O1 CG3C51 NG2S0, PENALTY= 6 PXU
   NG2S0   CG3C50    CG2O1      NH1     9   180.000000     1.255200     4 ; from NG2S1 CG2O1 CG3C51 NG2S0, PENALTY= 6 PXU
  CG3C50    CG2O1      NH1        H     9   180.000000    10.460000     2 ; from CG3C51 CG2O1 NG2S1 HGP1, PENALTY= 0.8 PXU
  CG3C52   CG3C50    CG2O1      NH1     9     0.000000     1.673600     1 ; from NG2S1 CG2O1 CG3C51 CG3C52, PENALTY= 6 PXU
  CG3C52   CG3C50    CG2O1      NH1     9     0.000000     2.510400     2 ; from NG2S1 CG2O1 CG3C51 CG3C52, PENALTY= 6 PXU
   NG2S0        C      CT1      NH3     9     0.000000     1.673600     1 ; PROT AcProNH2, ProNH2, AcProNHCH3 RLD 4/23/93 I4G PXU MP8 4FB HZP HYP 8LJ FP9 PRS
     CT1        C    NG2S0    CG321     9   180.000000    10.878400     2 ; from CG321 CG2O1 NG2S0 CG331, PENALTY= 1.5 I4G
     CT1        C    NG2S0    CG311     9   180.000000    10.878400     2 ; from CG321 CG2O1 NG2S0 CG331, PENALTY= 2.1 MAA
     CT1        C    NG2S0    CG331     9   180.000000    10.878400     2 ; from CG321 CG2O1 NG2S0 CG331, PENALTY= 0.6 MAA
  CG3C50    CG2O1      NH1      CT1     9     0.000000     6.694400     1 ; from CG3C51 CG2O1 NG2S1 CG311, PENALTY= 0.8 PXU
  CG3C50    CG2O1      NH1      CT1     9   180.000000    10.460000     2 ; from CG3C51 CG2O1 NG2S1 CG311, PENALTY= 0.8 PXU
     CT1        C    NG2S0   CG3C50     9   180.000000    11.506000     2 ; from CG311 CG2O1 NG2S0 CG3C51, PENALTY= 0.8 PXU
     CT1        C    NG2S0   CG3C50     9     0.000000     1.255200     4 ; from CG311 CG2O1 NG2S0 CG3C51, PENALTY= 0.8 PXU
     CT1        C    NG2S1   CG3C51     9     0.000000     6.694400     1 ; from CG311 CG2O1 NG2S1 CG321, PENALTY= 10 SUI
     CT1        C    NG2S1   CG3C51     9   180.000000    10.460000     2 ; from CG311 CG2O1 NG2S1 CG321, PENALTY= 10 SUI
   CG2O1    CG311      CT1        C     9     0.000000     0.836800     3 ; from CG2O1 CG311 CG321 CG2O1, PENALTY= 4 AHB
   CG2O1    CG321      CT1        C     9     0.000000     0.836800     3 ; PROT alkane update, adm jr., 3/2/92 MEN
   CG2O2    CG321      CT1        C     9     0.000000     0.836800     3 ; from CG2O2 CG311 CG321 CG2O2, PENALTY= 1.5 ASB ASL PHD
   CG2O3    CG311      CT1        C     9     0.000000     0.836800     3 ; from CG2O1 CG311 CG321 CG2O3, PENALTY= 4 0TD 2AS BHD
   CG2O3    CG321      CT1        C     9     0.000000     0.836800     3 ; PROT alkane update, adm jr., 3/2/92 IAS
   CG2O4    CG311      CT1        C     9     0.000000     0.836800     3 ; from CG2O1 CG311 CG321 CG2O1, PENALTY= 7 LVN
   CG2O4    CG321      CT1        C     9     0.000000     0.836800     3 ; from CG2O1 CG311 CG321 CG2O1, PENALTY= 3 AS2
   CG2O5    CG321      CT1        C     9     0.000000     0.836800     3 ; from CG2O1 CG311 CG321 CG2O1, PENALTY= 3 KYN
  CG2R51    CG311      CT1        C     9     0.000000     0.836800     3 ; from CG2O1 CG311 CG321 CG2R51, PENALTY= 4 HTR
  CG2R51    CG321      CT1        C     9     0.000000     0.836800     3 ; PROT alkane update, adm jr., 3/2/92 TOX TTQ 0AF DDE HIX THA3
  CG2R61    CG311      CT1        C     9     0.000000     0.167360     3 ; from CG2O1 CG311 CG321 CG2R61, PENALTY= 4 2GX BB8 DIPH
  CG2R61    CG321      CT1        C     9     0.000000     0.167360     3 ; PROT 2.7 kcal/mole CH3 rot in ethylbenzene, adm jr, 3/7/92 F2F NIY
   CG301    CG321      CT1        C     9     0.000000     0.836800     3 ; from CG2O1 CG311 CG321 CG311, PENALTY= 1.2 ADAM
   CG301      CT1        C      NH1     9     0.000000     0.000000     1 ; from NG2S1 CG2O1 CG311 CG311, PENALTY= 1.2 DMK HVA I2M
   CG301      CT1        C        O     9     0.000000     5.857600     1 ; from OG2D1 CG2O1 CG311 CG311, PENALTY= 1.2 DMK HVA I2M
   CG311    CG301      CT1        C     9     0.000000     0.836800     3 ; from CG2O1 CG311 CG311 CG321, PENALTY= 8.6 TS9
   CG311    CG311      CT1        C     9     0.000000     0.836800     3 ; from CG2O1 CG311 CG311 CG321, PENALTY= 0.6 HIL4 HL2 HLU
   CG311    CG321      CT1        C     9     0.000000     0.836800     3 ; PROT alkane update, adm jr., 3/2/92 GHG ARO CGU LED LEF SYM
   CG311      CT1        C      NH1     9     0.000000     0.000000     1 ; PROT ala dipeptide, new C VDW Rmin, 4/10/93 (LK) BIU CTH OLT
   CG311      CT1        C        O     9     0.000000     5.857600     1 ; PROT ala dipeptide, new C VDW Rmin, adm jr., 3/3/93c BIU CTH
   CG321    CG301      CT1        C     9     0.000000     0.836800     3 ; from CG2O1 CG311 CG311 CG321, PENALTY= 8 I2M M2S
   CG321    CG311      CT1        C     9     0.000000     0.836800     3 ; PROT alkane update, adm jr., 3/2/92 BIU CTH DILE CHG LME LMQ
   CG321    CG321      CT1        C     9     0.000000     0.836800     3 ; PROT alkane update, adm jr., 3/2/92 2MR HGA MCL 26P 6CL ALY
   CG321      CT1        C      NH1     9     0.000000     0.000000     1 ; PROT ala dipeptide, new C VDW Rmin, 4/10/93 (LK) 2MR F2F OAS
   CG321      CT1        C        O     9     0.000000     5.857600     1 ; PROT ala dipeptide, new C VDW Rmin, adm jr., 2MR 3/3/93c OAS
   CG324    CG321      CT1        C     9     0.000000     0.815880     3 ; from CG2O1 CG321 CG321 CG314, PENALTY= 4.6 DAB GBUT
   CG324      CT1        C      NH1     9   180.000000     0.209200     6 ; from NG2S2 CG2O1 CG321 CG314, PENALTY= 5.6 DNP DPP GDPR
   CG324      CT1        C        O     9   180.000000     0.209200     6 ; from OG2D1 CG2O1 CG321 CG314, PENALTY= 4.6 DNP DPP GDPR
   CG331    CG301      CT1        C     9     0.000000     0.836800     3 ; from CG2O1 CG311 CG311 CG331, PENALTY= 8 DMK HVA I2M
   CG331    CG311      CT1        C     9     0.000000     0.836800     3 ; PROT alkane update, adm jr., 3/2/92 BIU OLT HIL4 2AS ALO LMQ
   CG331    CG321      CT1        C     9     0.000000     0.836800     3 ; from CG2O1 CG311 CG321 CG321, PENALTY= 0.9 ABA DBB
  CG3C51    CG321      CT1        C     9     0.000000     0.836800     3 ; from CG2O1 CG311 CG321 CG321, PENALTY= 10 CPA3
  CG3C51      CT1        C      NH1     9     0.000000     0.000000     1 ; from NG2S1 CG2O1 CG311 CG321, PENALTY= 10 IGL
  CG3C51      CT1        C        O     9     0.000000     5.857600     1 ; from OG2D1 CG2O1 CG311 CG321, PENALTY= 10 IGL
       C      NH1      CT1   CG2R61     9     0.000000     0.062760     1 ; from CG2R61 CG321 NG2S1 CG2O1, PENALTY= 4 3FG D4P FPG4
       C      NH1      CT1   CG2R61     9     0.000000     1.246832     2 ; from CG2R61 CG321 NG2S1 CG2O1, PENALTY= 4 3FG D4P FPG4
       C      NH1      CT1   CG2R61     9   180.000000     0.317984     3 ; from CG2R61 CG321 NG2S1 CG2O1, PENALTY= 4 3FG D4P FPG4
       C      NH1      CT1   CG2R61     9     0.000000     0.619232     6 ; from CG2R61 CG321 NG2S1 CG2O1, PENALTY= 4 3FG D4P FPG4
       C      NH1      CT1    CG301     9     0.000000     7.531200     1 ; from CG311 CG311 NG2S1 CG2O1, PENALTY= 1.2 DMK HVA I2M
       C      NH1      CT1    CG311     9     0.000000     7.531200     1 ; PROT ala dipeptide, new C VDW Rmin, adm jr., 3/3/93c BIU CTH
       C      NH1      CT1    CG321     9     0.000000     7.531200     1 ; PROT ala dipeptide, new C VDW Rmin, adm jr., 2MR 3/3/93c OAS
       C      NH1      CT1    CG324     9     0.000000     7.531200     1 ; G3P(R/S), Gamma-3-piperidine Glu Acid CDCA Amide, cacha DPP DNP GDPR
       C      NH1      CT1   CG3C51     9     0.000000     7.531200     1 ; from CG321 CG311 NG2S1 CG2O1, PENALTY= 10 IGL
     CT1    CG2D1    CG2D2     HGA5     9   180.000000    21.756800     2 ; from CG321 CG2D1 CG2D2 HGA5, PENALTY= 0.6 LVG
     CT1   CG2R51   CG2R51   CG2R51     9   180.000000    17.991200     2 ; from CG2R51 CG2R51 CG2R51 CG321, PENALTY= 0.6 THG2 THG3
     CT1   CG2R51   CG2R51    HGR51     9   180.000000     4.184000     2 ; from CG321 CG2R51 CG2R51 HGR51, PENALTY= 0.6 THG2 THG3
     CT1   CG2R51   CG2R51    HGR52     9   180.000000     4.184000     2 ; from CG321 CG2R51 CG2R51 HGR52, PENALTY= 0.6 THG3
     CT1   CG2R61   CG2R61   CG2R61     9   180.000000    12.970400     2 ; NAMODEL difluorotoluene 3FG FPG4 D4P PRV CHP 004 FPG2 CPG2 FPG3 TFG3
     CT1   CG2R61   CG2R61   CG2R66     9   180.000000    12.970400     2 ; from CG2R61 CG2R61 CG2R61 CG311, PENALTY= 1.5 FPG3
     CT1   CG2R61   CG2R61    HGR61     9   180.000000    10.041600     2 ; NAMODEL difluorotoluene Kenno: 4.2 -> 2.4 3FG FPG4 D4P 004 CHP PRV
     CT1   CG2R61   CG2R61    HGR62     9   180.000000    10.041600     2 ; from CG321 CG2R61 CG2R61 HGR62, PENALTY= 0.6 CHP CPG3 FPG3
     CT1   CG2R61   CG2R66   CG2R61     9   180.000000    12.970400     2 ; from CG331 CG2R61 CG2R66 CG2R61, PENALTY= 1.5 FPG2
     CT1   CG2R61   CG2R66     FGR1     9   180.000000    18.828000     2 ; from CG331 CG2R61 CG2R66 FGR1, PENALTY= 1.5 FPG2
     CT1    CG301    CG2O3    OG2D2     9   180.000000     0.209200     6 ; from OG2D2 CG2O3 CG301 CG331, PENALTY= 1.5 DMK
     CT1    CG301    CG311    CG331     9     0.000000     0.836800     3 ; from CG311 CG301 CG311 CG321, PENALTY= 0.9 TS9
     CT1    CG301    CG311     HGA1     9     0.000000     0.815880     3 ; CA, Cholic Acid, cacha, 03/06 reset to default by kevo TS9
     CT1    CG301    CG311    OG311     9     0.000000     0.585760     3 ; from CG311 CG311 CG311 OG311, PENALTY= 8 TS9
     CT1    CG301    CG321    CG331     9     0.000000     0.836800     3 ; from CG311 CG301 CG321 CG321, PENALTY= 0.9 I2M
     CT1    CG301    CG321     HGA2     9     0.000000     0.815880     3 ; CA, Cholic Acid, cacha, 03/06 reset to default by I2M kevo M2S
     CT1    CG301    CG331     HGA3     9     0.000000     0.669440     3 ; CA, Cholic Acid, cacha, 03/06 reset to default by DMK I2M kevo
     CT1    CG301    OG311     HGP1     9     0.000000     4.727920     1 ; from CG331 CG301 OG311 HGP1, PENALTY= 1.5 HVA TS9
     CT1    CG301    OG311     HGP1     9     0.000000     0.585760     2 ; from CG331 CG301 OG311 HGP1, PENALTY= 1.5 HVA TS9
     CT1    CG301    OG311     HGP1     9     0.000000     1.004160     3 ; from CG331 CG301 OG311 HGP1, PENALTY= 1.5 HVA TS9
     CT1    CG311    CG2O1    NG2S2     9     0.000000     0.000000     1 ; PROT ala dipeptide, new C VDW Rmin, 4/10/93 (LK) AHB
     CT1    CG311    CG2O1    OG2D1     9     0.000000     5.857600     1 ; PROT ala dipeptide, new C VDW Rmin, adm jr., 3/3/93c AHB
     CT1    CG311    CG2O3    OG2D2     9   180.000000     0.209200     6 ; PROT C-terminal AA - standard parameter 0TD 2AS BHD
     CT1    CG311    CG2O4    HGR52     9   180.000000     0.000000     3 ; from HGR52 CG2O4 CG321 CG331, PENALTY= 5.5 LVN
     CT1    CG311    CG2O4    OG2D1     9   180.000000     4.393200     1 ; from OG2D1 CG2O4 CG321 CG331, PENALTY= 5.5 LVN
     CT1    CG311    CG2O4    OG2D1     9   180.000000     1.673600     2 ; from OG2D1 CG2O4 CG321 CG331, PENALTY= 5.5 LVN
     CT1    CG311    CG2O4    OG2D1     9   180.000000     2.510400     3 ; from OG2D1 CG2O4 CG321 CG331, PENALTY= 5.5 LVN
     CT1    CG311    CG2O4    OG2D1     9   180.000000     0.418400     4 ; from OG2D1 CG2O4 CG321 CG331, PENALTY= 5.5 LVN
     CT1    CG311   CG2R51   CG2R51     9     0.000000     0.836800     1 ; from CG2R51 CG2R51 CG321 CG311, PENALTY= 4 HTR
     CT1    CG311   CG2R51   CG2R51     9     0.000000     1.129680     2 ; from CG2R51 CG2R51 CG321 CG311, PENALTY= 4 HTR
     CT1    CG311   CG2R51   CG2R51     9     0.000000     0.000000     3 ; from CG2R51 CG2R51 CG321 CG311, PENALTY= 4 HTR
     CT1    CG311   CG2R51   CG2RC0     9   180.000000     0.376560     2 ; from CG2RC0 CG2R51 CG321 CG311, PENALTY= 4 HTR
     CT1    CG311   CG2R51   CG2RC0     9     0.000000     2.384880     3 ; from CG2RC0 CG2R51 CG321 CG311, PENALTY= 4 HTR
     CT1    CG311   CG2R61   CG2R61     9   180.000000     0.962320     2 ; from CG2R61 CG2R61 CG311 CG321, PENALTY= 0.6 2GX BB8 DIPH
     CT1    CG311    CG311    CG321     9   180.000000     2.092000     4 ; NA bkb ILX
     CT1    CG311    CG311    CG331     9   180.000000     2.092000     4 ; from CG311 CG311 CG311 CG321, PENALTY= 0.9 HIL4 HL2 HLU
     CT1    CG311    CG311     HGA1     9     0.000000     0.815880     3 ; NA, sugar HIL4 HL2 HLU ILX
     CT1    CG311    CG311    OG311     9     0.000000     0.585760     3 ; PROT, hydroxyl wild card HIL4 ILX
     CT1    CG311    CG321    CG2O1     9     0.000000     0.815880     3 ; from CG2O1 CG321 CG321 CG311, PENALTY= 4 LMQ
     CT1    CG311    CG321    CG2O3     9     0.000000     0.836800     3 ; from CG331 CG311 CG321 CG2O3, PENALTY= 1.5 LME MEG
     CT1    CG311    CG321    CG321     9     0.000000     0.836800     3 ; CHL1, Cholesterol reset to default by kevo BIU CHG
     CT1    CG311    CG321    CG331     9     0.000000     0.836800     3 ; PROT alkane update, adm jr., 3/2/92 DILE IIL VAH
     CT1    CG311    CG321     HGA2     9     0.000000     0.815880     3 ; NA, sugar BIU CTH DILE LMQ LME CHG IIL MEG TH6 VAH
     CT1    CG311    CG321    OG311     9   180.000000     0.836800     3 ; from CG321 CG311 CG321 OG311, PENALTY= 0.6 TH6
     CT1    CG311    CG331     HGA3     9     0.000000     0.836800     3 ; PROT alkane update, adm jr., 3/2/92 BIU OLT HIL4 2AS ALO LMQ
     CT1    CG311    OG301    CG331     9     0.000000     1.673600     1 ; from CG331 CG311 OG301 CG331, PENALTY= 1.5 OLT
     CT1    CG311    OG301    CG331     9     0.000000     2.050160     3 ; from CG331 CG311 OG301 CG331, PENALTY= 1.5 OLT
     CT1    CG311    OG303    SG3O1     9     0.000000     0.000000     3 ; from CG321 CG321 OG303 SG3O1, PENALTY= 4.6 ALS
     CT1    CG311    OG311     HGP1     9     0.000000     5.564720     1 ; PROT PRO2, 2-propanol OH hf/torsional surface, adm jr., 3/2/93 ALO BHD CTH
     CT1    CG311    OG311     HGP1     9     0.000000     0.753120     2 ; PROT PRO2, 2-propanol OH hf/torsional surface, adm jr., 3/2/93 ALO BHD CTH
     CT1    CG311    OG311     HGP1     9     0.000000     1.924640     3 ; PROT PRO2, 2-propanol OH hf/torsional surface, adm jr., 3/2/93 ! compensated for
     CT1    CG311    SG311    CG331     9   180.000000     1.004160     1 ; from CG321 CG321 SG311 CG331, PENALTY= 4.6 0TD
     CT1    CG311    SG311    CG331     9     0.000000     1.548080     3 ; from CG321 CG321 SG311 CG331, PENALTY= 4.6 0TD
     CT1    CG321    CG2D1    CG2D2     9   180.000000     2.092000     1 ; from CG2D2 CG2D1 CG321 CG331, PENALTY= 1.5 2AG
     CT1    CG321    CG2D1    CG2D2     9   180.000000     5.439200     3 ; from CG2D2 CG2D1 CG321 CG331, PENALTY= 1.5 2AG
     CT1    CG321    CG2D1     HGA4     9     0.000000     0.000000     3 ; CHOLEST cholesterol 2AG
     CT1    CG321   CG2DC1   CG2DC1     9     0.000000     2.092000     2 ; from CG2DC1 CG2DC1 CG321 CG321, PENALTY= 0.6 STYA TPQ TPQP
     CT1    CG321   CG2DC1   CG2DC1     9     0.000000     1.255200     3 ; from CG2DC1 CG2DC1 CG321 CG321, PENALTY= 0.6 STYA TPQ TPQP
     CT1    CG321    CG2O1    NG2S1     9     0.000000     0.000000     1 ; from NG2S1 CG2O1 CG321 CG321, PENALTY= 0.6 MEN
     CT1    CG321    CG2O1    OG2D1     9   180.000000     0.209200     6 ; PROT For side chains of asp,asn,glu,gln, (n=6) from KK(LK) MEN
     CT1    CG321    CG2O2    OG2D1     9   180.000000     0.000000     6 ; 576P, standard param [0.05 also acceptable] ASL PHD ASB PHDP
     CT1    CG321    CG2O2    OG302     9   180.000000     2.217520     2 ; from OG302 CG2O2 CG321 CG321, PENALTY= 0.6 ASB ASL
     CT1    CG321    CG2O2    OG303     9   180.000000     2.217520     2 ; from OG302 CG2O2 CG321 CG321, PENALTY= 3.1 PHD PHDP
     CT1    CG321    CG2O3    OG2D2     9   180.000000     0.209200     6 ; PROT For side chains of asp,asn,glu,gln, (n=6) from KK(LK) IAS
     CT1    CG321    CG2O4    HGR52     9   180.000000     0.000000     3 ; from HGR52 CG2O4 CG321 CG331, PENALTY= 1.5 AS2
     CT1    CG321    CG2O4    OG2D1     9   180.000000     4.393200     1 ; from OG2D1 CG2O4 CG321 CG331, PENALTY= 1.5 AS2
     CT1    CG321    CG2O4    OG2D1     9   180.000000     1.673600     2 ; from OG2D1 CG2O4 CG321 CG331, PENALTY= 1.5 AS2
     CT1    CG321    CG2O4    OG2D1     9   180.000000     2.510400     3 ; from OG2D1 CG2O4 CG321 CG331, PENALTY= 1.5 AS2
     CT1    CG321    CG2O4    OG2D1     9   180.000000     0.418400     4 ; from OG2D1 CG2O4 CG321 CG331, PENALTY= 1.5 AS2
     CT1    CG321    CG2O5   CG2R61     9     0.000000     1.673600     1 ; from CG2R61 CG2O5 CG321 CG331, PENALTY= 1.5 KYN
     CT1    CG321    CG2O5   CG2R61     9   180.000000     0.711280     2 ; from CG2R61 CG2O5 CG321 CG331, PENALTY= 1.5 KYN
     CT1    CG321    CG2O5   CG2R61     9   180.000000     0.543920     3 ; from CG2R61 CG2O5 CG321 CG331, PENALTY= 1.5 KYN
     CT1    CG321    CG2O5   CG2R61     9   180.000000     0.418400     6 ; from CG2R61 CG2O5 CG321 CG331, PENALTY= 1.5 KYN
     CT1    CG321    CG2O5    OG2D3     9   180.000000     3.138000     1 ; from OG2D3 CG2O5 CG321 CG321, PENALTY= 0.6 KYN
     CT1    CG321    CG2O5    OG2D3     9   180.000000     0.753120     2 ; from OG2D3 CG2O5 CG321 CG321, PENALTY= 0.6 KYN
     CT1    CG321    CG2O5    OG2D3     9   180.000000     0.271960     3 ; from OG2D3 CG2O5 CG321 CG321, PENALTY= 0.6 KYN
     CT1    CG321    CG2O5    OG2D3     9     0.000000     0.125520     6 ; from OG2D3 CG2O5 CG321 CG321, PENALTY= 0.6 KYN
     CT1    CG321   CG2R51   CG2R51     9     0.000000     0.836800     1 ; PROT 4-ethylimidazole 4-21G rot bar, adm jr. 3/4/92 TOX 0AF HIX TTQ
     CT1    CG321   CG2R51   CG2R51     9     0.000000     1.129680     2 ; PROT 4-ethylimidazole 4-21G rot bar, adm jr. 3/4/92 TOX 0AF HIX TTQ
     CT1    CG321   CG2R51   CG2R51     9     0.000000     0.000000     3 ; PROT 4-ethylimidazole 4-21G rot bar, adm jr. 3/4/92 TOX 0AF HIX TTQ
     CT1    CG321   CG2R51   CG2RC0     9   180.000000     0.376560     2 ; INDO/TRP TOX TTQ 0AF HRP TRW 4IN 4FW TRX FT6 FTR TRO
     CT1    CG321   CG2R51   CG2RC0     9     0.000000     2.384880     3 ; INDO/TRP TOX TTQ 0AF HRP TRW 4IN 4FW TRX FT6 FTR TRO
     CT1    CG321   CG2R51   NG2R50     9     0.000000     0.794960     3 ; PROT HIS CB-CG TORSION, DDE 2HF2 TZA4 NEP
     CT1    CG321   CG2R51   NG2R51     9     0.000000     0.794960     3 ; PROT 4-METHYLIMIDAZOLE 4-21G//ROT BAR. ADM JR., 9/4/89 HIX 2HF1 MHS
     CT1    CG321   CG2R51   NG2R52     9     0.000000     0.794960     3 ; PROT 4-METHYLIMIDAZOLE 4-21G//ROT BAR. ADM JR., 9/4/89 DDEP 2HF HICP HIP MHSP
     CT1    CG321   CG2R61   CG2R61     9   180.000000     0.962320     2 ; PROT ethylbenzene ethyl rotation, adm jr. 3/7/92 F2F NIY 0A1 ALN IYR
     CT1    CG321   CG2R61   CG2R66     9   180.000000     0.962320     2 ; from CG2R61 CG2R61 CG321 CG311, PENALTY= 1.5 FPH2 PF5
     CT1    CG321   CG2R61   NG2R60     9   180.000000     0.962320     2 ; from NG2R60 CG2R61 CG321 CG321, PENALTY= 0.6 PYR2 QU32 QX32
     CT1    CG321    CG301    CG321     9     0.000000     0.836800     3 ; from CG321 CG301 CG321 CG321, PENALTY= 0.6 ADAM
     CT1    CG321    CG311    CG2O1     9     0.000000     0.836800     3 ; PROT alkane update, adm jr., 3/2/92 GHG
     CT1    CG321    CG311    CG2O2     9     0.000000     0.836800     3 ; from CG2O2 CG311 CG321 CG321, PENALTY= 0.6 CGUH
     CT1    CG321    CG311    CG2O3     9     0.000000     0.836800     3 ; PROT C-terminal AA - standard parameter CGU SYM 3GL CGUH
     CT1    CG321    CG311    CG2O4     9     0.000000     0.836800     3 ; from CG2O2 CG311 CG321 CG321, PENALTY= 2.6 LED
     CT1    CG321    CG311    CG321     9     0.000000     0.836800     3 ; PROT alkane update, adm jr., 3/2/92 ALC
     CT1    CG321    CG311    CG324     9     0.000000     0.815880     3 ; from CG324 CG311 CG321 CG321, PENALTY= 0.6 ARO
     CT1    CG321    CG311    CG331     9     0.000000     0.836800     3 ; PROT alkane update, adm jr., 3/2/92 SYM LEF LED TFLE
     CT1    CG321    CG311     HGA1     9     0.000000     0.815880     3 ; NA, sugar GHG ARO CGU SYM LEF LED 3GL ALC CGUH TFLE
     CT1    CG321    CG311    OG311     9   180.000000     8.368000     3 ; NA, sugar GHG ARO 3GL
     CT1    CG321    CG311    OG311     9     0.000000     1.673600     5 ; NA, sugar GHG ARO 3GL
     CT1    CG321    CG311    OG311     9     0.000000     3.347200     6 ; NA, sugar GHG ARO 3GL
     CT1    CG321    CG321    CG2O1     9     0.000000     0.815880     3 ; PROT alkane update, adm jr., 3/2/92 HGA MEQ
     CT1    CG321    CG321    CG2O2     9     0.000000     0.815880     3 ; GMGA, cacha GME
     CT1    CG321    CG321    CG2O5     9   180.000000     0.878640     1 ; from CG2O5 CG321 CG321 CG321, PENALTY= 0.6 ONL
     CT1    CG321    CG321    CG2O5     9     0.000000     1.631760     2 ; from CG2O5 CG321 CG321 CG321, PENALTY= 0.6 ONL
     CT1    CG321    CG321    CG2O5     9   180.000000     1.464400     3 ; from CG2O5 CG321 CG321 CG321, PENALTY= 0.6 ONL
     CT1    CG321    CG321    CG2O5     9     0.000000     0.460240     4 ; from CG2O5 CG321 CG321 CG321, PENALTY= 0.6 ONL
     CT1    CG321    CG321    CG2O5     9   180.000000     0.376560     6 ; from CG2O5 CG321 CG321 CG321, PENALTY= 0.6 ONL
     CT1    CG321    CG321   CG2R61     9     0.000000     0.167360     3 ; from CG2R61 CG321 CG321 CG321, PENALTY= 0.6 HPE
     CT1    CG321    CG321    CG311     9     0.000000     0.815880     3 ; PROT alkane update, adm jr., 3/2/92 LYZ HLEU ACZ
     CT1    CG321    CG321    CG314     9     0.000000     0.815880     3 ; from CG311 CG321 CG321 CG324, PENALTY= 0.6 AGM
     CT1    CG321    CG321    CG321     9     0.000000     2.092000     3 ; CARBOCY carbocyclic sugars MCL ALY 26P 6CL HHK KCX HRG IT1 LDO
     CT1    CG321    CG321    CG321     9   180.000000     2.092000     6 ; CARBOCY carbocyclic sugars MCL ALY 26P 6CL HHK KCX HRG IT1 LDO
     CT1    CG321    CG321    CG324     9     0.000000     0.815880     3 ; FLAVOP PIP1,2,3 2MR NMM DA2 ORN
     CT1    CG321    CG321    CG331     9     0.000000     0.629692     2 ; from CG321 CG321 CG321 CG331, PENALTY= 0.6 NVA
     CT1    CG321    CG321    CG331     9   180.000000     0.340159     3 ; from CG321 CG321 CG321 CG331, PENALTY= 0.6 NVA
     CT1    CG321    CG321    CG331     9     0.000000     0.452709     4 ; from CG321 CG321 CG321 CG331, PENALTY= 0.6 NVA
     CT1    CG321    CG321    CG331     9     0.000000     0.853118     5 ; from CG321 CG321 CG321 CG331, PENALTY= 0.6 NVA
     CT1    CG321    CG321     HGA2     9     0.000000     0.815880     3 ; NA abasic nucleoside 2MR HGA MCL ALY 26P 6CL 4CY CAN HHK
     CT1    CG321    CG321    OG301     9   180.000000     0.669440     1 ; from CG321 CG321 CG321 OG301, PENALTY= 0.6 CAN GGB
     CT1    CG321    CG321    OG301     9     0.000000     1.631760     2 ; from CG321 CG321 CG321 OG301, PENALTY= 0.6 CAN GGB
     CT1    CG321    CG321    OG311     9     0.000000     0.815880     3 ; from CG321 CG321 CG321 OG311, PENALTY= 0.6 HSER
     CT1    CG321    CG321    SG311     9     0.000000     0.815880     3 ; PROT alkane update, adm jr., 3/2/92 4CY ESC ME0 2FM HCS
     CT1    CG321    CG321    SG3O2     9   180.000000     3.932960     1 ; from CG331 CG321 CG321 SG3O1, PENALTY= 6.5 OMT
     CT1    CG321    CG321    SG3O2     9     0.000000     1.589920     2 ; from CG331 CG321 CG321 SG3O1, PENALTY= 6.5 OMT
     CT1    CG321    CG321    SG3O2     9     0.000000     0.460240     3 ; from CG331 CG321 CG321 SG3O1, PENALTY= 6.5 OMT
     CT1    CG321    CG321    SG3O3     9   180.000000     3.932960     1 ; from CG331 CG321 CG321 SG3O1, PENALTY= 9.5 MHO SME
     CT1    CG321    CG321    SG3O3     9     0.000000     1.589920     2 ; from CG331 CG321 CG321 SG3O1, PENALTY= 9.5 MHO SME
     CT1    CG321    CG321    SG3O3     9     0.000000     0.460240     3 ; from CG331 CG321 CG321 SG3O1, PENALTY= 9.5 MHO SME
     CT1    CG321    CG324     HGA2     9     0.000000     0.815880     3 ; FLAVOP PIP1,2,3 GBUT DAB
     CT1    CG321    CG324    NG2P1     9     0.000000     0.815880     3 ; from CG321 CG321 CG324 NG2P1, PENALTY= 0.6 GBUT
     CT1    CG321    CG324    NG3P3     9     0.000000     0.815880     3 ; from CG321 CG321 CG324 NG3P3, PENALTY= 0.6 DAB
     CT1    CG321    CG331     HGA3     9     0.000000     0.669440     3 ; PROT rotation barrier in Ethane (SF) ABA DBB
     CT1    CG321   CG3C51   CG3C52     9   180.000000     2.092000     4 ; from CG321 CG311 CG3C51 CG3C52, PENALTY= 4.6 CPA3
     CT1    CG321   CG3C51     HGA1     9     0.000000     0.815880     3 ; from CG321 CG311 CG3C51 HGA1, PENALTY= 4.6 CPA3
     CT1    CG321   NG2R51   CG2R51     9     0.000000     1.610840     1 ; from CG331 CG321 NG2R51 CG2R51, PENALTY= 1.5 PYZ1
     CT1    CG321   NG2R51   CG2R51     9     0.000000     1.757280     2 ; from CG331 CG321 NG2R51 CG2R51, PENALTY= 1.5 PYZ1
     CT1    CG321   NG2R51   CG2R51     9     0.000000     0.334720     3 ; from CG331 CG321 NG2R51 CG2R51, PENALTY= 1.5 PYZ1
     CT1    CG321   NG2R51   CG2R51     9     0.000000     0.230120     4 ; from CG331 CG321 NG2R51 CG2R51, PENALTY= 1.5 PYZ1
     CT1    CG321   NG2R51   CG2R53     9     0.000000     1.610840     1 ; from CG331 CG321 NG2R51 CG2R51, PENALTY= 4 TRZ4
     CT1    CG321   NG2R51   CG2R53     9     0.000000     1.757280     2 ; from CG331 CG321 NG2R51 CG2R51, PENALTY= 4 TRZ4
     CT1    CG321   NG2R51   CG2R53     9     0.000000     0.334720     3 ; from CG331 CG321 NG2R51 CG2R51, PENALTY= 4 TRZ4
     CT1    CG321   NG2R51   CG2R53     9     0.000000     0.230120     4 ; from CG331 CG321 NG2R51 CG2R51, PENALTY= 4 TRZ4
     CT1    CG321   NG2R51   NG2R50     9   180.000000     1.610840     1 ; from CG331 CG321 NG2R51 NG2R50, PENALTY= 1.5 PYZ1 TEZA TRZ4
     CT1    CG321   NG2R51   NG2R50     9     0.000000     1.757280     2 ; from CG331 CG321 NG2R51 NG2R50, PENALTY= 1.5 PYZ1 TEZA TRZ4
     CT1    CG321   NG2R51   NG2R50     9   180.000000     0.334720     3 ; from CG331 CG321 NG2R51 NG2R50, PENALTY= 1.5 PYZ1 TEZA TRZ4
     CT1    CG321   NG2R51   NG2R50     9     0.000000     0.230120     4 ; from CG331 CG321 NG2R51 NG2R50, PENALTY= 1.5 PYZ1 TEZA TRZ4
     CT1    CG321    NG2S1    CG2O1     9     0.000000     7.531200     1 ; G4MP, Gamma-4-Methyl Piperidine Glu Acid CDCA Amide, cacha DBZ
     CT1    CG321    NG2S1     HGP1     9     0.000000     0.000000     1 ; G4MP, Gamma-4-Methyl Piperidine Glu Acid CDCA Amide, cacha DBZ
     CT1    CG321    OG302    CG2O2     9     0.000000     0.000000     3 ; LIPID phosphate, new NA, 4/98, adm jr. OAS
     CT1    CG321    OG302    CG2O6     9   180.000000     0.418400     1 ; from CG331 CG321 OG302 CG2O6, PENALTY= 1.5 BXT
     CT1    CG321    OG302    CG2O6     9     0.000000     2.510400     2 ; from CG331 CG321 OG302 CG2O6, PENALTY= 1.5 BXT
     CT1    CG321    OG302    CG2O6     9   180.000000     0.418400     3 ; from CG331 CG321 OG302 CG2O6, PENALTY= 1.5 BXT
     CT1    CG321    OG303      PG0     9   180.000000     2.510400     1 ; from CG311 CG321 OG303 PG1, PENALTY= 2 SGB SVX SVY
     CT1    CG321    OG303      PG0     9     0.000000     0.209200     3 ; from CG311 CG321 OG303 PG1, PENALTY= 2 SGB SVX SVY
     CT1    CG321    OG303      PG1     9   180.000000     2.510400     1 ; EP_2 phospho-ser/thr !Reorganization: GPC and others SEN 4HH SVV MIR SBG
     CT1    CG321    OG303      PG1     9     0.000000     2.719600     2 ; EP_2 phospho-ser/thr !Reorganization: GPC and others SEN 4HH SVV MIR SBG
     CT1    CG321    OG303      PG1     9     0.000000     0.209200     3 ; EP_2 phospho-ser/thr !Reorganization: GPC and others SEN 4HH SVV MIR SBG
     CT1    CG321    OG303    SG3O1     9     0.000000     0.000000     3 ; from CG321 CG321 OG303 SG3O1, PENALTY= 0.6 OSE
     CT1    CG321    OG303    SG3O2     9     0.000000     0.000000     3 ; from CG321 CG321 OG303 SG3O1, PENALTY= 5.6 SEB
     CT1    CG321    SG301    SG301     9     0.000000     1.297040     3 ; from CG331 CG321 SG301 SG301, PENALTY= 1.5 PR3 R1A SCH
     CT1    CG321    SG301    SG311     9     0.000000     1.297040     3 ; from CG331 CG321 SG301 SG301, PENALTY= 3.5 CSS
     CT1    CG321    SG311    CG301     9   180.000000     1.004160     1 ; from CG321 CG321 SG311 CG321, PENALTY= 2.4 QPA
     CT1    CG321    SG311    CG301     9     0.000000     1.548080     3 ; from CG321 CG321 SG311 CG321, PENALTY= 2.4 QPA
     CT1    CG321    SG311    CG311     9   180.000000     1.004160     1 ; from CG321 CG321 SG311 CG321, PENALTY= 1.2 CGV CML HTI
     CT1    CG321    SG311    CG311     9     0.000000     1.548080     3 ; from CG321 CG321 SG311 CG321, PENALTY= 1.2 CGV CML HTI
     CT1    CG321    SG311    CG321     9   180.000000     1.004160     1 ; from CG321 CG321 SG311 CG321, PENALTY= 0.6 BCS CCS OCY
     CT1    CG321    SG311    CG321     9     0.000000     1.548080     3 ; from CG321 CG321 SG311 CG321, PENALTY= 0.6 BCS CCS OCY
     CT1    CG321    SG311    CG331     9   180.000000     1.004160     1 ; from CG321 CG321 SG311 CG331, PENALTY= 0.6 SMC
     CT1    CG321    SG311    CG331     9     0.000000     1.548080     3 ; from CG321 CG321 SG311 CG331, PENALTY= 0.6 SMC
     CT1    CG321    SG3O1    OG2P1     9     0.000000     0.962320     3 ; from CG321 CG321 SG3O1 OG2P1, PENALTY= 0.6 OCS
     CT1    CG321    SG3O2    OG2P1     9     0.000000     0.753120     3 ; from CG331 CG321 SG3O2 OG2P1, PENALTY= 1.5 CSD
     CT1    CG324    NG2P1    CG2N1     9   180.000000     0.000000     6 ; from CG321 CG324 NG2P1 CG2N1, PENALTY= 0.6 GDPR
     CT1    CG324    NG2P1     HGP2     9   180.000000     0.000000     6 ; from CG321 CG324 NG2P1 HGP2, PENALTY= 0.6 GDPR
     CT1    CG324    NG3P3     HGP2     9     0.000000     0.418400     3 ; from CG321 CG324 NG3P3 HGP2, PENALTY= 0.6 DNP DPP
     CT1   CG3C51   CG3C52     HGA2     9     0.000000     0.794960     3 ; alkane, 4/98, yin and mackerell, thf, viv IGL
     HB1      CT1    CG2D1    CG2D2     9     0.000000     0.502080     3 ; from CG2D2 CG2D1 CG321 HGA2, PENALTY= 4 LVG
     HB1      CT1    CG2D1     HGA4     9     0.000000     0.000000     3 ; from HGA4 CG2D1 CG321 HGA2, PENALTY= 4 LVG
     HB1      CT1   CG2R51   CG2R51     9     0.000000     0.000000     3 ; from CG2R51 CG2R51 CG321 HGA2, PENALTY= 4 THG2 THG3
     HB1      CT1   CG2R53   NG2R50     9     0.000000     0.794960     3 ; from NG2R50 CG2R53 CG321 HGA2, PENALTY= 4 C12
     HB1      CT1   CG2R53   NG2R51     9     0.000000     0.794960     3 ; from NG2R51 CG2R53 CG321 HGA2, PENALTY= 4 C12
     HB1      CT1   CG2R61   CG2R61     9   180.000000     0.418400     6 ; NAMODEL difluorotoluene 3FG FPG4 D4P PRV CHP 004 FPG2 CPG2 FPG3 TFG3
     HB1      CT1   CG2R61   CG2R66     9   180.000000     0.418400     6 ; from CG2R61 CG2R61 CG311 HGA1, PENALTY= 1.5 FPG2
     HB1      CT1    CG301    CG2O3     9     0.000000     0.836800     3 ; from CG2O3 CG311 CG311 HGA1, PENALTY= 8 DMK
     HB1      CT1    CG301    CG311     9     0.000000     0.815880     3 ; CA, Cholic Acid, cacha, 03/06 reset to default by kevo TS9
     HB1      CT1    CG301    CG321     9     0.000000     0.815880     3 ; CA, Cholic Acid, cacha, 03/06 reset to default by I2M kevo M2S
     HB1      CT1    CG301    CG331     9     0.000000     0.815880     3 ; CA, Cholic Acid, cacha, 03/06 reset to default by DMK I2M kevo
     HB1      CT1    CG301    OG311     9     0.000000     0.815880     3 ; from OG311 CG311 CG311 HGA1, PENALTY= 8 HVA TS9
     HB1      CT1    CG311    CG2O1     9     0.000000     0.836800     3 ; PROT alkane update, adm jr., 3/2/92 AHB
     HB1      CT1    CG311    CG2O3     9     0.000000     0.836800     3 ; PROT C-terminal AA - standard parameter 0TD 2AS BHD
     HB1      CT1    CG311    CG2O4     9     0.000000     0.836800     3 ; from CG2O1 CG311 CG311 HGA1, PENALTY= 3 LVN
     HB1      CT1    CG311   CG2R51     9     0.000000     0.836800     3 ; from HGA1 CG311 CG321 CG2R51, PENALTY= 4 HTR
     HB1      CT1    CG311   CG2R61     9     0.000000     0.000000     3 ; from CG2R61 CG311 CG321 HGA2, PENALTY= 4 2GX BB8 DIPH
     HB1      CT1    CG311    CG311     9     0.000000     0.815880     3 ; NA, sugar HIL4 HL2 HLU ILX
     HB1      CT1    CG311    CG321     9     0.000000     0.815880     3 ; NA, sugar BIU CTH DILE LMQ LME CHG IIL MEG TH6 VAH
     HB1      CT1    CG311    CG331     9     0.000000     0.815880     3 ; NA, sugar BIU OLT HIL4 ALO 2AS LMQ LME IIL LVN MEG
     HB1      CT1    CG311     HGA1     9     0.000000     0.815880     3 ; NA, sugar BIU CTH OLT 0TD HIL4 ALO 2AS BHD DILE LMQ
     HB1      CT1    CG311    OG301     9     0.000000     0.815880     3 ; from HGA1 CG311 CG321 OG302, PENALTY= 4.5 OLT
     HB1      CT1    CG311    OG303     9     0.000000     0.815880     3 ; from HGA1 CG311 CG321 OG303, PENALTY= 4 ALS
     HB1      CT1    CG311    OG311     9     0.000000     0.815880     3 ; NA, sugar CTH ALO BHD HL2 AHB HTR HLU BB8 OMY TH6
     HB1      CT1    CG311    SG311     9     0.000000     0.815880     3 ; from HGA1 CG311 CG321 SG311, PENALTY= 4 0TD
     HB1      CT1    CG321    CG2D1     9     0.000000     0.836800     3 ; PROT alkane update, adm jr., 3/2/92 2AG
     HB1      CT1    CG321   CG2DC1     9     0.000000     0.836800     3 ; from HGA1 CG311 CG321 CG2D1, PENALTY= 0.5 STYA TPQ TPQP
     HB1      CT1    CG321    CG2O1     9     0.000000     0.836800     3 ; PROT alkane update, adm jr., 3/2/92 MEN
     HB1      CT1    CG321    CG2O2     9     0.000000     0.836800     3 ; 576P, standard param ASL PHD ASB PHDP
     HB1      CT1    CG321    CG2O3     9     0.000000     0.836800     3 ; PROT alkane update, adm jr., 3/2/92 IAS
     HB1      CT1    CG321    CG2O4     9     0.000000     0.836800     3 ; from HGA1 CG311 CG321 CG2O2, PENALTY= 2 AS2
     HB1      CT1    CG321    CG2O5     9     0.000000     0.836800     3 ; from HGA1 CG311 CG321 CG2O2, PENALTY= 2 KYN
     HB1      CT1    CG321   CG2R51     9     0.000000     0.836800     3 ; PROT alkane update, adm jr., 3/2/92 TOX TTQ 0AF DDE HIX THA3
     HB1      CT1    CG321   CG2R61     9     0.000000     0.167360     3 ; PROT 2.7 kcal/mole CH3 rot in ethylbenzene, adm jr, 3/7/92 F2F NIY
     HB1      CT1    CG321    CG301     9     0.000000     0.815880     3 ; from HGA1 CG311 CG321 CG311, PENALTY= 1.2 ADAM
     HB1      CT1    CG321    CG311     9     0.000000     0.815880     3 ; NA, sugar GHG ARO CGU SYM LEF LED 3GL ALC CGUH TFLE
     HB1      CT1    CG321    CG321     9     0.000000     0.815880     3 ; NA abasic nucleoside 2MR HGA MCL ALY 26P 6CL 4CY CAN HHK
     HB1      CT1    CG321    CG324     9     0.000000     0.815880     3 ; G4MP, 01OH03, cacha GBUT DAB
     HB1      CT1    CG321    CG331     9     0.000000     0.836800     3 ; PROT alkane update, adm jr., 3/2/92 ABA DBB
     HB1      CT1    CG321   CG3C51     9     0.000000     2.092000     3 ; from CG3C50 CG321 CG321 HGA2, PENALTY= 4.8 CPA3
     HB1      CT1    CG321     HGA2     9     0.000000     0.815880     3 ; NA, sugar 2MR OAS F2F TOX SGB CSPP NIY 2AG 2CO IYR
     HB1      CT1    CG321    NG2S1     9     0.000000     0.836800     3 ; G4MP, 01OH03, cacha DBZ
     HB1      CT1    CG321    OG302     9     0.000000     0.815880     3 ; NA, sugar OAS BXT
     HB1      CT1    CG321    OG303     9     0.000000     0.815880     3 ; NA, sugar SGB SEN SVY OSE SVX 4HH SVV MIR SBG SUN
     HB1      CT1    CG321    SG301     9     0.000000     0.815880     3 ; from HGA1 CG311 CG321 SG311, PENALTY= 1 2CO CSO CSX
     HB1      CT1    CG321    SG311     9     0.000000     0.815880     3 ; PROTNA sahc OCY CML CCS SMC BCS 143 HTI AGT CGV SLZ
     HB1      CT1    CG321    SG3O1     9     0.000000     0.041840     1 ; from SG3O1 CG321 CG321 HGA2, PENALTY= 4 OCS
     HB1      CT1    CG321    SG3O2     9     0.000000     0.041840     1 ; from SG3O1 CG321 CG321 HGA2, PENALTY= 9 CSD
     HB1      CT1    CG324     HGA2     9     0.000000     0.815880     3 ; FLAVOP PIP1,2,3 DPP DNP GDPR
     HB1      CT1    CG324    NG2P1     9     0.000000     0.815880     3 ; from HGA2 CG321 CG324 NG2P1, PENALTY= 4 GDPR
     HB1      CT1    CG324    NG3P3     9     0.000000     0.815880     3 ; from HGA1 CG311 CG324 NG3P2, PENALTY= 0.9 DNP DPP
     HB1      CT1   CG3C51   CG3C52     9     0.000000     0.669440     3 ; alkane, 4/98, yin and mackerell, tf2m viv IGL
     HB1      CT1   CG3C51     HGA1     9     0.000000     0.669440     3 ; alkane, 4/98, yin and mackerell, tf2m viv IGL
    HGA1    CG311      CT1        C     9     0.000000     0.836800     3 ; PROT alkane update, adm jr., 3/2/92 BIU CTH OLT 0TD ALO HIL4
    HGA2    CG321      CT1        C     9     0.000000     0.836800     3 ; PROT alkane update, adm jr., 3/2/92 2MR OAS F2F CSPP SGB TOX
    HGA2    CG324      CT1        C     9     0.000000     0.836800     3 ; from CG2O1 CG311 CG321 HGA2, PENALTY= 1 DNP DPP GDPR
       H      NH1      CT1   CG2R61     9     0.000000     0.000000     1 ; from CG2R61 CG321 NG2S1 HGP1, PENALTY= 4 3FG D4P FPG4
       H      NH1      CT1    CG301     9     0.000000     0.000000     1 ; from CG311 CG311 NG2S1 HGP1, PENALTY= 1.2 DMK HVA I2M
       H      NH1      CT1    CG311     9     0.000000     0.000000     1 ; PROT Alanine Dipeptide ab initio calc's (LK) BIU CTH 0TD HIL4 OLT
       H      NH1      CT1    CG321     9     0.000000     0.000000     1 ; PROT Alanine Dipeptide ab initio calc's (LK) 2MR OAS F2F SGB TOX
       H      NH1      CT1    CG324     9     0.000000     0.000000     1 ; G3P(R/S), Gamma-3-piperidine Glu Acid CDCA Amide, cacha DPP DNP GDPR
       H      NH1      CT1   CG3C51     9     0.000000     0.000000     1 ; from CG321 CG311 NG2S1 HGP1, PENALTY= 10 IGL
   NG2S1    CG321      CT1        C     9     0.000000     0.836800     3 ; from NG2S1 CG311 CG321 CG2O1, PENALTY= 8 DBZ
   NG3P3    CG324      CT1        C     9     0.000000     0.836800     3 ; from NG3P3 CG314 CG321 CG2O1, PENALTY= 8 DNP DPP
     NH1      CT1   CG2R61   CG2R61     9     0.000000     0.497896     2 ; from CG2R61 CG2R61 CG321 NG2S1, PENALTY= 4 3FG D4P FPG4
     NH1      CT1   CG2R61   CG2R61     9   180.000000     0.054392     6 ; from CG2R61 CG2R61 CG321 NG2S1, PENALTY= 4 3FG D4P FPG4
     NH1      CT1   CG2R61   CG2R66     9     0.000000     0.497896     2 ; from CG2R61 CG2R61 CG321 NG2S1, PENALTY= 5.5 FPG2
     NH1      CT1   CG2R61   CG2R66     9   180.000000     0.552288     4 ; from CG2R61 CG2R61 CG321 NG2S1, PENALTY= 5.5 FPG2
     NH1      CT1   CG2R61   CG2R66     9   180.000000     0.054392     6 ; from CG2R61 CG2R61 CG321 NG2S1, PENALTY= 5.5 FPG2
     NH1      CT1    CG301    CG311     9     0.000000     0.836800     3 ; from CG321 CG311 CG311 NG2S1, PENALTY= 8.6 TS9
     NH1      CT1    CG301    CG321     9     0.000000     0.836800     3 ; from CG321 CG311 CG311 NG2S1, PENALTY= 8 I2M M2S
     NH1      CT1    CG301    CG331     9     0.000000     0.836800     3 ; from CG331 CG311 CG311 NG2S1, PENALTY= 8 DMK HVA I2M
     NH1      CT1    CG301    OG311     9     0.000000     0.836800     3 ; from NG2S1 CG311 CG311 OG311, PENALTY= 8 HVA TS9
     NH1      CT1    CG311    CG2O1     9     0.000000     0.836800     3 ; from NG2S1 CG311 CG321 CG2O1, PENALTY= 4 AHB
     NH1      CT1    CG311    CG2O3     9     0.000000     0.836800     3 ; from NG2S1 CG311 CG321 CG2O3, PENALTY= 4 0TD 2AS BHD
     NH1      CT1    CG311    CG2O4     9     0.000000     0.836800     3 ; from NG2S1 CG311 CG321 CG2O1, PENALTY= 7 LVN
     NH1      CT1    CG311   CG2R51     9     0.000000     0.836800     3 ; from NG2S1 CG311 CG321 CG2R51, PENALTY= 4 HTR
     NH1      CT1    CG311   CG2R61     9     0.000000     0.836800     3 ; from NG2S1 CG311 CG321 CG2R61, PENALTY= 4 2GX BB8 DIPH
     NH1      CT1    CG311    CG311     9     0.000000     0.836800     3 ; from CG321 CG311 CG311 NG2S1, PENALTY= 0.6 HIL4 HL2 HLU
     NH1      CT1    CG311    CG321     9     0.000000     0.836800     3 ; PROT alkane update, adm jr., 3/2/92 BIU CTH DILE CHG LME LMQ
     NH1      CT1    CG311    CG331     9     0.000000     0.836800     3 ; PROT alkane update, adm jr., 3/2/92 BIU OLT HIL4 2AS ALO LMQ
     NH1      CT1    CG311     HGA1     9     0.000000     0.836800     3 ; PROT alkane update, adm jr., 3/2/92 BIU CTH OLT 0TD ALO HIL4
     NH1      CT1    CG311    OG311     9     0.000000     0.836800     3 ; PROT alkane update, adm jr., 3/2/92 CTH ALO BHD AHB HL2 HTR
     NH1      CT1    CG311    SG311     9     0.000000     0.836800     3 ; from NG2S1 CG311 CG321 SG311, PENALTY= 4 0TD
     NH1      CT1    CG321    CG2O1     9     0.000000     0.836800     3 ; PROT alkane update, adm jr., 3/2/92 MEN
     NH1      CT1    CG321    CG2O2     9     0.000000     0.836800     3 ; from NG2S1 CG311 CG321 CG2O1, PENALTY= 2.5 ASB ASL PHD
     NH1      CT1    CG321    CG2O3     9     0.000000     0.836800     3 ; PROT alkane update, adm jr., 3/2/92 IAS
     NH1      CT1    CG321    CG2O4     9     0.000000     0.836800     3 ; from NG2S1 CG311 CG321 CG2O1, PENALTY= 3 AS2
     NH1      CT1    CG321    CG2O5     9     0.000000     0.836800     3 ; from NG2S1 CG311 CG321 CG2O1, PENALTY= 3 KYN
     NH1      CT1    CG321   CG2R51     9     0.000000     0.836800     3 ; PROT alkane update, adm jr., 3/2/92 TOX TTQ 0AF DDE HIX THA3
     NH1      CT1    CG321   CG2R61     9     0.000000     0.836800     3 ; PROT alkane update, adm jr., 3/2/92 F2F NIY IYR 0A1 2LT ALN
     NH1      CT1    CG321    CG301     9     0.000000     0.836800     3 ; from NG2S1 CG311 CG321 CG311, PENALTY= 1.2 ADAM
     NH1      CT1    CG321    CG311     9     0.000000     0.836800     3 ; PROT alkane update, adm jr., 3/2/92 GHG ARO CGU LED LEF SYM
     NH1      CT1    CG321    CG321     9     0.000000     0.836800     3 ; PROT alkane update, adm jr., 3/2/92 2MR HGA MCL 26P 6CL ALY
     NH1      CT1    CG321    CG324     9     0.000000     0.836800     3 ; G4P, 01OH02 GBUT DAB
     NH1      CT1    CG321    CG331     9     0.000000     0.836800     3 ; from NG2S1 CG311 CG321 CG321, PENALTY= 0.9 ABA DBB
     NH1      CT1    CG321   CG3C51     9     0.000000     0.836800     3 ; from NG2S1 CG311 CG321 CG321, PENALTY= 10 CPA3
     NH1      CT1    CG321     HGA2     9     0.000000     0.836800     3 ; PROT alkane update, adm jr., 3/2/92 2MR OAS F2F CSPP SGB TOX
     NH1      CT1    CG321    SG301     9     0.000000     0.836800     3 ; from NG2S1 CG311 CG321 SG311, PENALTY= 1 2CO CSO CSX
     NH1      CT1    CG321    SG311     9     0.000000     0.836800     3 ; PROT alkane update, adm jr., 3/2/92 OCY CML CCS 143 BCS SMC
     NH1      CT1    CG321    SG3O1     9   180.000000     3.974800     1 ; from NG2S1 CG321 CG321 SG3O1, PENALTY= 4 OCS
     NH1      CT1    CG321    SG3O1     9     0.000000     5.564720     2 ; from NG2S1 CG321 CG321 SG3O1, PENALTY= 4 OCS
     NH1      CT1    CG321    SG3O1     9   180.000000     0.334720     3 ; from NG2S1 CG321 CG321 SG3O1, PENALTY= 4 OCS
     NH1      CT1    CG321    SG3O2     9   180.000000     3.974800     1 ; from NG2S1 CG321 CG321 SG3O1, PENALTY= 9 CSD
     NH1      CT1    CG321    SG3O2     9     0.000000     5.564720     2 ; from NG2S1 CG321 CG321 SG3O1, PENALTY= 9 CSD
     NH1      CT1    CG321    SG3O2     9   180.000000     0.334720     3 ; from NG2S1 CG321 CG321 SG3O1, PENALTY= 9 CSD
     NH1      CT1    CG324     HGA2     9     0.000000     0.836800     3 ; G3P(R/S), Gamma-3-piperidine Glu Acid CDCA Amide, cacha DPP DNP GDPR
     NH1      CT1    CG324    NG3P3     9     0.000000     0.815880     3 ; from NG2S1 CG311 CG324 NG3P2, PENALTY= 0.9 DNP DPP
   OG311    CG301      CT1        C     9     0.000000     0.836800     3 ; from CG2O1 CG311 CG311 OG311, PENALTY= 8 HVA TS9
   OG311    CG311      CT1        C     9     0.000000     0.836800     3 ; PROT alkane update, adm jr., 3/2/92 CTH ALO BHD AHB HL2 HTR
   SG301    CG321      CT1        C     9     0.000000     0.836800     3 ; PROT alkane update, adm jr., 3/2/92 2CO CSX CSO PR3 R1A SCH
   SG311    CG311      CT1        C     9     0.000000     0.836800     3 ; from CG2O1 CG311 CG321 SG311, PENALTY= 4 0TD
   SG311    CG321      CT1        C     9     0.000000     0.836800     3 ; PROT alkane update, adm jr., 3/2/92 OCY CML CCS 143 BCS SMC
   NG2D1        C      CT1      CT3     9     0.000000    14.101754     1 ; from NG2D1 CG2O1 CG311 CG331, XYG
   NG2D1        C      CT1      CT3     9     0.000000     3.312891     2 ; from NG2D1 CG2O1 CG311 CG331, XYG
   NG2D1        C      CT1      HB1     9   180.000000    14.039412     1 ; from NG2D1 CG2O1 CG311 HGA1, XYG
   NG2D1        C      CT1      NH1     9   180.000000    21.755963     1 ; from NG2D1 CG2O1 CG311 NG2S1, XYG
   NG2D1        C      CT1      NH1     9   180.000000     9.223628     2 ; from NG2D1 CG2O1 CG311 NG2S1, XYG
   NG2S0        C      CT1      NH1     9     0.000000     1.673600     1 ; from NG2S0 C CT1 NH3 ! PROT AcProNH2, ProNH2, AcProNHCH3 RLD 4/23/93
   NG2S1        C      CT1      NH1     9     0.000000     2.510400     1 ; from NG2S1 C CT1 NH3 ! PROT ala dipeptide, new C VDW Rmin, adm jr.,
     NH1        C      CT1    CG2D1     9     0.000000     0.000000     1 ; from NH1 C CT1 CT2, LVG
     NH1        C      CT1   CG2R51     9     0.000000     2.510400     1 ; THG2, by ac_aa
     NH1        C      CT1   CG2R61     9     0.000000     0.000000     1 ; from NH1 C CT1 CT2, 004
     NH1        C      CT1   CG2R61     9   180.000000     3.168543     2 ; 004, by ac_aa
     NH1        C      CT1   CG2R61     9     0.000000    12.935673     3 ; 004, by ac_aa
       O        C      CT1    CG2D1     9     0.000000     5.857600     1 ; from O C CT1 CT2, LVG
       O        C      CT1   CG2R51     9     0.000000     0.000000     1 ; THG2, by ac_aa
       O        C      CT1   CG2R61     9     0.000000     5.857600     1 ; from O C CT1 CT2, 004
     CT1        C    NG2D1   CG2DC1     9   180.000000     4.847582     1 ; from CG2DC1 NG2D1 CG2O1 CG331, XYG
     CT1        C    NG2D1   CG2DC1     9     0.000000     6.292318     2 ; from CG2DC1 NG2D1 CG2O1 CG331, XYG
       O        C    NG2D1   CG2DC1     9   180.000000     0.094977     2 ; from CG2DC1 NG2D1 CG2O1 OG2D1, XYG
     CT1        C    NG2S1   CG2D1O     9     0.000000     6.586034     1 ; from CG2D1O NG2S1 CG2O1 CG331
     CT1        C    NG2S1   CG2D1O     9   180.000000     0.217568     2 ; from CG2D1O NG2S1 CG2O1 CG331
       O        C    NG2S1   CG2D1O     9   180.000000     8.982211     2 ; from CG2D1O NG2S1 CG2O1 OG2D1
   CG2D2    CG2D1      CT1        C     9   180.000000     2.507890     1 ; LVG, by ac_aa
   CG2D2    CG2D1      CT1        C     9   180.000000     0.015481     2 ; LVG, by ac_aa
   CG2D2    CG2D1      CT1        C     9   180.000000     4.371025     3 ; LVG, by ac_aa
   CG2D2    CG2D1      CT1      NH1     9   180.000000     0.009623     1 ; LVG, by ac_aa
   CG2D2    CG2D1      CT1      NH1     9   180.000000     0.171962     2 ; LVG, by ac_aa
   CG2D2    CG2D1      CT1      NH1     9   180.000000     0.327189     3 ; LVG, by ac_aa
    HGA4    CG2D1      CT1        C     9     0.000000     0.020920     3 ; LVG, by ac_aa
    HGA4    CG2D1      CT1      NH1     9     0.000000     0.231375     3 ; LVG, by ac_aa
  CG2DC1   CG2D1O    NG2S1        C     9   180.000000    17.502927     1 ; from CG2DC1 CG2D1O NG2S1 CG2O1
  CG2DC1   CG2D1O    NG2S1        C     9   180.000000     9.839931     2 ; from CG2DC1 CG2D1O NG2S1 CG2O1
   CG2O1   CG2D1O    NG2S1        C     9   180.000000    17.502927     1 ; from CG2DC1 CG2D1O NG2S1 CG2O1
   CG2O1   CG2D1O    NG2S1        C     9   180.000000     9.839931     2 ; from CG2DC1 CG2D1O NG2S1 CG2O1
   CG2O5   CG2DC1    CG321      CT1     9     0.000000     3.810787     1 ; from CG2O5 CG2DC1 CG321 CG331, TPQP
   CG2O5   CG2DC1    CG321      CT1     9     0.000000     2.798678     2 ; from CG2O5 CG2DC1 CG321 CG331, TPQP
   CG2O5   CG2DC1    CG321      CT1     9     0.000000     7.303172     3 ; from CG2O5 CG2DC1 CG321 CG331, TPQP
     NH1    CG2O1   CG2D1O   CG2DC1     9   180.000000     0.095814     1 ; from NG2S1 CG2O1 CG2D1O CG2DC1
     NH1    CG2O1   CG2D1O   CG2DC1     9   180.000000     7.011966     2 ; from NG2S1 CG2O1 CG2D1O CG2DC1
     NH1    CG2O1   CG2D1O   CG2DC1     9     0.000000     0.423421     3 ; from NG2S1 CG2O1 CG2D1O CG2DC1
     NH1    CG2O1   CG2D1O   CG2DC1     9     0.000000     0.498314     4 ; from NG2S1 CG2O1 CG2D1O CG2DC1
     NH1    CG2O1   CG2D1O    NG2S1     9   180.000000     2.171914     2 ; from NG2S1 CG2O1 CG2D1O NG2S1
     NH1    CG2O1   CG2D1O    NG2S1     9   180.000000     1.503730     3 ; from NG2S1 CG2O1 CG2D1O NG2S1
     NH1    CG2O1   CG2D1O    NG2S1     9     0.000000     1.958112     6 ; from NG2S1 CG2O1 CG2D1O NG2S1
     NH1    CG2O1    CG311    CG2O3     9     0.000000     0.001674     1 ; from NG2S1 CG2O1 CG311 CG2O3, FGL
     NH1    CG2O1    CG311    CG2O3     9     0.000000     7.399404     2 ; from NG2S1 CG2O1 CG311 CG2O3, FGL
     NH1    CG2O1    CG311    CG2O3     9     0.000000     4.318725     3 ; from NG2S1 CG2O1 CG311 CG2O3, FGL
     NH1    CG2O1   CG3C50    OG311     9     0.000000    10.054152     1 ; PXU, by ac_aa
     NH1    CG2O1   CG3C50    OG311     9   180.000000    15.208840     2 ; PXU, by ac_aa
     NH1    CG2O1   CG3C51   CG2R51     9     0.000000     0.041840     2 ; 8LJ, by ac_aa
     NH1    CG2O1   CG3C51   NG3C51     9   180.000000     2.479020     1 ; from NG2S1 CG2O1 CG3C51 NG3C51, PR4
     NH1    CG2O1   CG3C51   NG3C51     9   180.000000    12.047410     2 ; from NG2S1 CG2O1 CG3C51 NG3C51, PR4
     NH1    CG2O1   CG3C51   NG3C51     9   180.000000     1.751004     3 ; from NG2S1 CG2O1 CG3C51 NG3C51, PR4
  SG2R50   CG2R51   CG2R51      CT1     9   180.000000    28.249113     2 ; from SG2R50 CG2R51 CG2R51 CG331, THG3
  OG2R50   CG2R51    CG321      CT1     9     0.000000     0.906254     3 ; from OG2R50 CG2R51 CG321 CG331, FUA2
  SG2R50   CG2R51    CG321      CT1     9     0.000000     0.738894     1 ; from SG2R50 CG2R51 CG321 CG331, TIH
  SG2R50   CG2R51    CG321      CT1     9     0.000000     0.281165     3 ; from SG2R50 CG2R51 CG321 CG331, TIH
  CG2R51   CG2R51      CT1        C     9     0.000000    11.842394     1 ; THG2, by ac_aa
  CG2R51   CG2R51      CT1        C     9   180.000000     3.907019     2 ; THG2, by ac_aa
  CG2R51   CG2R51      CT1      NH1     9     0.000000     3.643427     1 ; THG2, by ac_aa
  CG2R51   CG2R51      CT1      NH1     9   180.000000     0.566932     2 ; THG2, by ac_aa
  SG2R50   CG2R51      CT1        C     9   180.000000     4.304499     2 ; THG2, by ac_aa
  SG2R50   CG2R51      CT1      HB1     9   180.000000     4.424998     3 ; THG2, by ac_aa
  SG2R50   CG2R51      CT1      NH1     9     0.000000     4.080237     3 ; THG2, by ac_aa
     CT1   CG2R51   SG2R50   CG2R51     9   180.000000    10.634891     2 ; from CG2R51 SG2R50 CG2R51 CG331, TIH
  CG2R61   CG2R61      CT1        C     9   180.000000     2.305384     2 ; 004, by ac_aa
  CG2R66   CG2R61      CT1        C     9   180.000000     2.484459     2 ; from CG2R61 CG2R61 CG311 CG2O3, PENALTY= 15, FPG2
   CG2O3    CG301      CT1        C     9     0.000000     0.836800     3 ; from CG2O1 CG311 CG321 CG2O3, DMK
   SG311    CG301      CT1        C     9     0.000000     0.227191     1 ; LE1, by ac_aa
   SG311    CG301      CT1        C     9   180.000000     3.253897     2 ; LE1, by ac_aa
   SG311    CG301      CT1        C     9   180.000000     4.809926     3 ; LE1, by ac_aa
   SG311    CG301      CT1      HB1     9   180.000000     0.257734     3 ; LE1, by ac_aa
   SG311    CG301      CT1      NH1     9     0.000000     9.338270     1 ; LE1, by ac_aa
   SG311    CG301      CT1      NH1     9     0.000000     1.473605     2 ; LE1, by ac_aa
   SG311    CG301      CT1      NH1     9     0.000000     8.497704     3 ; LE1, by ac_aa
   CG322    CG311    CG321      CT1     9     0.000000     3.853464     1 ; LEF, by ac_aa
   CG322    CG311    CG321      CT1     9     0.000000     0.262337     2 ; LEF, by ac_aa
   OG301    CG311      CT1        C     9     0.000000     0.836800     3 ; from CG2O1 CG311 CG311 OG311, OLT
   OG303    CG311      CT1        C     9   180.000000     3.305360     1 ; from C CT1 CT1 OH1, ALS
   OG303    CG311      CT1        C     9   180.000000     1.631760     2 ; from C CT1 CT1 OH1, ALS
   OG303    CG311      CT1        C     9   180.000000     4.142160     3 ; from C CT1 CT1 OH1, ALS
  CG2R53    CG311    NG2S1        C     9     0.000000     1.962714     1 ; FROM CG2R53 CG311 NG2S1 CG2O1, B2H
  CG2R53    CG311    NG2S1        C     9     0.000000     0.057739     2 ; FROM CG2R53 CG311 NG2S1 CG2O1, B2H
  CG2R53    CG311    NG2S1        C     9   180.000000     0.006276     3 ; FROM CG2R53 CG311 NG2S1 CG2O1, B2H
  CG2R53    CG311    NG2S1        C     9     0.000000     0.029288     4 ; FROM CG2R53 CG311 NG2S1 CG2O1, B2H
  CG2R53    CG311    NG2S1        C     9     0.000000     1.196624     6 ; FROM CG2R53 CG311 NG2S1 CG2O1, B2H
     CT1    CG321   CG2DC1     HGA4     9     0.000000     0.502080     3 ; from HGA4 CG2D1 CG321 CG331, STYA
  NG2R51    CG321    CG2O1      NH1     9     0.000000     2.449314     1 ; from NG2R51 CG321 CG2O1 NG2S1, XYG
   SG3O3    CG321    CG301      CT1     9   180.000000     3.924592     1 ; from SG3O3 CG321 CG301 CG331, M2S
   SG3O3    CG321    CG301      CT1     9     0.000000     1.606238     2 ; from SG3O3 CG321 CG301 CG331, M2S
   SG3O3    CG321    CG301      CT1     9     0.000000     0.749354     3 ; from SG3O3 CG321 CG301 CG331, M2S
   CLGA1    CG321    CG311      CT1     9     0.000000     5.975170     3 ; from CLGA1 CG321 CG311 CG331, CTH
     CT1    CG321    CG311    CG302     9     0.000000     0.836800     3 ; from CG321 CG311 CG321 CG311, PENALTY= 12 TFLE
     CT1    CG321    CG312     FGA2     9   180.000000     3.196576     1 ; from FGA2 CG312 CG321 CG331, OBF
     CT1    CG321    CG312     FGA2     9     0.000000     1.356871     3 ; from FGA2 CG312 CG321 CG331, OBF
     CT1    CG321    CG312     HGA7     9     0.000000     0.753120     3 ; from HGA7 CG312 CG321 CG331, OBF
   NG1T1    CG321    CG321      CT1     9   180.000000     3.098670     1 ; from NG1T1 CG321 CG321 CG331, AZH
   NG1T1    CG321    CG321      CT1     9     0.000000     2.697425     3 ; from NG1T1 CG321 CG321 CG331, AZH
     CT1    CG321    CG322    CG2O3     9     0.000000     3.980658     3 ; from CG331 CG321 CG322 CG2O3, FGA4
     CT1    CG321    CG322     FGA1     9   180.000000     1.442643     3 ; from CG331 CG321 CG322 FGA1, FGA4
     CT1    CG321    CG322     HGA6     9   180.000000     0.076567     3 ; from CG331 CG321 CG322 HGA6, FGA4
   CG2D1    CG321      CT1      NH1     9     0.000000     0.400409     3 ; 2AG, by ac_aa
  CG2DC1    CG321      CT1        C     9   180.000000     5.355520     1 ; from C CT1 CT2 CA, TPQP
  CG2DC1    CG321      CT1        C     9   180.000000     3.932960     2 ; from C CT1 CT2 CA, TPQP
  CG2DC1    CG321      CT1        C     9   180.000000     6.568880     3 ; from C CT1 CT2 CA, TPQP
   CG312    CG321      CT1        C     9   180.000000     2.348898     1 ; OBF, by ac_aa
   CG312    CG321      CT1        C     9   180.000000     4.127934     2 ; OBF, by ac_aa
   CG312    CG321      CT1        C     9   180.000000     0.673206     3 ; OBF, by ac_aa
   CG312    CG321      CT1      HB1     9     0.000000     0.820482     3 ; OBF, by ac_aa
   CG312    CG321      CT1      NH1     9     0.000000     7.652118     1 ; OBF, by ac_aa
   CG312    CG321      CT1      NH1     9     0.000000     2.702027     2 ; OBF, by ac_aa
   CG312    CG321      CT1      NH1     9   180.000000     0.116734     3 ; OBF, by ac_aa
   CG322    CG321      CT1        C     9     0.000000     0.836800     3 ; from CG2O1 CG311 CG321 CG321, FGA4
   CG322    CG321      CT1      HB1     9     0.000000     0.815880     3 ; from HGA1 CG311 CG321 CG321, FGA4
   CG322    CG321      CT1      NH1     9     0.000000     0.836800     3 ; from NG2S1 CG311 CG321 CG321, FGA4
   NG1T1    CG321      CT1        C     9   180.000000     1.820040     1 ; AZDA, by ac_aa
   NG1T1    CG321      CT1        C     9   180.000000     1.300806     2 ; AZDA, by ac_aa
   NG1T1    CG321      CT1        C     9   180.000000     0.799981     3 ; AZDA, by ac_aa
   NG1T1    CG321      CT1      HB1     9     0.000000     5.310333     1 ; AZDA, by ac_aa
   NG1T1    CG321      CT1      HB1     9   180.000000    10.043274     2 ; AZDA, by ac_aa
   NG1T1    CG321      CT1      HB1     9     0.000000     1.561887     3 ; AZDA, by ac_aa
   NG1T1    CG321      CT1      NH1     9   180.000000     7.044601     1 ; AZDA, by ac_aa
   NG1T1    CG321      CT1      NH1     9   180.000000    11.852435     2 ; AZDA, by ac_aa
   NG1T1    CG321      CT1      NH1     9   180.000000     0.013389     3 ; AZDA, by ac_aa
  NG2R51    CG321      CT1        C     9     0.000000     9.386386     1 ; TEZA, by ac_aa
  NG2R51    CG321      CT1        C     9     0.000000     5.843374     2 ; TEZA, by ac_aa
  NG2R51    CG321      CT1        C     9     0.000000     4.808671     3 ; TEZA, by ac_aa
  NG2R51    CG321      CT1      HB1     9     0.000000     1.658538     2 ; TEZA, by ac_aa
  NG2R51    CG321      CT1      HB1     9   180.000000     9.331575     3 ; TEZA, by ac_aa
  NG2R51    CG321      CT1      NH1     9     0.000000     0.411706     2 ; TEZA, by ac_aa
  NG2R51    CG321      CT1      NH1     9     0.000000     4.441316     3 ; TEZA, by ac_aa
   NG2S1    CG321      CT1      NH1     9   180.000000     0.572371     1 ; DBZ, by ac_aa
   NG2S1    CG321      CT1      NH1     9     0.000000     1.333022     2 ; DBZ, by ac_aa
   NG2S1    CG321      CT1      NH1     9     0.000000     1.673182     3 ; DBZ, by ac_aa
   OG302    CG321      CT1        C     9   180.000000     5.781033     2 ; OAS, by ac_aa
   OG302    CG321      CT1        C     9     0.000000     0.158155     3 ; OAS, by ac_aa
   OG302    CG321      CT1      NH1     9     0.000000     6.215750     1 ; OAS, by ac_aa
   OG302    CG321      CT1      NH1     9   180.000000     0.012552     2 ; OAS, by ac_aa
   OG302    CG321      CT1      NH1     9     0.000000     1.651843     3 ; OAS, by ac_aa
   OG302    CG321      CT1      NH1     9   180.000000     0.060668     4 ; OAS, by ac_aa
   OG303    CG321      CT1        C     9     0.000000     0.836800     3 ; from CG2O1 CG311 CG321 OG311, SEN
   OG303    CG321      CT1      NH1     9     0.000000     0.836800     3 ; from NG2S1 CG311 CG321 OG311, SEN
   SG3O1    CG321      CT1        C     9     0.000000     3.029216     3 ; OCS, by ac_aa
   CG2D1    CG321      CT1        C     9   180.000000     0.871109     1 ; 2AG, by ac_aa
     CT1    CG321    SG301    OG301     9   180.000000     4.132537     1 ; from CG331 CG321 SG301 OG301, 2CO
     CT1    CG321    SG301    OG301     9     0.000000     0.279073     2 ; from CG331 CG321 SG301 OG301, 2CO
     CT1    CG321    SG301    OG301     9     0.000000     1.037214     3 ; from CG331 CG321 SG301 OG301, 2CO
     CT1    CG321    SG301    OG311     9   180.000000     3.047626     1 ; from OG311 SG301 CG321 CG331, CSO
     CT1    CG321    SG301    OG311     9     0.000000     1.372352     3 ; from OG311 SG301 CG321 CG331, CSO
     CT1    CG321    SG301    OG312     9   180.000000     6.059687     1 ; from CG331 CG321 SG301 OG312, CSX
     CT1    CG321    SG301    OG312     9     0.000000     2.558934     2 ; from CG331 CG321 SG301 OG312, CSX
     CT1    CG321    SG301    OG312     9     0.000000     5.165148     3 ; from CG331 CG321 SG301 OG312, CSX
     CT1    CG321    SG301    SG3O1     9   180.000000     3.381090     1 ; from SG3O1 SG301 CG321 CG331, CSU
     CT1    CG321    SG301    SG3O1     9     0.000000     2.079448     2 ; from SG3O1 SG301 CG321 CG331, CSU
     CT1    CG321    SG311    CG1N1     9   180.000000     2.197437     1 ; from CG1N1 SG311 CG321 CG331, XCN
     CT1    CG321    SG311    CG1N1     9   180.000000     0.041422     3 ; from CG1N1 SG311 CG321 CG331, XCN
     CT1    CG321    SG311    CG2O2     9   180.000000     0.867762     1 ; from CG331 CG321 SG311 CG2O2, CYG
     CT1    CG321    SG311    CG2O2     9     0.000000     2.129238     2 ; from CG331 CG321 SG311 CG2O2, CYG
     CT1    CG321    SG311    CG2O6     9   180.000000     0.494967     1 ; from CG331 CG321 SG311 CG2O6, QCS
     CT1    CG321    SG311    CG2O6     9     0.000000     3.219170     2 ; from CG331 CG321 SG311 CG2O6, QCS
     CT1    CG321    SG311    CG2O6     9   180.000000     3.876476     3 ; from CG331 CG321 SG311 CG2O6, QCS
     CT1    CG321    SG311    CG314     9   180.000000     1.004160     1 ; from CG321 CG321 SG311 CG321, AGT
     CT1    CG321    SG311    CG314     9     0.000000     1.548080     3 ; from CG321 CG321 SG311 CG321, AGT
     CT1    CG321    SG311    NG2D1     9   180.000000     0.210037     1 ; from NG2D1 SG311 CG321 CG331, SNC
     CT1    CG321    SG311    NG2D1     9     0.000000     2.845538     2 ; from NG2D1 SG311 CG321 CG331, SNC
     CT1    CG322    CG331     HGA3     9     0.000000     0.774040     3 ; from FGA1 CG322 CG331 HGA3, FVAL
   CG331    CG322      CT1        C     9     0.000000     0.836800     3 ; from CG2O1 CG311 CG321 CG321, FVAL
    FGA1    CG322      CT1        C     9   180.000000    10.104360     1 ; FVAL, by ac_aa
    FGA1    CG322      CT1        C     9     0.000000     2.459774     2 ; FVAL, by ac_aa
    FGA1    CG322      CT1        C     9     0.000000     0.374468     3 ; FVAL, by ac_aa
    FGA1    CG322      CT1      NH1     9   180.000000    12.269580     1 ; FVAL, by ac_aa
    FGA1    CG322      CT1      NH1     9   180.000000     0.380744     2 ; FVAL, by ac_aa
    FGA1    CG322      CT1      NH1     9   180.000000     4.448847     3 ; FVAL, by ac_aa
   NG2P1    CG324      CT1        C     9   180.000000     2.183211     3 ; GDPR, by ac_aa
   NG2P1    CG324      CT1      NH1     9     0.000000    16.772401     1 ; GDPR, by ac_aa
   NG2P1    CG324      CT1      NH1     9   180.000000     0.751446     3 ; GDPR, by ac_aa
   OG311   CG3C50    NG2S0        C     9     0.000000     0.234722     3 ; PXU, by ac_aa
     CT1   CG3C51   CG3C52   CG2RC0     9     0.000000     1.764393     3 ; from CG331 CG3C51 CG3C52 CG2RC0, IGL
     CT1   CG3C51   CG3C52   CG2RC0     9   180.000000     2.474836     4 ; from CG331 CG3C51 CG3C52 CG2RC0, IGL
     CT1   CG3C51   CG3C52   CG2RC0     9   180.000000     0.962738     6 ; from CG331 CG3C51 CG3C52 CG2RC0, IGL
  CG3C52   CG3C51      CT1        C     9   180.000000     1.935518     4 ; IGL, by ac_aa
  CG3C52   CG3C51      CT1      NH1     9   180.000000     2.572742     4 ; IGL, by ac_aa
    HGA1   CG3C51      CT1        C     9     0.000000     1.730502     3 ; IGL, by ac_aa
    HGA1   CG3C51      CT1      NH1     9   180.000000     1.251434     3 ; IGL, by ac_aa
  CG2R51   CG3C51    NG2S0        C     9     0.000000     0.021757     3 ; 8LJ, by ac_aa
  CG2R51   CG3C52    NG2S0        C     9     0.000000     0.031798     3 ; 8LJ, by ac_aa
   SG311   CG3C52    NG2S0        C     9   180.000000     0.047279     3 ; PRS, by ac_aa
   CG322      CT1        C      NH1     9     0.000000     0.000000     1 ; from NG2S1 CG2O1 CG311 CG321, FVAL
   CG322      CT1        C        O     9     0.000000     5.857600     1 ; from OG2D1 CG2O1 CG311 CG321, FVAL
     NH1      CT1    CG301    CG2O3     9     0.000000     0.836800     3 ; from NG2S1 CG311 CG321 CG2O3, DMK
     NH1      CT1    CG311    OG301     9     0.000000     0.836800     3 ; from NG2S1 CG311 CG311 OG311, OLT
     NH1      CT1    CG311    OG303     9     0.000000     0.376560     1 ; from NH1 CT1 CT1 OH1, ALS
     NH1      CT1    CG311    OG303     9   180.000000     0.794960     2 ; from NH1 CT1 CT1 OH1, ALS
     NH1      CT1    CG311    OG303     9     0.000000     0.711280     3 ; from NH1 CT1 CT1 OH1, ALS
     NH1      CT1    CG321   CG2DC1     9   180.000000     2.175680     1 ; from CA CT2 CT1 NH1, TPQP
     NH1      CT1    CG321   CG2DC1     9   180.000000     2.594080     2 ; from CA CT2 CT1 NH1, TPQP
     NH1      CT1    CG321   CG2DC1     9     0.000000     6.610720     3 ; from CA CT2 CT1 NH1, TPQP
     HB1      CT1    CG322    CG331     9     0.000000     0.836800     3 ; from HGA1 CG311 CG321 CG331, FVAL
     HB1      CT1    CG322     FGA1     9     0.000000     0.774040     3 ; from FGA1 CG322 CG331 HGA3, PENALTY= 11, FVAL
     NH1      CT1    CG322    CG331     9     0.000000     0.836800     3 ; from NG2S1 CG311 CG321 CG321, FVAL
       C      CT1      NH1    CG2O1     9   180.000000     0.836800     1 ; from CC CT1 NH1 CG2O1 PROT ala dipeptide, new C VDW Rmin, adm jr., 3/3/93c
   CG2D1      CT1      NH1        C     9     0.000000     7.531200     1 ; from CT2 CT1 NH1 C, LVG
   CG2D1      CT1      NH1        H     9     0.000000     0.000000     1 ; from H NH1 CT1 CT2, LVG
  CG2R51      CT1      NH1        C     9     0.000000     0.062760     1 ; THG2, by ac_aa
  CG2R51      CT1      NH1        C     9     0.000000     1.246832     2 ; THG2, by ac_aa
  CG2R51      CT1      NH1        C     9   180.000000     0.317984     3 ; THG2, by ac_aa
  CG2R51      CT1      NH1        C     9     0.000000     2.589896     4 ; THG2, by ac_aa
  CG2R51      CT1      NH1        C     9     0.000000     0.619232     6 ; THG2, by ac_aa
       C    NG2D1   CG2DC1   CG2R53     9     0.000000    24.888942     1 ; from CG331 CG2DC1 NG2D1 CG2O1, XYG
       C    NG2D1   CG2DC1   CG2R53     9   180.000000    27.708122     2 ; from CG331 CG2DC1 NG2D1 CG2O1, XYG
       C    NG2D1   CG2DC1    CG321     9     0.000000    24.888942     1 ; from CG331 CG2DC1 NG2D1 CG2O1, CRQ
       C    NG2D1   CG2DC1    CG321     9   180.000000    27.708122     2 ; from CG331 CG2DC1 NG2D1 CG2O1, CRQ
       C    NG2D1   CG2DC1    CG331     9     0.000000    24.888942     1 ; from CG331 CG2DC1 NG2D1 CG2O1, XYG
       C    NG2D1   CG2DC1    CG331     9   180.000000    27.708122     2 ; from CG331 CG2DC1 NG2D1 CG2O1, XYG
       C    NG2S1   CG3C51   CG2R53     9     0.000000     3.491966     3 ; from CG2R53 CG3C51 NG2S1 CG2O1, SUI
       C    NG2S1   CG3C51   CG3C52     9     0.000000     6.837493     3 ; from CG3C52 CG3C51 NG2S1 CG2O1, SUI
       C    NG2S1   CG3C51     HGA1     9   180.000000     8.529921     3 ; from HGA1 CG3C51 NG2S1 CG2O1, SUI
     CT1      NH1    CG2O1    SG2D1     9     0.000000     6.552981     1 ; GL3, by ac_aa
     CT1      NH1    CG2O1    SG2D1     9   180.000000    12.952827     2 ; GL3, by ac_aa
       H      NH1    CG2O1    SG2D1     9   180.000000     4.939212     2 ; GL3, by ac_aa
       C      NH1      CT1    CG322     9     0.000000     7.531200     1 ; from CG321 CG311 NG2S1 CG2O1, PENALTY= 12, FVAL
       H      NH1      CT1   CG2R51     9     0.000000     0.000000     1 ; from H NH1 CT1 C, THG2
       H      NH1      CT1    CG322     9     0.000000     0.000000     1 ; from CG321 CG311 NG2S1 HGP1, PENALTY= 12, FVAL
     PG2    SG2P1    CG321      CT1     9   180.000000     1.405824     1 ; from PG2 SG2P1 CG321 CG331, CSP
     PG2    SG2P1    CG321      CT1     9     0.000000     2.190324     2 ; from PG2 SG2P1 CG321 CG331, CSP
     PG2    SG2P1    CG321      CT1     9   180.000000     0.644336     3 ; from PG2 SG2P1 CG321 CG331, CSP
    HGP3    SG311    CG301      CT1     9     0.000000    50.454438     1 ; from HGP3 SG311 CG301 CG331, LE1
    HGP3    SG311    CG301      CT1     9     0.000000     8.644562     2 ; from HGP3 SG311 CG301 CG331, LE1
    HGP3    SG311    CG301      CT1     9     0.000000     0.946421     3 ; from HGP3 SG311 CG301 CG331, LE1
  CG3C51    SG311    CG321      CT1     9   180.000000     0.769856     1 ; from CG3C51 SG311 CG321 CG331, 143
  CG3C51    SG311    CG321      CT1     9     0.000000     1.058552     2 ; from CG3C51 SG311 CG321 CG331, 143
  CG3C51    SG311    CG321      CT1     9     0.000000     0.627600     3 ; from CG3C51 SG311 CG321 CG331, 143
  CG2DC1    CG321     CTD1        C     9   180.000000     3.932960     2 ; from C CTD1CT2 CA, TPQP
  CG2DC1    CG321     CTD1        C     9   180.000000     5.355520     1 ; from C CTD1CT2 CA, TPQP
  CG2DC1    CG321     CTD1        C     9   180.000000     6.568880     3 ; from C CTD1CT2 CA, TPQP
  CG2R51   CG2R51     CTD1        C     9   180.000000     3.907019     2 ; THG2, by ac_aa
  CG2R51   CG2R51     CTD1        C     9     0.000000    11.842394     1 ; THG2, by ac_aa
  CG2R51   CG2R51     CTD1      NH1     9   180.000000     0.566932     2 ; THG2, by ac_aa
  CG2R51   CG2R51     CTD1      NH1     9     0.000000     3.643427     1 ; THG2, by ac_aa
  CG2R51    CG321     CTD1        C     9     0.000000     0.836800     3 ; PROT alkane update, adm jr., 3/2/92 TOX TTQ 0AF DDE HIX THA3
  CG2R51     CTD1      NH1        C     9     0.000000     0.062760     1 ; THG2, by ac_aa
  CG2R51     CTD1      NH1        C     9   180.000000     0.317984     3 ; THG2, by ac_aa
  CG2R51     CTD1      NH1        C     9     0.000000     0.619232     6 ; THG2, by ac_aa
  CG2R51     CTD1      NH1        C     9     0.000000     1.246832     2 ; THG2, by ac_aa
  CG2R51     CTD1      NH1        C     9     0.000000     2.589896     4 ; THG2, by ac_aa
  CG2R61   CG2R61     CTD1        C     9   180.000000     2.305384     2 ; 004, by ac_aa
  CG2R61    CG311     CTD1        C     9     0.000000     0.167360     3 ; from CG2O1 CG311 CG321 CG2R61, PENALTY= 4 2GX BB8 DIPH
  CG2R61    CG321     CTD1        C     9     0.000000     0.167360     3 ; PROT 2.7 kcal/mole CH3 rot in ethylbenzene, adm jr, 3/7/92 F2F NIY
  CG2R66   CG2R61     CTD1        C     9   180.000000     2.484459     2 ; from CG2R61 CG2R61 CG311 CG2O3, PENALTY= 15, FPG2
   CG302   CG2R61   CG2R61     CTD1     9   180.000000     8.269258     2 ; from CG302 CG2R61 CG2R61 CG331, TFG2
   CG311    CG311     CTD1        C     9     0.000000     0.836800     3 ; from CG2O1 CG311 CG311 CG321, PENALTY= 0.6 HIL4 HL2 HLU
   CG311    CG321     CTD1        C     9     0.000000     0.836800     3 ; PROT alkane update, adm jr., 3/2/92 GHG ARO CGU LED LEF SYM
   CG311     CTD1        C      NH1     9     0.000000     0.000000     1 ; PROT ala dipeptide, new C VDW Rmin, 4/10/93 (LK) BIU CTH OLT
   CG311     CTD1        C        O     9     0.000000     5.857600     1 ; PROT ala dipeptide, new C VDW Rmin, adm jr., 3/3/93c BIU CTH
   CG321    CG311     CTD1        C     9     0.000000     0.836800     3 ; PROT alkane update, adm jr., 3/2/92 BIU CTH DILE CHG LME LMQ
   CG321    CG321     CTD1        C     9     0.000000     0.836800     3 ; PROT alkane update, adm jr., 3/2/92 2MR HGA MCL 26P 6CL ALY
   CG321     CTD1        C      NH1     9     0.000000     0.000000     1 ; PROT ala dipeptide, new C VDW Rmin, 4/10/93 (LK) 2MR F2F OAS
   CG321     CTD1        C        O     9     0.000000     5.857600     1 ; PROT ala dipeptide, new C VDW Rmin, adm jr., 2MR 3/3/93c OAS
   CG322    CG321     CTD1        C     9     0.000000     0.836800     3 ; from CG2O1 CG311 CG321 CG321, FGA4
   CG322    CG321     CTD1      HB1     9     0.000000     0.815880     3 ; from HGA1 CG311 CG321 CG321, FGA4
   CG322    CG321     CTD1      NH1     9     0.000000     0.836800     3 ; from NG2S1 CG311 CG321 CG321, FGA4
   CG322     CTD1        C      NH1     9     0.000000     0.000000     1 ; from NG2S1 CG2O1 CG311 CG321, FVAL
   CG322     CTD1        C        O     9     0.000000     5.857600     1 ; from OG2D1 CG2O1 CG311 CG321, FVAL
   CG324    CG321     CTD1        C     9     0.000000     0.815880     3 ; from CG2O1 CG321 CG321 CG314, PENALTY= 4.6 DAB GBUT
   CG324     CTD1        C      NH1     9   180.000000     0.209200     6 ; from NG2S2 CG2O1 CG321 CG314, PENALTY= 5.6 DNP DPP GDPR
   CG324     CTD1        C        O     9   180.000000     0.209200     6 ; from OG2D1 CG2O1 CG321 CG314, PENALTY= 4.6 DNP DPP GDPR
   CG331    CG311     CTD1        C     9     0.000000     0.836800     3 ; PROT alkane update, adm jr., 3/2/92 BIU OLT HIL4 2AS ALO LMQ
   CG331    CG322     CTD1        C     9     0.000000     0.836800     3 ; from CG2O1 CG311 CG321 CG321, FVAL
  CG3C51    CG321     CTD1        C     9     0.000000     0.836800     3 ; from CG2O1 CG311 CG321 CG321, PENALTY= 10 CPA3
   CLGR1   CG2R61   CG2R61     CTD1     9   180.000000    14.936880     2 ; from CLGR1 CG2R61 CG2R61 CG331, CPG2
       C      NH1     CTD1   CG2R61     9     0.000000     0.062760     1 ; from CG2R61 CG321 NG2S1 CG2O1, PENALTY= 4 3FG D4P FPG4
       C      NH1     CTD1   CG2R61     9   180.000000     0.317984     3 ; from CG2R61 CG321 NG2S1 CG2O1, PENALTY= 4 3FG D4P FPG4
       C      NH1     CTD1   CG2R61     9     0.000000     0.619232     6 ; from CG2R61 CG321 NG2S1 CG2O1, PENALTY= 4 3FG D4P FPG4
       C      NH1     CTD1   CG2R61     9     0.000000     1.246832     2 ; from CG2R61 CG321 NG2S1 CG2O1, PENALTY= 4 3FG D4P FPG4
       C      NH1     CTD1    CG311     9     0.000000     7.531200     1 ; PROT ala dipeptide, new C VDW Rmin, adm jr., 3/3/93c BIU CTH
       C      NH1     CTD1    CG321     9     0.000000     7.531200     1 ; PROT ala dipeptide, new C VDW Rmin, adm jr., 2MR 3/3/93c OAS
       C      NH1     CTD1    CG322     9     0.000000     7.531200     1 ; from CG321 CG311 NG2S1 CG2O1, PENALTY= 12, FVAL
       C      NH1     CTD1    CG324     9     0.000000     7.531200     1 ; G3P(R/S), Gamma-3-piperidine Glu Acid CDCA Amide, cacha DPP DNP GDPR
    CTD1   CG2R51   CG2R51   CG2R51     9   180.000000    17.991200     2 ; from CG2R51 CG2R51 CG2R51 CG321, PENALTY= 0.6 THG2 THG3
    CTD1   CG2R51   CG2R51    HGR51     9   180.000000     4.184000     2 ; from CG321 CG2R51 CG2R51 HGR51, PENALTY= 0.6 THG2 THG3
    CTD1   CG2R51   CG2R51    HGR52     9   180.000000     4.184000     2 ; from CG321 CG2R51 CG2R51 HGR52, PENALTY= 0.6 THG3
    CTD1   CG2R51   SG2R50   CG2R51     9   180.000000    10.634891     2 ; from CG2R51 SG2R50 CG2R51 CG331, TIH
    CTD1   CG2R61   CG2R61   CG2R61     9   180.000000    12.970400     2 ; NAMODEL difluorotoluene 3FG FPG4 D4P PRV CHP 004 FPG2 CPG2 FPG3 TFG3
    CTD1   CG2R61   CG2R61   CG2R66     9   180.000000    12.970400     2 ; from CG2R61 CG2R61 CG2R61 CG311, PENALTY= 1.5 FPG3
    CTD1   CG2R61   CG2R61    HGR61     9   180.000000    10.041600     2 ; NAMODEL difluorotoluene Kenno: 4.2 -> 2.4 3FG FPG4 D4P 004 CHP PRV
    CTD1   CG2R61   CG2R61    HGR62     9   180.000000    10.041600     2 ; from CG321 CG2R61 CG2R61 HGR62, PENALTY= 0.6 CHP CPG3 FPG3
    CTD1   CG2R61   CG2R66   CG2R61     9   180.000000    12.970400     2 ; from CG331 CG2R61 CG2R66 CG2R61, PENALTY= 1.5 FPG2
    CTD1   CG2R61   CG2R66     FGR1     9   180.000000    18.828000     2 ; from CG331 CG2R61 CG2R66 FGR1, PENALTY= 1.5 FPG2
    CTD1    CG311   CG2R61   CG2R61     9   180.000000     0.962320     2 ; from CG2R61 CG2R61 CG311 CG321, PENALTY= 0.6 2GX BB8 DIPH
    CTD1    CG311    CG311    CG331     9   180.000000     2.092000     4 ; from CG311 CG311 CG311 CG321, PENALTY= 0.9 HIL4 HL2 HLU
    CTD1    CG311    CG311     HGA1     9     0.000000     0.815880     3 ; NA, sugar HIL4 HL2 HLU ILX
    CTD1    CG311    CG311    OG311     9     0.000000     0.585760     3 ; PROT, hydroxyl wild card HIL4 ILX
    CTD1    CG311    CG321    CG331     9     0.000000     0.836800     3 ; PROT alkane update, adm jr., 3/2/92 DILE IIL VAH
    CTD1    CG311    CG321     HGA2     9     0.000000     0.815880     3 ; NA, sugar BIU CTH DILE LMQ LME CHG IIL MEG TH6 VAH
    CTD1    CG311    CG331     HGA3     9     0.000000     0.836800     3 ; PROT alkane update, adm jr., 3/2/92 BIU OLT HIL4 2AS ALO LMQ
    CTD1    CG321   CG2DC1   CG2DC1     9     0.000000     1.255200     3 ; from CG2DC1 CG2DC1 CG321 CG321, PENALTY= 0.6 STYA TPQ TPQP
    CTD1    CG321   CG2DC1   CG2DC1     9     0.000000     2.092000     2 ; from CG2DC1 CG2DC1 CG321 CG321, PENALTY= 0.6 STYA TPQ TPQP
    CTD1    CG321   CG2DC1     HGA4     9     0.000000     0.502080     3 ; from HGA4 CG2D1 CG321 CG331, STYA
    CTD1    CG321   CG2R51   CG2R51     9     0.000000     0.000000     3 ; PROT 4-ethylimidazole 4-21G rot bar, adm jr. 3/4/92 TOX 0AF HIX TTQ
    CTD1    CG321   CG2R51   CG2R51     9     0.000000     0.836800     1 ; PROT 4-ethylimidazole 4-21G rot bar, adm jr. 3/4/92 TOX 0AF HIX TTQ
    CTD1    CG321   CG2R51   CG2R51     9     0.000000     1.129680     2 ; PROT 4-ethylimidazole 4-21G rot bar, adm jr. 3/4/92 TOX 0AF HIX TTQ
    CTD1    CG321   CG2R51   CG2RC0     9   180.000000     0.376560     2 ; INDO/TRP TOX TTQ 0AF HRP TRW 4IN 4FW TRX FT6 FTR TRO
    CTD1    CG321   CG2R51   CG2RC0     9     0.000000     2.384880     3 ; INDO/TRP TOX TTQ 0AF HRP TRW 4IN 4FW TRX FT6 FTR TRO
    CTD1    CG321   CG2R51   NG2R50     9     0.000000     0.794960     3 ; PROT HIS CB-CG TORSION, DDE 2HF2 TZA4 NEP
    CTD1    CG321   CG2R61   CG2R61     9   180.000000     0.962320     2 ; PROT ethylbenzene ethyl rotation, adm jr. 3/7/92 F2F NIY 0A1 ALN IYR
    CTD1    CG321   CG2R61   CG2R66     9   180.000000     0.962320     2 ; from CG2R61 CG2R61 CG321 CG311, PENALTY= 1.5 FPH2 PF5
    CTD1    CG321   CG2R61   NG2R60     9   180.000000     0.962320     2 ; from NG2R60 CG2R61 CG321 CG321, PENALTY= 0.6 PYR2 QU32 QX32
    CTD1    CG321    CG311    CG302     9     0.000000     0.836800     3 ; from CG321 CG311 CG321 CG311, PENALTY= 12 TFLE
    CTD1    CG321    CG311    CG331     9     0.000000     0.836800     3 ; PROT alkane update, adm jr., 3/2/92 SYM LEF LED TFLE
    CTD1    CG321    CG311     HGA1     9     0.000000     0.815880     3 ; NA, sugar GHG ARO CGU SYM LEF LED 3GL ALC CGUH TFLE
    CTD1    CG321    CG321    CG311     9     0.000000     0.815880     3 ; PROT alkane update, adm jr., 3/2/92 LYZ HLEU ACZ
    CTD1    CG321    CG321    CG321     9     0.000000     2.092000     3 ; CARBOCY carbocyclic sugars MCL ALY 26P 6CL HHK KCX HRG IT1 LDO
    CTD1    CG321    CG321    CG321     9   180.000000     2.092000     6 ; CARBOCY carbocyclic sugars MCL ALY 26P 6CL HHK KCX HRG IT1 LDO
    CTD1    CG321    CG321     HGA2     9     0.000000     0.815880     3 ; NA abasic nucleoside 2MR HGA MCL ALY 26P 6CL 4CY CAN HHK
    CTD1    CG321    CG321    OG311     9     0.000000     0.815880     3 ; from CG321 CG321 CG321 OG311, PENALTY= 0.6 HSER
    CTD1    CG321    CG322    CG2O3     9     0.000000     3.980658     3 ; from CG331 CG321 CG322 CG2O3, FGA4
    CTD1    CG321    CG322     FGA1     9   180.000000     1.442643     3 ; from CG331 CG321 CG322 FGA1, FGA4
    CTD1    CG321    CG322     HGA6     9   180.000000     0.076567     3 ; from CG331 CG321 CG322 HGA6, FGA4
    CTD1    CG321    CG324     HGA2     9     0.000000     0.815880     3 ; FLAVOP PIP1,2,3 GBUT DAB
    CTD1    CG321    CG324    NG2P1     9     0.000000     0.815880     3 ; from CG321 CG321 CG324 NG2P1, PENALTY= 0.6 GBUT
    CTD1    CG321   CG3C51   CG3C52     9   180.000000     2.092000     4 ; from CG321 CG311 CG3C51 CG3C52, PENALTY= 4.6 CPA3
    CTD1    CG321   CG3C51     HGA1     9     0.000000     0.815880     3 ; from CG321 CG311 CG3C51 HGA1, PENALTY= 4.6 CPA3
    CTD1    CG321   NG2R51   CG2R51     9     0.000000     0.230120     4 ; from CG331 CG321 NG2R51 CG2R51, PENALTY= 1.5 PYZ1
    CTD1    CG321   NG2R51   CG2R51     9     0.000000     0.334720     3 ; from CG331 CG321 NG2R51 CG2R51, PENALTY= 1.5 PYZ1
    CTD1    CG321   NG2R51   CG2R51     9     0.000000     1.610840     1 ; from CG331 CG321 NG2R51 CG2R51, PENALTY= 1.5 PYZ1
    CTD1    CG321   NG2R51   CG2R51     9     0.000000     1.757280     2 ; from CG331 CG321 NG2R51 CG2R51, PENALTY= 1.5 PYZ1
    CTD1    CG321   NG2R51   NG2R50     9     0.000000     0.230120     4 ; from CG331 CG321 NG2R51 NG2R50, PENALTY= 1.5 PYZ1 TEZA TRZ4
    CTD1    CG321   NG2R51   NG2R50     9   180.000000     0.334720     3 ; from CG331 CG321 NG2R51 NG2R50, PENALTY= 1.5 PYZ1 TEZA TRZ4
    CTD1    CG321   NG2R51   NG2R50     9   180.000000     1.610840     1 ; from CG331 CG321 NG2R51 NG2R50, PENALTY= 1.5 PYZ1 TEZA TRZ4
    CTD1    CG321   NG2R51   NG2R50     9     0.000000     1.757280     2 ; from CG331 CG321 NG2R51 NG2R50, PENALTY= 1.5 PYZ1 TEZA TRZ4
    CTD1    CG322    CG331     HGA3     9     0.000000     0.774040     3 ; from FGA1 CG322 CG331 HGA3, FVAL
    CTD1    CG324    NG2P1    CG2N1     9   180.000000     0.000000     6 ; from CG321 CG324 NG2P1 CG2N1, PENALTY= 0.6 GDPR
    CTD1    CG324    NG2P1     HGP2     9   180.000000     0.000000     6 ; from CG321 CG324 NG2P1 HGP2, PENALTY= 0.6 GDPR
    FGA1    CG322     CTD1        C     9     0.000000     0.374468     3 ; FVAL, by ac_aa
    FGA1    CG322     CTD1        C     9     0.000000     2.459774     2 ; FVAL, by ac_aa
    FGA1    CG322     CTD1        C     9   180.000000    10.104360     1 ; FVAL, by ac_aa
    FGA1    CG322     CTD1      NH1     9   180.000000     0.380744     2 ; FVAL, by ac_aa
    FGA1    CG322     CTD1      NH1     9   180.000000     4.448847     3 ; FVAL, by ac_aa
    FGA1    CG322     CTD1      NH1     9   180.000000    12.269580     1 ; FVAL, by ac_aa
     HB1     CTD1   CG2R51   CG2R51     9     0.000000     0.000000     3 ; from CG2R51 CG2R51 CG321 HGA2, PENALTY= 4 THG2 THG3
     HB1     CTD1   CG2R61   CG2R61     9   180.000000     0.418400     6 ; NAMODEL difluorotoluene 3FG FPG4 D4P PRV CHP 004 FPG2 CPG2 FPG3 TFG3
     HB1     CTD1   CG2R61   CG2R66     9   180.000000     0.418400     6 ; from CG2R61 CG2R61 CG311 HGA1, PENALTY= 1.5 FPG2
     HB1     CTD1    CG311   CG2R61     9     0.000000     0.000000     3 ; from CG2R61 CG311 CG321 HGA2, PENALTY= 4 2GX BB8 DIPH
     HB1     CTD1    CG311    CG311     9     0.000000     0.815880     3 ; NA, sugar HIL4 HL2 HLU ILX
     HB1     CTD1    CG311    CG321     9     0.000000     0.815880     3 ; NA, sugar BIU CTH DILE LMQ LME CHG IIL MEG TH6 VAH
     HB1     CTD1    CG311    CG331     9     0.000000     0.815880     3 ; NA, sugar BIU OLT HIL4 ALO 2AS LMQ LME IIL LVN MEG
     HB1     CTD1    CG311     HGA1     9     0.000000     0.815880     3 ; NA, sugar BIU CTH OLT 0TD HIL4 ALO 2AS BHD DILE LMQ
     HB1     CTD1    CG321   CG2DC1     9     0.000000     0.836800     3 ; from HGA1 CG311 CG321 CG2D1, PENALTY= 0.5 STYA TPQ TPQP
     HB1     CTD1    CG321   CG2R51     9     0.000000     0.836800     3 ; PROT alkane update, adm jr., 3/2/92 TOX TTQ 0AF DDE HIX THA3
     HB1     CTD1    CG321   CG2R61     9     0.000000     0.167360     3 ; PROT 2.7 kcal/mole CH3 rot in ethylbenzene, adm jr, 3/7/92 F2F NIY
     HB1     CTD1    CG321    CG311     9     0.000000     0.815880     3 ; NA, sugar GHG ARO CGU SYM LEF LED 3GL ALC CGUH TFLE
     HB1     CTD1    CG321    CG321     9     0.000000     0.815880     3 ; NA abasic nucleoside 2MR HGA MCL ALY 26P 6CL 4CY CAN HHK
     HB1     CTD1    CG321    CG324     9     0.000000     0.815880     3 ; G4MP, 01OH03, cacha GBUT DAB
     HB1     CTD1    CG321   CG3C51     9     0.000000     2.092000     3 ; from CG3C50 CG321 CG321 HGA2, PENALTY= 4.8 CPA3
     HB1     CTD1    CG321     HGA2     9     0.000000     0.815880     3 ; NA, sugar 2MR OAS F2F TOX SGB CSPP NIY 2AG 2CO IYR
     HB1     CTD1    CG322    CG331     9     0.000000     0.836800     3 ; from HGA1 CG311 CG321 CG331, FVAL
     HB1     CTD1    CG322     FGA1     9     0.000000     0.774040     3 ; from FGA1 CG322 CG331 HGA3, PENALTY= 11, FVAL
     HB1     CTD1    CG324     HGA2     9     0.000000     0.815880     3 ; FLAVOP PIP1,2,3 DPP DNP GDPR
     HB1     CTD1    CG324    NG2P1     9     0.000000     0.815880     3 ; from HGA2 CG321 CG324 NG2P1, PENALTY= 4 GDPR
    HGA1    CG311     CTD1        C     9     0.000000     0.836800     3 ; PROT alkane update, adm jr., 3/2/92 BIU CTH OLT 0TD ALO HIL4
    HGA2    CG321     CTD1        C     9     0.000000     0.836800     3 ; PROT alkane update, adm jr., 3/2/92 2MR OAS F2F CSPP SGB TOX
    HGA2    CG324     CTD1        C     9     0.000000     0.836800     3 ; from CG2O1 CG311 CG321 HGA2, PENALTY= 1 DNP DPP GDPR
       H      NH1     CTD1   CG2R51     9     0.000000     0.000000     1 ; from H NH1 CTD1C, THG2
       H      NH1     CTD1   CG2R61     9     0.000000     0.000000     1 ; from CG2R61 CG321 NG2S1 HGP1, PENALTY= 4 3FG D4P FPG4
       H      NH1     CTD1    CG311     9     0.000000     0.000000     1 ; PROT Alanine Dipeptide ab initio calc's (LK) BIU CTH 0TD HIL4 OLT
       H      NH1     CTD1    CG321     9     0.000000     0.000000     1 ; PROT Alanine Dipeptide ab initio calc's (LK) 2MR OAS F2F SGB TOX
       H      NH1     CTD1    CG322     9     0.000000     0.000000     1 ; from CG321 CG311 NG2S1 HGP1, PENALTY= 12, FVAL
       H      NH1     CTD1    CG324     9     0.000000     0.000000     1 ; G3P(R/S), Gamma-3-piperidine Glu Acid CDCA Amide, cacha DPP DNP GDPR
   NG1T1    CG321     CTD1        C     9   180.000000     0.799981     3 ; AZDA, by ac_aa
   NG1T1    CG321     CTD1        C     9   180.000000     1.300806     2 ; AZDA, by ac_aa
   NG1T1    CG321     CTD1        C     9   180.000000     1.820040     1 ; AZDA, by ac_aa
   NG1T1    CG321     CTD1      HB1     9     0.000000     1.561887     3 ; AZDA, by ac_aa
   NG1T1    CG321     CTD1      HB1     9     0.000000     5.310333     1 ; AZDA, by ac_aa
   NG1T1    CG321     CTD1      HB1     9   180.000000    10.043274     2 ; AZDA, by ac_aa
   NG1T1    CG321     CTD1      NH1     9   180.000000     0.013389     3 ; AZDA, by ac_aa
   NG1T1    CG321     CTD1      NH1     9   180.000000     7.044601     1 ; AZDA, by ac_aa
   NG1T1    CG321     CTD1      NH1     9   180.000000    11.852435     2 ; AZDA, by ac_aa
   NG1T1    NG1T1    CG321     CTD1     9     0.000000     1.704562     3 ; from NG1T1 NG1T1 CG321 CG331, AZDA
   NG1T1    NG1T1    CG321     CTD1     9     0.000000     2.541780     1 ; from NG1T1 NG1T1 CG321 CG331, AZDA
   NG2P1    CG324     CTD1        C     9   180.000000     2.183211     3 ; GDPR, by ac_aa
   NG2P1    CG324     CTD1      NH1     9   180.000000     0.751446     3 ; GDPR, by ac_aa
   NG2P1    CG324     CTD1      NH1     9     0.000000    16.772401     1 ; GDPR, by ac_aa
  NG2R51    CG321     CTD1        C     9     0.000000     4.808671     3 ; TEZA, by ac_aa
  NG2R51    CG321     CTD1        C     9     0.000000     5.843374     2 ; TEZA, by ac_aa
  NG2R51    CG321     CTD1        C     9     0.000000     9.386386     1 ; TEZA, by ac_aa
  NG2R51    CG321     CTD1      HB1     9     0.000000     1.658538     2 ; TEZA, by ac_aa
  NG2R51    CG321     CTD1      HB1     9   180.000000     9.331575     3 ; TEZA, by ac_aa
  NG2R51    CG321     CTD1      NH1     9     0.000000     0.411706     2 ; TEZA, by ac_aa
  NG2R51    CG321     CTD1      NH1     9     0.000000     4.441316     3 ; TEZA, by ac_aa
     NH1        C     CTD1   CG2R51     9     0.000000     2.510400     1 ; THG2, by ac_aa
     NH1        C     CTD1   CG2R61     9     0.000000     0.000000     1 ; from NH1 C CTD1CT2, 004
     NH1        C     CTD1   CG2R61     9   180.000000     3.168543     2 ; 004, by ac_aa
     NH1        C     CTD1   CG2R61     9     0.000000    12.935673     3 ; 004, by ac_aa
     NH1     CTD1   CG2R61   CG2R61     9   180.000000     0.054392     6 ; from CG2R61 CG2R61 CG321 NG2S1, PENALTY= 4 3FG D4P FPG4
     NH1     CTD1   CG2R61   CG2R61     9     0.000000     0.497896     2 ; from CG2R61 CG2R61 CG321 NG2S1, PENALTY= 4 3FG D4P FPG4
     NH1     CTD1   CG2R61   CG2R66     9   180.000000     0.054392     6 ; from CG2R61 CG2R61 CG321 NG2S1, PENALTY= 5.5 FPG2
     NH1     CTD1   CG2R61   CG2R66     9     0.000000     0.497896     2 ; from CG2R61 CG2R61 CG321 NG2S1, PENALTY= 5.5 FPG2
     NH1     CTD1   CG2R61   CG2R66     9   180.000000     0.552288     4 ; from CG2R61 CG2R61 CG321 NG2S1, PENALTY= 5.5 FPG2
     NH1     CTD1    CG311   CG2R61     9     0.000000     0.836800     3 ; from NG2S1 CG311 CG321 CG2R61, PENALTY= 4 2GX BB8 DIPH
     NH1     CTD1    CG311    CG311     9     0.000000     0.836800     3 ; from CG321 CG311 CG311 NG2S1, PENALTY= 0.6 HIL4 HL2 HLU
     NH1     CTD1    CG311    CG321     9     0.000000     0.836800     3 ; PROT alkane update, adm jr., 3/2/92 BIU CTH DILE CHG LME LMQ
     NH1     CTD1    CG311    CG331     9     0.000000     0.836800     3 ; PROT alkane update, adm jr., 3/2/92 BIU OLT HIL4 2AS ALO LMQ
     NH1     CTD1    CG311     HGA1     9     0.000000     0.836800     3 ; PROT alkane update, adm jr., 3/2/92 BIU CTH OLT 0TD ALO HIL4
     NH1     CTD1    CG321   CG2DC1     9   180.000000     2.175680     1 ; from CA CT2 CTD1NH1, TPQP
     NH1     CTD1    CG321   CG2DC1     9   180.000000     2.594080     2 ; from CA CT2 CTD1NH1, TPQP
     NH1     CTD1    CG321   CG2DC1     9     0.000000     6.610720     3 ; from CA CT2 CTD1NH1, TPQP
     NH1     CTD1    CG321   CG2R51     9     0.000000     0.836800     3 ; PROT alkane update, adm jr., 3/2/92 TOX TTQ 0AF DDE HIX THA3
     NH1     CTD1    CG321   CG2R61     9     0.000000     0.836800     3 ; PROT alkane update, adm jr., 3/2/92 F2F NIY IYR 0A1 2LT ALN
     NH1     CTD1    CG321    CG311     9     0.000000     0.836800     3 ; PROT alkane update, adm jr., 3/2/92 GHG ARO CGU LED LEF SYM
     NH1     CTD1    CG321    CG321     9     0.000000     0.836800     3 ; PROT alkane update, adm jr., 3/2/92 2MR HGA MCL 26P 6CL ALY
     NH1     CTD1    CG321    CG324     9     0.000000     0.836800     3 ; G4P, 01OH02 GBUT DAB
     NH1     CTD1    CG321   CG3C51     9     0.000000     0.836800     3 ; from NG2S1 CG311 CG321 CG321, PENALTY= 10 CPA3
     NH1     CTD1    CG321     HGA2     9     0.000000     0.836800     3 ; PROT alkane update, adm jr., 3/2/92 2MR OAS F2F CSPP SGB TOX
     NH1     CTD1    CG322    CG331     9     0.000000     0.836800     3 ; from NG2S1 CG311 CG321 CG321, FVAL
     NH1     CTD1    CG324     HGA2     9     0.000000     0.836800     3 ; G3P(R/S), Gamma-3-piperidine Glu Acid CDCA Amide, cacha DPP DNP GDPR
       O        C     CTD1   CG2R51     9     0.000000     0.000000     1 ; THG2, by ac_aa
       O        C     CTD1   CG2R61     9     0.000000     5.857600     1 ; from O C CTD1CT2, 004
  OG2R50   CG2R51    CG321     CTD1     9     0.000000     0.906254     3 ; from OG2R50 CG2R51 CG321 CG331, FUA2
  SG2R50   CG2R51   CG2R51     CTD1     9   180.000000    28.249113     2 ; from SG2R50 CG2R51 CG2R51 CG331, THG3
  SG2R50   CG2R51     CTD1        C     9   180.000000     4.304499     2 ; THG2, by ac_aa
  SG2R50   CG2R51     CTD1      HB1     9   180.000000     4.424998     3 ; THG2, by ac_aa
  SG2R50   CG2R51     CTD1      NH1     9     0.000000     4.080237     3 ; THG2, by ac_aa
     NH3      CT1        C    NG2D1     9     0.000000     1.673600     1 ; ALLOW PEP PRO
     CP1        C    NG2D1   CG2DC1     9     0.000000     6.694400     1 ; from CT1 NH1 C CP1, ALLOW PEP PRO
     CP1        C    NG2D1   CG2DC1     9   180.000000    10.460000     2 ; from CT1 NH1 C CP1, ALLOW PEP PRO
     CT2        C    NG2D1   CG2DC1     9     0.000000     6.694400     1 ; from CT2 C NH1 CT1, ALLOW PEP
     CT2        C    NG2D1   CG2DC1     9   180.000000    10.460000     2 ; from CT2 C NH1 CT1, ALLOW PEP
     CP1        C    NG2S0    CG311     9     0.000000     6.694400     1 ; from CT1 NH1 C CP1, ALLOW PEP PRO
     CP1        C    NG2S0    CG311     9   180.000000    10.460000     2 ; from CT1 NH1 C CP1, ALLOW PEP PRO
     CP1        C    NG2S0    CG321     9     0.000000     6.694400     1 ; from CT1 NH1 C CP1, ALLOW PEP PRO
     CP1        C    NG2S0    CG321     9   180.000000    10.460000     2 ; from CT1 NH1 C CP1, ALLOW PEP PRO
     CP1        C    NG2S0    CG331     9     0.000000     6.694400     1 ; from CT1 NH1 C CP1, ALLOW PEP PRO
     CP1        C    NG2S0    CG331     9   180.000000    10.460000     2 ; from CT1 NH1 C CP1, ALLOW PEP PRO
     CP1        C    NG2S0   CG3C50     9     0.000000     6.694400     1 ; from CT1 NH1 C CP1, ALLOW PEP PRO
     CP1        C    NG2S0   CG3C50     9   180.000000    10.460000     2 ; from CT1 NH1 C CP1, ALLOW PEP PRO
     CP1        C    NG2S0   CG3C51     9     0.000000     6.694400     1 ; from CT1 NH1 C CP1, ALLOW PEP PRO
     CP1        C    NG2S0   CG3C51     9   180.000000    10.460000     2 ; from CT1 NH1 C CP1, ALLOW PEP PRO
     CP1        C    NG2S0   CG3C52     9     0.000000     6.694400     1 ; from CT1 NH1 C CP1, ALLOW PEP PRO
     CP1        C    NG2S0   CG3C52     9   180.000000    10.460000     2 ; from CT1 NH1 C CP1, ALLOW PEP PRO
     CT2        C    NG2S0    CG311     9     0.000000     6.694400     1 ; from CT2 C NH1 CT1, ALLOW PEP
     CT2        C    NG2S0    CG311     9   180.000000    10.460000     2 ; from CT2 C NH1 CT1, ALLOW PEP
     CT2        C    NG2S0    CG321     9     0.000000     6.694400     1 ; from CT2 C NH1 CT1, ALLOW PEP
     CT2        C    NG2S0    CG321     9   180.000000    10.460000     2 ; from CT2 C NH1 CT1, ALLOW PEP
     CT2        C    NG2S0    CG331     9     0.000000     6.694400     1 ; from CT2 C NH1 CT1, ALLOW PEP
     CT2        C    NG2S0    CG331     9   180.000000    10.460000     2 ; from CT2 C NH1 CT1, ALLOW PEP
     CT2        C    NG2S0   CG3C50     9     0.000000     6.694400     1 ; from CT2 C NH1 CT1, ALLOW PEP
     CT2        C    NG2S0   CG3C50     9   180.000000    10.460000     2 ; from CT2 C NH1 CT1, ALLOW PEP
     CT2        C    NG2S0   CG3C51     9     0.000000     6.694400     1 ; from CT2 C NH1 CT1, ALLOW PEP
     CT2        C    NG2S0   CG3C51     9   180.000000    10.460000     2 ; from CT2 C NH1 CT1, ALLOW PEP
     CT2        C    NG2S0   CG3C52     9     0.000000     6.694400     1 ; from CT2 C NH1 CT1, ALLOW PEP
     CT2        C    NG2S0   CG3C52     9   180.000000    10.460000     2 ; from CT2 C NH1 CT1, ALLOW PEP
     CP1        C    NG2S1   CG2D1O     9     0.000000     6.694400     1 ; from CT1 NH1 C CP1, ALLOW PEP PRO
     CP1        C    NG2S1   CG2D1O     9   180.000000    10.460000     2 ; from CT1 NH1 C CP1, ALLOW PEP PRO
     CP1        C    NG2S1    CG311     9     0.000000     6.694400     1 ; from CT1 NH1 C CP1, ALLOW PEP PRO
     CP1        C    NG2S1    CG311     9   180.000000    10.460000     2 ; from CT1 NH1 C CP1, ALLOW PEP PRO
     CP1        C    NG2S1    CG321     9     0.000000     6.694400     1 ; from CT1 NH1 C CP1, ALLOW PEP PRO
     CP1        C    NG2S1    CG321     9   180.000000    10.460000     2 ; from CT1 NH1 C CP1, ALLOW PEP PRO
     CP1        C    NG2S1   CG3C51     9     0.000000     6.694400     1 ; from CT1 NH1 C CP1, ALLOW PEP PRO
     CP1        C    NG2S1   CG3C51     9   180.000000    10.460000     2 ; from CT1 NH1 C CP1, ALLOW PEP PRO
     CP1        C    NG2S1     HGP1     9   180.000000    10.460000     2 ; from H NH1 C CP1, ALLOW PEP PRO
     CT2        C    NG2S1   CG2D1O     9     0.000000     6.694400     1 ; from CT2 C NH1 CT1, ALLOW PEP
     CT2        C    NG2S1   CG2D1O     9   180.000000    10.460000     2 ; from CT2 C NH1 CT1, ALLOW PEP
     CT2        C    NG2S1    CG311     9     0.000000     6.694400     1 ; from CT2 C NH1 CT1, ALLOW PEP
     CT2        C    NG2S1    CG311     9   180.000000    10.460000     2 ; from CT2 C NH1 CT1, ALLOW PEP
     CT2        C    NG2S1    CG321     9     0.000000     6.694400     1 ; from CT2 C NH1 CT1, ALLOW PEP
     CT2        C    NG2S1    CG321     9   180.000000    10.460000     2 ; from CT2 C NH1 CT1, ALLOW PEP
     CT2        C    NG2S1   CG3C51     9     0.000000     6.694400     1 ; from CT2 C NH1 CT1, ALLOW PEP
     CT2        C    NG2S1   CG3C51     9   180.000000    10.460000     2 ; from CT2 C NH1 CT1, ALLOW PEP
     CT2        C    NG2S1     HGP1     9     0.000000     0.460240     3 ; from H NH2 CT1 CT2, From LSN HC-NH2-CT2-CT2
  CG2DC1   CG2D1O    CG2O1        N     9     0.000000     0.000000     1 ; from N C CT1 CT3, ALLOW PEP PRO
   NG2S1   CG2D1O    CG2O1        N     9     0.000000     2.510400     1 ; from NH1 C CT1 NH1, ALLOW PEP
  CG2D1O    CG2O1        N      CP1     9   180.000000    11.506000     2 ; from CT1 C N CP1, ALLOW PRO
  CG2D1O    CG2O1        N      CP1     9     0.000000     1.255200     4 ; from CT1 C N CP1, ALLOW PRO
  CG2D1O    CG2O1        N      CP3     9   180.000000    11.506000     2 ; from CT1 C N CP3, ALLOW PRO
  CG2D1O    CG2O1        N      CP3     9     0.000000     1.255200     4 ; from CT1 C N CP3, ALLOW PRO
   CG311    CG2O1        N      CP1     9   180.000000    11.506000     2 ; from CT1 C N CP1, ALLOW PRO
   CG311    CG2O1        N      CP1     9     0.000000     1.255200     4 ; from CT1 C N CP1, ALLOW PRO
   CG311    CG2O1        N      CP3     9   180.000000    11.506000     2 ; from CT1 C N CP3, ALLOW PRO
   CG311    CG2O1        N      CP3     9     0.000000     1.255200     4 ; from CT1 C N CP3, ALLOW PRO
   CG321    CG2O1        N      CP1     9   180.000000    11.506000     2 ; from CT1 C N CP1, ALLOW PRO
   CG321    CG2O1        N      CP1     9     0.000000     1.255200     4 ; from CT1 C N CP1, ALLOW PRO
   CG321    CG2O1        N      CP3     9   180.000000    11.506000     2 ; from CT1 C N CP3, ALLOW PRO
   CG321    CG2O1        N      CP3     9     0.000000     1.255200     4 ; from CT1 C N CP3, ALLOW PRO
  CG3C50    CG2O1        N      CP1     9   180.000000    11.506000     2 ; from CT1 C N CP1, ALLOW PRO
  CG3C50    CG2O1        N      CP1     9     0.000000     1.255200     4 ; from CT1 C N CP1, ALLOW PRO
  CG3C50    CG2O1        N      CP3     9   180.000000    11.506000     2 ; from CT1 C N CP3, ALLOW PRO
  CG3C50    CG2O1        N      CP3     9     0.000000     1.255200     4 ; from CT1 C N CP3, ALLOW PRO
  CG3C51    CG2O1        N      CP1     9   180.000000    11.506000     2 ; from CT1 C N CP1, ALLOW PRO
  CG3C51    CG2O1        N      CP1     9     0.000000     1.255200     4 ; from CT1 C N CP1, ALLOW PRO
  CG3C51    CG2O1        N      CP3     9   180.000000    11.506000     2 ; from CT1 C N CP3, ALLOW PRO
  CG3C51    CG2O1        N      CP3     9     0.000000     1.255200     4 ; from CT1 C N CP3, ALLOW PRO
   OG2D1    CG2O1        N      CP1     9   180.000000    11.506000     2 ; from O C N CP1, ALLOW PRO
   OG2D1    CG2O1        N      CP1     9     0.000000     1.255200     4 ; from O C N CP1, ALLOW PRO
   OG2D1    CG2O1        N      CP3     9   180.000000    11.506000     2 ; from O C N CP3, ALLOW PRO
   OG2D1    CG2O1        N      CP3     9     0.000000     1.255200     4 ; from O C N CP3, ALLOW PRO
   SG2D1    CG2O1        N      CP1     9   180.000000    11.506000     2 ; from O C N CP1, ALLOW PRO
   SG2D1    CG2O1        N      CP1     9     0.000000     1.255200     4 ; from O C N CP1, ALLOW PRO
   SG2D1    CG2O1        N      CP3     9   180.000000    11.506000     2 ; from O C N CP3, ALLOW PRO
   SG2D1    CG2O1        N      CP3     9     0.000000     1.255200     4 ; from O C N CP3, ALLOW PRO
  CG2D1O    CG2O1      NH1      CT2     9     0.000000     6.694400     1 ; from CT2 C NH1 CT2, ALLOW PEP
  CG2D1O    CG2O1      NH1      CT2     9   180.000000    10.460000     2 ; from CT2 C NH1 CT2, ALLOW PEP
   CG311    CG2O1      NH1      CT2     9     0.000000     6.694400     1 ; from CT2 C NH1 CT2, ALLOW PEP
   CG311    CG2O1      NH1      CT2     9   180.000000    10.460000     2 ; from CT2 C NH1 CT2, ALLOW PEP
   CG321    CG2O1      NH1      CT2     9     0.000000     6.694400     1 ; from CT2 C NH1 CT2, ALLOW PEP
   CG321    CG2O1      NH1      CT2     9   180.000000    10.460000     2 ; from CT2 C NH1 CT2, ALLOW PEP
  CG3C50    CG2O1      NH1      CT2     9     0.000000     6.694400     1 ; from CT2 C NH1 CT2, ALLOW PEP
  CG3C50    CG2O1      NH1      CT2     9   180.000000    10.460000     2 ; from CT2 C NH1 CT2, ALLOW PEP
  CG3C51    CG2O1      NH1      CT2     9     0.000000     6.694400     1 ; from CT2 C NH1 CT2, ALLOW PEP
  CG3C51    CG2O1      NH1      CT2     9   180.000000    10.460000     2 ; from CT2 C NH1 CT2, ALLOW PEP
   OG2D1    CG2O1      NH1      CT2     9   180.000000    10.460000     2 ; from O C NH1 CT2 2 ALLOW PEP
   SG2D1    CG2O1      NH1      CT2     9   180.000000    10.460000     2 ; from O C NH1 CT2 2 ALLOW PEP
   CG2O3    CG311    CG2O1        N     9   180.000000     0.502080     1 ; from CT2 CT1 CT1 NH1
   CG2O3    CG311    CG2O1        N     9   180.000000     1.506240     2 ; from CT2 CT1 CT1 NH1
   CG2O3    CG311    CG2O1        N     9     0.000000     1.715440     3 ; from CT2 CT1 CT1 NH1
   CG321    CG311    CG2O1        N     9     0.000000     0.000000     1 ; from NH1 C CT1 CT2, ALLOW PEP
   CG331    CG311    CG2O1        N     9     0.000000     0.000000     1 ; from NH1 C CT1 CT3, ALLOW PEP
    HGA1    CG311    CG2O1        N     9     0.000000     0.000000     1 ; from N C CT1 HB1, ALLOW PEP PRO
   NG2S0    CG311    CG2O1        N     9     0.000000     2.510400     1 ; from NH1 C CT1 NH1, ALLOW PEP
   NG2S1    CG311    CG2O1        N     9     0.000000     2.510400     1 ; from NH1 C CT1 NH1, ALLOW PEP
   CG311    CG321    CG2O1        N     9     0.000000     0.000000     1 ; from NH1 C CT1 CT1, ALLOW PEP
    HGA2    CG321    CG2O1        N     9     0.000000     0.000000     1 ; from NH1 C CT2 HB2, ALLOW PEP
  NG2R51    CG321    CG2O1        N     9     0.000000     2.510400     1 ; from NH1 C CT1 NH1, ALLOW PEP
  NG2R53    CG321    CG2O1        N     9     0.000000     2.510400     1 ; from NH1 C CT1 NH1, ALLOW PEP
   NG2S0    CG321    CG2O1        N     9     0.000000     2.510400     1 ; from NH1 C CT1 NH1, ALLOW PEP
   NG2S1    CG321    CG2O1        N     9     0.000000     2.510400     1 ; from NH1 C CT1 NH1, ALLOW PEP
  CG3C52   CG3C50    CG2O1        N     9     0.000000     0.000000     1 ; from NH1 C CT1 CT2, ALLOW PEP
   NG2S0   CG3C50    CG2O1        N     9     0.000000     2.510400     1 ; from NH1 C CT1 NH1, ALLOW PEP
   OG311   CG3C50    CG2O1        N     9     0.000000     0.778224     1 ; from NG2S1 CG2O1 CG3C50 OG311, PXU, by AA_AC
  CG2R51   CG3C51    CG2O1        N     9     0.000000     0.000000     1 ; from NH1 C CT1 CT2, ALLOW PEP
  CG3C52   CG3C51    CG2O1        N     9     0.000000     0.000000     1 ; from NH1 C CT1 CT2, ALLOW PEP
    HGA1   CG3C51    CG2O1        N     9     0.000000     0.000000     1 ; from N C CT1 HB1, ALLOW PEP PRO
   NG2S0   CG3C51    CG2O1        N     9     0.000000     2.510400     1 ; from NH1 C CT1 NH1, ALLOW PEP
  NG3C51   CG3C51    CG2O1        N     9     0.000000     2.510400     1 ; from NH1 C CT1 NH1, ALLOW PEP
   CG2D1      CT1        C        N     9     0.000000     0.000000     1 ; from N C CT1 CT1, ALLOW PEP PRO
  CG2D1O      CT1        C        N     9   180.000000    11.506000     2 ; from CT1 C N CP1, ALLOW PRO
  CG2D1O      CT1        C        N     9     0.000000     1.255200     4 ; from CT1 C N CP1, ALLOW PRO
  CG2R51      CT1        C        N     9   180.000000    11.506000     2 ; from CT1 C N CP1, ALLOW PRO
  CG2R51      CT1        C        N     9     0.000000     1.255200     4 ; from CT1 C N CP1, ALLOW PRO
  CG2R61      CT1        C        N     9   180.000000    11.506000     2 ; from CT1 C N CP1, ALLOW PRO
  CG2R61      CT1        C        N     9     0.000000     1.255200     4 ; from CT1 C N CP1, ALLOW PRO
   CG301      CT1        C        N     9   180.000000    11.506000     2 ; from CT1 C N CP1, ALLOW PRO
   CG301      CT1        C        N     9     0.000000     1.255200     4 ; from CT1 C N CP1, ALLOW PRO
   CG311      CT1        C        N     9   180.000000    11.506000     2 ; from CT1 C N CP1, ALLOW PRO
   CG311      CT1        C        N     9     0.000000     1.255200     4 ; from CT1 C N CP1, ALLOW PRO
   CG321      CT1        C        N     9   180.000000    11.506000     2 ; from CT1 C N CP1, ALLOW PRO
   CG321      CT1        C        N     9     0.000000     1.255200     4 ; from CT1 C N CP1, ALLOW PRO
   CG322      CT1        C        N     9   180.000000    11.506000     2 ; from CT1 C N CP1, ALLOW PRO
   CG322      CT1        C        N     9     0.000000     1.255200     4 ; from CT1 C N CP1, ALLOW PRO
   CG324      CT1        C        N     9   180.000000    11.506000     2 ; from CT1 C N CP1, ALLOW PRO
   CG324      CT1        C        N     9     0.000000     1.255200     4 ; from CT1 C N CP1, ALLOW PRO
  CG3C51      CT1        C        N     9   180.000000    11.506000     2 ; from CT1 C N CP1, ALLOW PRO
  CG3C51      CT1        C        N     9     0.000000     1.255200     4 ; from CT1 C N CP1, ALLOW PRO
     CT1      CT1        C    NG2D1     9     0.000000     0.000000     1 ; from NH1 C CT1 CT1, ALLOW PEP
     CT1      CT1        C    NG2S0     9     0.000000     0.000000     1 ; from N C CT1 CT1, ALLOW PEP
     CT1      CT1        C    NG2S1     9     0.000000     0.000000     1 ; from N C CT1 CT1, ALLOW PEP PRO
     CT2      CT1        C    NG2D1     9     0.000000     0.000000     1 ; from NH1 C CT1 CT2, ALLOW PEP
     CT2      CT1        C    NG2S0     9     0.000000     0.000000     1 ; from N C CT1 CT2, ALLOW PEP PRO
     CT2      CT1        C    NG2S1     9     0.000000     0.000000     1 ; from N C CT1 CT2, ALLOW PEP PRO
    CT2A      CT1        C    NG2D1     9     0.000000     0.000000     1 ; from CT2A CT1 C NH1, RB: added for GLU-PRO in UBQ
    CT2A      CT1        C    NG2S0     9     0.000000     0.000000     1 ; from CT2A CT1 C NH1, RB: added for GLU-PRO in UBQ
    CT2A      CT1        C    NG2S1     9     0.000000     0.000000     1 ; from CT2A CT1 C NH1, RB: added for GLU-PRO in UBQ
     HB2      CT2        C    NG2D1     9     0.000000     0.000000     1 ; from N C CT2 HB2,  ALLOW PEP PRO
     HB2      CT2        C    NG2S0     9     0.000000     0.000000     1 ; from N C CT2 HB2,  ALLOW PEP PRO
     HB2      CT2        C    NG2S1     9     0.000000     0.000000     1 ; from N C CT2 HB2,  ALLOW PEP PRO
     NH1      CT2        C    NG2D1     9     0.000000     1.673600     1 ; from NH1 CT2 C N,  ALLOW PEP PRO
     NH1      CT2        C    NG2S0     9     0.000000     1.673600     1 ; from NH1 CT2 C N,  ALLOW PEP PRO
     NH1      CT2        C    NG2S1     9     0.000000     1.673600     1 ; from NH1 CT2 C N, ALLOW PEP PRO
   CG2O1        N      CP1        C     9     0.000000     3.347200     3 ; from C N CP1 C, ALLOW PRO PEP
   CG2O1        N      CP1      CP2     9     0.000000     3.347200     3 ; from CP2 CP1 N C, ALLOW PRO PEP
   CG2O1        N      CP1      HB1     9     0.000000     3.347200     3 ; from HB1 CP1 N C, ALLOW PRO PEP
   CG2O1        N      CP3      CP2     9   180.000000     0.000000     3 ; from CP2 CP3 N C, ALLOW PRO PEP
   CG2O1        N      CP3      HA2     9   180.000000     0.000000     3 ; from HA2 CP3 N C, ALLOW PRO PEP
   CG2O1      NH1      CT1      CT1     9     0.000000     7.531200     1 ; from CT1 CT1 NH1 C, ALLOW PEP
   CG2O1      NH1      CT1      CT2     9     0.000000     7.531200     1 ; from CT2 CT1 NH1 C, ALLOW PEP
   CG2O1      NH1      CT1     CT2A     9     0.000000     7.531200     1 ; from C NH1 CT1 CT2A, from CT2 CT1 NH1 C
   CG2O1      NH1      CT2        C     9   180.000000     0.836800     1 ; from C CT2 NH1 C, ALLOW PEP
   CG2O1      NH1      CT2      HB2     9     0.000000     0.000000     1 ; from HB2 CT2 NH1 C, ALLOW PEP
     NH3      CT1    CG321     HGA2     9     0.000000     0.836800     3 ; from X    CT1  CT2  X
     NH3      CT1    CG321    CG321     9     0.000000     0.836800     3 ; from X    CT1  CT2  X
    HGA2    CG321      CT1       CC     9     0.000000     0.836800     3 ; from X    CT1  CT2  X
   CG321    CG321      CT1       CC     9     0.000000     0.836800     3 ; from X    CT1  CT2  X

; specific (non-wildcard) dihedral parameters from toppar_c36_jul22/stream/prot/toppar_all36_prot_na_combined.str
;      i        j        k        l  func         phi0         kphi  mult
      CA       CA       CA     ON2B     9   180.000000    12.970400     2 ; phenol phosphate, 6/94, adm jr.
      HP       CA       CA     ON2B     9   180.000000    17.572800     2 ; phenol phosphate, 6/94, adm jr.
      CA       CA     ON2B        P     9   180.000000     5.857600     2 ; phenol phosphate, 6/94, adm jr.
      CA       CA     ON2B        P     9   180.000000     0.836800     3 ; phenol phosphate, 6/94, adm jr.
      CA     ON2B        P      ON4     9     0.000000     3.974800     2 ; phenol phosphate, 6/94, adm jr.
      CA     ON2B        P      ON4     9     0.000000     2.092000     3 ; phenol phosphate, 6/94, adm jr.
      CA     ON2B        P      ON3     9     0.000000     0.418400     3 ; phenol phosphate, 6/94, adm jr.
    ON2B        P      ON4      HN4     9   180.000000     6.694400     1 ; 
    ON2B        P      ON4      HN4     9     0.000000     3.765600     2 ; 
      CA       CA      CT2        P     9   180.000000     0.836800     2 ; 
      CA      CT2        P      ON4     9     0.000000     2.092000     2 ; 
      CA      CT2        P      ON4     9   180.000000     6.903600     1 ; 
     HA2      CT2        P      ON4     9     0.000000     0.418400     3 ; 
      CA      CT2        P      ON3     9     0.000000     0.209200     3 ; 
     HA2      CT2        P      ON3     9     0.000000     0.418400     3 ; 
     CT2        P      ON4      HN4     9   180.000000     2.510400     1 ; 
     CT2        P      ON4      HN4     9     0.000000     4.602400     2 ; 
      CA       CA       CA      CF2     9   180.000000    12.970400     2 ; 
      HP       CA       CA      CF2     9   180.000000    17.572800     2 ; 
      CA       CA      CF2       F2     9     0.000000     1.673600     3 ; 
      CA       CA      CF2       F2     9     0.000000     1.255200     2 ; 
      CA       CA      CF2        P     9   180.000000     0.627600     2 ; 
      CA      CF2        P      ON4     9     0.000000     0.418400     2 ; 
      CA      CF2        P      ON4     9     0.000000     1.673600     3 ; 
      F2      CF2        P      ON4     9     0.000000     0.418400     3 ; 
      CA      CF2        P      ON3     9     0.000000     0.000000     3 ; 
      F2      CF2        P      ON3     9     0.000000     0.000000     3 ; 
     CF2        P      ON4      HN4     9   180.000000     0.836800     1 ; 10/02 fix, adm jr.
     CF2        P      ON4      HN4     9     0.000000     6.694400     2 ; 10/02 fix, adm jr.
     CT1      CT1      ON2        P     9   180.000000     1.673600     1 ; phosphothreonine, from dianionic isopropylphosphate
     CT1      CT1      ON2        P     9     0.000000     1.255200     2 ; 
     CT1      CT1      ON2        P     9     0.000000     0.418400     3 ; 
     CT3      CT1      ON2        P     9   180.000000     1.673600     1 ; phosphothreonine, from dianionic isopropylphosphate
     CT3      CT1      ON2        P     9     0.000000     1.255200     2 ; 
     CT3      CT1      ON2        P     9     0.000000     0.418400     3 ; 
     CN9      CN7      ON2        P     9   180.000000     1.673600     1 ; dianionic isopropylphosphate
     CN9      CN7      ON2        P     9     0.000000     1.255200     2 ; 
     CN9      CN7      ON2        P     9     0.000000     0.418400     3 ; 
     CT1      CT2      ON2        P     9   180.000000     2.510400     1 ; phosphoserine, from dianionic ethylphosphate
     CT1      CT2      ON2        P     9     0.000000     2.719600     2 ; 
     CT1      CT2      ON2        P     9     0.000000     0.209200     3 ; 
     CN9      CN8      ON2        P     9   180.000000     2.510400     1 ; dianionic ethylphosphate
     CN9      CN8      ON2        P     9     0.000000     2.719600     2 ; 
     CN9      CN8      ON2        P     9     0.000000     0.209200     3 ; 
     CT1      ON2        P      ON3     9     0.000000     0.418400     3 ; from ON3  P    ON2  CN7
     CT2      ON2        P      ON3     9     0.000000     0.418400     3 ; from ON3  P    ON2  CN8B
     CT1      ON2        P      ON4     9     0.000000     3.974800     2 ; from ON4  P    ON2  CN8B
     CT1      ON2        P      ON4     9     0.000000     2.092000     3 ; from ON4  P    ON2  CN8B
     CT2      ON2        P      ON4     9     0.000000     3.974800     2 ; from ON4  P    ON2  CN8B
     CT2      ON2        P      ON4     9     0.000000     2.092000     3 ; from ON4  P    ON2  CN8B
     HA1      CT1      ON2        P     9     0.000000     0.000000     3 ; from P    ON2  CN7 HN7
     HA2      CT2      ON2        P     9     0.000000     0.000000     3 ; from P    ON2  CN8B HN8
     CN9      CN7      CN9      HN9     9     0.000000     0.815880     3 ; 
     ON2      CN7      CN9      HN9     9     0.000000     0.815880     3 ; 
    CN8B        S      CT2      CT2     9   180.000000     1.004160     1 ; sahc, nilesh, from ALOW    ALI SUL ION
     CN7     CN8B        S      CT2     9   120.000000     0.836800     1 ; sahc, nilesh, from bet C4'-C5'-O5'-P, adm jr.
    ON6B      CN7     CN8B        S     9   180.000000    14.225600     1 ; sahc, nilesh, from gam, RNA
     CN7      CN7     CN8B        S     9   180.000000     0.836800     4 ; sahc, nilesh, from gam adm jr.
     CN7      CN7     CN8B        S     9   180.000000     3.347200     3 ; sahc, nilesh, from gam C3'-C4'-C5'-O5'
     CN7      CN7     CN8B        S     9     0.000000     1.673600     2 ; sahc, nilesh, from gam
     CN7      CN7     CN8B        S     9   180.000000    10.460000     1 ; sahc, nilesh, from gam
     HN7      CN7     CN8B        S     9     0.000000     0.815880     3 ; sahc, nilesh, from gam H-C4'-C5'-O5'
     CT2        S     CN8B      HN8     9     0.000000     1.171520     3 ; sahc, nilesh, from ALLOW   ALI SUL ION
     HA2      CT2        S     CN8B     9     0.000000     1.171520     3 ; sahc, nilesh, from ALLOW   ALI SUL ION
     CT3       SP     CN8B      CN7     9   180.000000     1.635944     1 ; 
     CT3       SP     CN8B      CN7     9     0.000000     1.560632     3 ; 
     CT3       SP      CT2      CT2     9   180.000000     1.635944     1 ; 
     CT3       SP      CT2      CT2     9     0.000000     1.560632     3 ; 
    CN8B       SP      CT2      CT2     9   180.000000     1.635944     1 ; 
    CN8B       SP      CT2      CT2     9     0.000000     1.560632     3 ; 
     CN7     CN8B       SP      CT2     9   180.000000     1.635944     1 ; 
     CN7     CN8B       SP      CT2     9     0.000000     1.560632     3 ; 
     CT2       SP      CT3      HA3     9     0.000000     1.171520     3 ; 
     HA2      CT2       SP      CT3     9     0.000000     1.171520     3 ; 
    CN8B       SP      CT3      HA3     9     0.000000     1.171520     3 ; 
     HN8     CN8B       SP      CT3     9     0.000000     1.171520     3 ; 
    ON6B      CN7     CN8B       SP     9   180.000000    14.225600     1 ; sahc, nilesh, from gam, RNA
     CN7      CN7     CN8B       SP     9   180.000000     0.836800     4 ; sahc, nilesh, from gam adm jr.
     CN7      CN7     CN8B       SP     9   180.000000     3.347200     3 ; sahc, nilesh, from gam C3'-C4'-C5'-O5'
     CN7      CN7     CN8B       SP     9     0.000000     1.673600     2 ; sahc, nilesh, from gam
     CN7      CN7     CN8B       SP     9   180.000000    10.460000     1 ; sahc, nilesh, from gam
     HN7      CN7     CN8B       SP     9     0.000000     0.815880     3 ; sahc, nilesh, from gam H-C4'-C5'-O5'
     CT2       SP     CN8B      HN8     9     0.000000     1.171520     3 ; sahc, nilesh, from ALLOW   ALI SUL ION
     HA2      CT2       SP     CN8B     9     0.000000     1.171520     3 ; sahc, nilesh, from ALLOW   ALI SUL ION
    CN7B      NR1     CPH1      HR3     9   180.000000     0.000000     2 ; NF
    CN7B      NR1     CPH1     CPH1     9     0.000000     0.000000     1 ; 
    CN7B      NR1     CPH2      HR1     9   180.000000     0.000000     2 ; 
    CN7B      NR1     CPH2      NR2     9   180.000000     0.000000     2 ; 
     ON6     CN7B      NR1     CPH1     9     0.000000     0.836800     3 ; 
     ON6     CN7B      NR1     CPH1     9   -70.000000     2.092000     2 ; 
     ON6     CN7B      NR1     CPH1     9   180.000000     2.510400     1 ; 
     ON6     CN7B      NR1     CPH2     9     0.000000     1.255200     1 ; 
    ON6B     CN7B      NR1     CPH1     9     0.000000     0.836800     3 ; RNUS
    ON6B     CN7B      NR1     CPH1     9   -70.000000     2.092000     2 ; RNUS
    ON6B     CN7B      NR1     CPH1     9   180.000000     2.510400     1 ; RNUS
    ON6B     CN7B      NR1     CPH2     9     0.000000     1.255200     1 ; RNUS
     CN8     CN7B      NR1     CPH1     9     0.000000     0.836800     4 ; 
     CN8     CN7B      NR1     CPH2     9   180.000000     0.418400     3 ; 
     CN8     CN7B      NR1     CPH2     9     0.000000     1.255200     2 ; 
     CN8     CN7B      NR1     CPH2     9   180.000000     0.000000     1 ; 
    CN7B     CN7B      NR1     CPH1     9     0.000000     0.836800     4 ; RNUS
    CN7B     CN7B      NR1     CPH2     9   180.000000     0.418400     3 ; RNUS
    CN7B     CN7B      NR1     CPH2     9     0.000000     1.255200     2 ; RNUS
    CN7B     CN7B      NR1     CPH2     9   180.000000     0.000000     1 ; RNUS
     HN7     CN7B      NR1     CPH1     9     0.000000     0.000000     3 ; 
     HN7     CN7B      NR1     CPH2     9     0.000000     0.815880     3 ; 
     CN8      CN8     CN7B      NR1     9     0.000000     0.000000     3 ; 
     CN7     CN7B     CN7B      NR1     9     0.000000     0.000000     3 ; RNUS
     CN8      ON6     CN7B      NR1     9     0.000000     0.000000     3 ; 
     HN8      CN8     CN7B      NR1     9     0.000000     0.000000     3 ; 
     HN7     CN7B     CN7B      NR1     9     0.000000     0.000000     3 ; RNUS
     NR1     CN7B     CN7B      ON5     9     0.000000     0.000000     3 ; RNUS
    CN7B      ON6      CN7      CN8     9     0.000000     0.000000     3 ; 25P1
     CN7      ON6     CN7B      NR1     9     0.000000     0.000000     3 ; 
     CN7     ON6B     CN7B      NR1     9     0.000000     0.000000     3 ; RNUS
     NR1     CN7B      CN8      CN7     9     0.000000     0.000000     3 ; 
     CT1      CT2        S      CN8     9   180.000000     1.004160     1 ; PROT expt. MeEtS
     CT1      CT2        S      CN8     9     0.000000     1.548080     3 ; PROT expt. MeEtS
     CT2        S      CN8      CN8     9   180.000000     1.004160     1 ; PROT expt. MeEtS
     CT2        S      CN8      CN8     9     0.000000     1.548080     3 ; PROT expt. MeEtS
     CT2        S      CN8      HN8     9     0.000000     1.171520     3 ; PROT DTN
     HA2      CT2        S      CN8     9     0.000000     1.171520     3 ; PROT DTN

; specific (non-wildcard) dihedral parameters from toppar_c36_jul22/stream/prot/toppar_all36_prot_retinol.str
;      i        j        k        l  func         phi0         kphi  mult
     HE1     CC1A     CC1A      HE1     9   180.000000    21.756800     2 ; 
     CT3     CC1A     CC1A      HE1     9   180.000000    21.756800     2 ; 
     CT3     CC1B     CC1B      HE1     9   180.000000    21.756800     2 ; 
    CC1A     CC1A      CT3      HA3     9   180.000000     1.255200     3 ; Feller, 2008
     HE1     CC1A      CT3      HA3     9     0.000000     1.255200     3 ; 
     HE1     CC1B      CT3      HA3     9     0.000000     1.255200     3 ; 
     CT3     CC1A     CC1A      CT3     9   180.000000    41.840000     2 ; double bond
     CT2     CC1A     CC1A      CT3     9   180.000000    41.840000     2 ; double bond
     CC2     CC1A     CC1B      CC2     9   180.000000     1.673600     1 ; 
     CC2     CC1A     CC1B      CC2     9   180.000000     1.673600     2 ; 
     CC2     CC1A     CC1B      CC2     9     0.000000     5.439200     3 ; 
     CC2     CC1A     CC1B      HE1     9   180.000000     4.184000     2 ; 
     HE1     CC1A     CC1B      CC2     9   180.000000     4.184000     2 ; 
     HE1     CC1A     CC1B     CC1B     9   180.000000     4.184000     2 ; 
     HE2      CC2     CC1A     CC1B     9   180.000000    20.920000     2 ; double bond
     HE2      CC2     CC1B     CC1A     9   180.000000    20.920000     2 ; double bond
     HE1     CC1B     CC1B     CC1A     9   180.000000    21.756800     2 ; double bond
     HE1     CC1B     CC1A      HE1     9   180.000000     0.000000     2 ; 
    CC1A     CC1A     CC1B      CC2     9   180.000000     2.092000     1 ; 
    CC1A     CC1A     CC1B      CC2     9     0.000000     8.368000     2 ; 
    CC1A     CC1A     CC1B      CC2     9     0.000000     4.184000     3 ; 
    CC1A     CC1A     CC1B     CC1B     9   180.000000     2.092000     1 ; 
    CC1A     CC1A     CC1B     CC1B     9     0.000000     8.368000     2 ; 
    CC1A     CC1A     CC1B     CC1B     9     0.000000     4.184000     3 ; 
    CC1A     CC1B     CC1B     CC1A     9   180.000000     2.343040     1 ; double bond
    CC1A     CC1B     CC1B     CC1A     9   180.000000    29.288000     2 ; double bond
    CC1B     CC1A     CC1A     CC1B     9   180.000000     2.343040     1 ; double bond
    CC1B     CC1A     CC1A     CC1B     9   180.000000    29.288000     2 ; double bond
     HE1     CC1A      CC2      HE2     9   180.000000    21.756800     2 ; double bond
     HE1     CC1B      CC2      HE2     9   180.000000    21.756800     2 ; double bond
     HE1     CC1A     CC1A     CC1B     9   180.000000     4.184000     2 ; double bond
    CC1B     CC1B      CT3      HA3     9     0.000000     1.255200     3 ; 
     HE1     CC1B     CC1B      HE1     9   180.000000     0.000000     2 ; 
    CC1A     CC1B     CC1B      CT3     9   180.000000     2.343040     1 ; double bond
    CC1A     CC1B     CC1B      CT3     9   180.000000    29.288000     2 ; double bond
     CC2     CC1A     CC1B     CC1B     9   180.000000     2.510400     1 ; also in DMB1, DMP1, DMP2
     CC2     CC1A     CC1B     CC1B     9   180.000000     2.092000     2 ; comprise values obtained
     CC2     CC1A     CC1B     CC1B     9     0.000000     4.184000     3 ; 
    CC1B     CC1A      CT3      HA3     9     0.000000     1.255200     3 ; Feller, 2008
     CT3     CC1A      CC2      HE2     9   180.000000     4.184000     2 ; 
     CT3     CC1A     CC1B      HE1     9   180.000000     4.184000     2 ; 
     CT3     CC1A     CC1B      CC2     9   180.000000     4.602400     1 ; see DMP1
     CT3     CC1A     CC1B      CC2     9   180.000000     2.928800     2 ; 
     CT3     CC1B      CT3      HA3     9     0.000000     1.255200     3 ; 
     CT3     CC1A     CC1B     CC1B     9   180.000000     4.602400     1 ; see DMP1
     CT3     CC1A     CC1B     CC1B     9   180.000000     2.928800     2 ; 
     CC2     CC1A      CT3      HA3     9     0.000000     1.255200     3 ; 
      CT     CC1A     CC1A      CT2     9   180.000000    41.840000     2 ; double bond
      CT     CC1A     CC1A      CT3     9   180.000000    41.840000     2 ; double bond
    CC1A     CC1A       CT      CT2     9     0.000000     2.092000     2 ; c2-c1-c6=c5
    CC1A     CC1A       CT      CT2     9     0.000000     1.255200     3 ; c2-c1-c6=c5
    CC1A     CC1A       CT      CT3     9     0.000000     2.092000     2 ; c16/c17-c1-c6=c5
    CC1A     CC1A       CT      CT3     9     0.000000     1.673600     3 ; c16/c17-c1-c6=c5
    CC1A     CC1A      CT2      CT2     9     0.000000     2.092000     2 ; c3-c4-c5=c6
    CC1A     CC1A      CT2      CT2     9     0.000000     1.255200     3 ; c3-c4-c5=c6
     CT2      CT2     CC1A      CT3     9     0.000000     0.794960     3 ; c3-c4-c5-c18
     CT2       CT     CC1A      CT3     9     0.000000     1.673600     3 ; c2-c1-c6-c7
     CT3       CT     CC1A      CT3     9     0.000000     1.673600     3 ; c16/c17-c1-c6-c7
    CC1A      CT2      CT2      CT2     9     0.000000     0.794960     3 ; 
     CT2      CT2       CT     CC1A     9     0.000000     0.836800     3 ; 
     CT2      CT2       CT      CT3     9     0.000000     0.836800     3 ; 
     CT3     CC1A      CT2      HA2     9     0.000000     0.794960     3 ; 
    CC1A       CT      CT2      HA2     9     0.000000     0.794960     3 ; 
     CT3       CT      CT2      HA2     9     0.000000     0.794960     3 ; 
    CC1A      CT2      CT2      HA2     9     0.000000     0.794960     3 ; 
     CT2     CC1A      CT3      HA3     9     0.000000     0.669440     3 ; 
      CT     CC1A      CT3      HA3     9     0.000000     0.669440     3 ; 
     CT2       CT      CT3      HA3     9     0.000000     0.669440     3 ; 
    CC1A       CT      CT3      HA3     9     0.000000     0.669440     3 ; 
     CT3       CT      CT3      HA3     9     0.000000     0.669440     3 ; 
      CT     CC1A     CC1B      CC2     9     0.000000     3.765600     1 ; 
      CT     CC1A     CC1B      CC2     9   180.000000     8.786400     2 ; 
      CT     CC1A     CC1B      CC2     9     0.000000     0.920480     3 ; 
      CT     CC1A     CC1B      CC2     9   180.000000     1.046000     5 ; 
      CT     CC1A     CC1B      CC2     9     0.000000     0.418400     6 ; 
      CT     CC1A     CC1B     CC1B     9     0.000000     3.765600     1 ; 
      CT     CC1A     CC1B     CC1B     9   180.000000     8.786400     2 ; 
      CT     CC1A     CC1B     CC1B     9     0.000000     0.920480     3 ; 
      CT     CC1A     CC1B     CC1B     9   180.000000     1.046000     5 ; 
      CT     CC1A     CC1B     CC1B     9     0.000000     0.418400     6 ; 
    CC1B     CC1A       CT      CT2     9     0.000000     1.255200     3 ; 
    CC1B     CC1A       CT      CT3     9     0.000000     1.255200     3 ; 
    CC1B     CC1A     CC1A      CT2     9   180.000000     2.343040     1 ; double bond
    CC1B     CC1A     CC1A      CT2     9   180.000000    29.288000     2 ; double bond
    CC1B     CC1A     CC1A      CT3     9   180.000000     2.343040     1 ; double bond
    CC1B     CC1A     CC1A      CT3     9   180.000000    29.288000     2 ; double bond
      CT     CC1A     CC1B      HE1     9   180.000000     4.184000     2 ; 
    CC1A     CC1A     CC1B      HE1     9   180.000000     4.184000     2 ; 
       O        C      NH1       CA     9   180.000000    10.460000     2 ; 
      HP       CA       CA      NH1     9   180.000000    17.572800     2 ; 
      CA       CA       CA      NH1     9   180.000000    12.970400     2 ; 
       C      NH1       CA       CA     9   180.000000     5.020800     2 ; 
       C      NH1       CA       CA     9   180.000000     4.184000     3 ; 
       H      NH1       CA       CA     9   180.000000     2.092000     2 ; 
      CA      NH1        C      CT3     9   180.000000    10.460000     2 ; 
     CT3     CC1A      CT3      HA3     9     0.000000     1.255200     3 ; 
    CC1B     CC1A     CC1A        C     9   180.000000     2.343040     1 ; double bond
    CC1B     CC1A     CC1A        C     9   180.000000    29.288000     2 ; double bond
       O        C     CC1A     CC1A     9   180.000000     2.928800     1 ; 
       O        C     CC1A     CC1A     9   180.000000     5.020800     2 ; 
       O        C     CC1A     CC1A     9   180.000000     0.418400     3 ; 
       O        C     CC1A     CC1A     9     0.000000     0.836800     4 ; 
     NH1        C     CC1A     CC1A     9     0.000000     2.928800     1 ; 
     NH1        C     CC1A     CC1A     9   180.000000     5.020800     2 ; 
     NH1        C     CC1A     CC1A     9     0.000000     0.418400     3 ; 
     NH1        C     CC1A     CC1A     9     0.000000     0.627600     4 ; 
     HE1     CC1A        C      NH1     9   180.000000     1.255200     3 ; 
     HE1     CC1A        C        O     9   180.000000     1.255200     3 ; 
    CC1A        C      NH1        H     9   180.000000    10.460000     2 ; 
    CC1A        C      NH1      CT3     9     0.000000     6.694400     1 ; 
    CC1A        C      NH1      CT3     9   180.000000    10.460000     2 ; 
    CC1A        C      NH1       CA     9     0.000000     6.694400     1 ; FRET
    CC1A        C      NH1       CA     9   180.000000    10.460000     2 ; FRET
       C     CC1A     CC1A      CT3     9   180.000000     2.343040     1 ; double bond
       C     CC1A     CC1A      CT3     9   180.000000    29.288000     2 ; double bond
     CC2     CC1A      CT2      OH1     9   180.000000     7.949600     1 ; 
     CC2     CC1A      CT2      OH1     9   180.000000     1.673600     2 ; 
     CC2     CC1A      CT2      OH1     9   180.000000     2.510400     3 ; 
    CC1A     CC1A      CT2      OH1     9   180.000000     7.949600     1 ; 
    CC1A     CC1A      CT2      OH1     9   180.000000     1.673600     2 ; 
    CC1A     CC1A      CT2      OH1     9   180.000000     2.510400     3 ; 
    CC1A      CT2      OH1        H     9     0.000000     5.439200     1 ; 
    CC1A      CT2      OH1        H     9     0.000000     2.928800     2 ; 
    CC1A      CT2      OH1        H     9     0.000000     2.092000     3 ; 
     HE1     CC1A      CT2      OH1     9     0.000000     0.836800     3 ; 
     HE1     CC1A      CT2      HA2     9     0.000000     0.836800     3 ; 
     CC2     CC1A      CT2      HA2     9     0.000000     0.125520     3 ; 
    CC1A     CC1A      CT2      HA2     9     0.000000     0.125520     3 ; 
     HE2      CC2     CC1A      CT2     9   180.000000    21.756800     2 ; 
     CC2     CC1A       CD        O     9   180.000000     4.184000     2 ; 
    CC1A     CC1A       CD        O     9   180.000000     4.184000     2 ; 
     CC2     CC1A       CD      HR1     9   180.000000    13.388800     2 ; 
    CC1A     CC1A       CD      HR1     9   180.000000    13.388800     2 ; 
     HE1     CC1A       CD        O     9   180.000000     0.000000     2 ; 
     HE1     CC1A       CD      HR1     9   180.000000     0.000000     2 ; 
     HE2      CC2     CC1A       CD     9   180.000000    13.388800     2 ; 
     CT3     CC1A     CC1A       CD     9   180.000000     2.343040     1 ; double bond
     CT3     CC1A     CC1A       CD     9   180.000000     2.092000     2 ; db
    CC1B     CC1A     CC1A       CD     9   180.000000     2.343040     1 ; db
    CC1B     CC1A     CC1A       CD     9   180.000000    29.288000     2 ; db
     CC2     CC1A       CC       OC     9   180.000000     5.439200     2 ; 
    CC1A     CC1A       CC       OC     9   180.000000     5.439200     2 ; 
     HE2      CC2     CC1A       CC     9   180.000000    17.572800     2 ; 
     HE1     CC1A       CC       OC     9   180.000000     0.000000     2 ; 
    CC1B     CC1A     CC1A       CC     9   180.000000     2.343040     1 ; double bond
    CC1B     CC1A     CC1A       CC     9   180.000000    29.288000     2 ; double bond
      CC     CC1A     CC1A      CT3     9   180.000000     2.343040     1 ; double bond, rtac
      CC     CC1A     CC1A      CT3     9   180.000000    29.288000     2 ; double bond, rtac
     CT3      NS1     CC1B      HE1     9   180.000000    35.564000     2 ; 
     CT3      NS1     CC1B      CT3     9   180.000000    50.208000     2 ; 
     NS1     CC1B      CT3      HA3     9   180.000000     0.418400     3 ; 
    CC1B      NS1      CT3      HA3     9   180.000000     1.464400     3 ; 
     CT3      NS2     CC1B      HR1     9   180.000000    35.564000     2 ; 
     CT3      NS2     CC1B      CT3     9   180.000000    29.288000     2 ; 
     NS2     CC1B      CT3      HA3     9   180.000000     0.627600     3 ; 
     HR1     CC1B      CT3      HA3     9     0.000000     0.627600     3 ; 
    CC1B      NS2      CT3      HA3     9   180.000000     0.627600     3 ; 
     HA3      CT3      NS2       HC     9     0.000000     0.460240     3 ; 
      HC      NS2     CC1B      HR1     9   180.000000    20.920000     2 ; 
      HC      NS2     CC1B      CT3     9   180.000000    20.920000     2 ; 
     CT3      NS2     CC1B     CC1A     9   180.000000    29.288000     2 ; 
      HC      NS2     CC1B     CC1A     9   180.000000    20.920000     2 ; 
     NS2     CC1B     CC1A      HE1     9   180.000000     4.184000     2 ; 
     NS2     CC1B     CC1A      CC2     9     0.000000     2.092000     1 ; opt
     NS2     CC1B     CC1A      CC2     9   180.000000     9.204800     2 ; opt
     NS2     CC1B     CC1A      CC2     9     0.000000     4.602400     3 ; opt
     NS2     CC1B     CC1A      CC2     9     0.000000     2.510400     4 ; opt
     HR1     CC1B     CC1A      HE1     9   180.000000     0.000000     2 ; 
     HR1     CC1B     CC1A      CC2     9   180.000000     4.184000     2 ; 
     CT2      CT2      NS1     CC1B     9     0.000000     0.418400     3 ; 
     CT2      NS1     CC1B     CC1A     9   180.000000    50.208000     2 ; from CT3  NS1  CC1B CT3
     CT2      NS1     CC1B      HE1     9   180.000000    35.564000     2 ; from CT3  NS1  CC1B HE1
     HA2      CT2      NS1     CC1B     9     0.000000     0.418400     3 ; 
     NS1     CC1B     CC1A     CC1A     9     0.000000     2.092000     1 ; from NS2  CC1B CC1A CC2
     NS1     CC1B     CC1A     CC1A     9   180.000000     9.204800     2 ; N=C-C=C dihedral not explicitly optimized
     NS1     CC1B     CC1A     CC1A     9     0.000000     4.602400     3 ; 
     NS1     CC1B     CC1A     CC1A     9     0.000000     2.510400     4 ; 
     NS1     CC1B     CC1A      HE1     9   180.000000     4.184000     2 ; 
     NS2     CC1B     CC1A     CC1A     9     0.000000     2.092000     1 ; from NS2  CC1B CC1A CC2
     NS2     CC1B     CC1A     CC1A     9   180.000000     9.204800     2 ; 
     NS2     CC1B     CC1A     CC1A     9     0.000000     4.602400     3 ; 
     NS2     CC1B     CC1A     CC1A     9     0.000000     2.510400     4 ; 
     HR1     CC1B     CC1A     CC1A     9   180.000000     4.184000     2 ; 
     CT2      CT2      NS2     CC1B     9     0.000000     0.418400     3 ; 
     CT2      NS2     CC1B     CC1A     9   180.000000    29.288000     2 ; 
     CT2      NS2     CC1B      HR1     9   180.000000    35.564000     2 ; 
     HA2      CT2      NS2     CC1B     9     0.000000     0.418400     3 ; 
     CT2      CT2      NS2       HC     9     0.000000     0.418400     3 ; 
     HA2      CT2      NS2       HC     9     0.000000     0.418400     3 ; 

; specific (non-wildcard) dihedral parameters from toppar_c36_jul22/top_all36_prot.rtf
;      i        j        k        l  func         phi0         kphi  mult

; specific (non-wildcard) dihedral parameters from toppar_c36_jul22/toppar_water_ions.str
;      i        j        k        l  func         phi0         kphi  mult
    HPER     OPER     OPER     HPER     9     0.000000     8.451680     2 ; H2O2

; wildcard dihedral parameters from 
;      i        j        k        l  func         phi0         kphi  mult

; wildcard dihedral parameters from toppar_c36_jul22/metals/CHARMM_METAL/par_all22_prot_metals.inp
;      i        j        k        l  func         phi0         kphi  mult
       X      CPT      CPT        X     9   180.000000     0.000000     2 ; ALLOW   ARO

; wildcard dihedral parameters from toppar_c36_jul22/metals/CHARMM_METAL/top_all22_prot_metals.inp
;      i        j        k        l  func         phi0         kphi  mult

; wildcard dihedral parameters from toppar_c36_jul22/par_all35_ethers.prm
;      i        j        k        l  func         phi0         kphi  mult

; wildcard dihedral parameters from toppar_c36_jul22/par_all36_carb.prm
;      i        j        k        l  func         phi0         kphi  mult

; wildcard dihedral parameters from toppar_c36_jul22/par_all36_cgenff.prm
;      i        j        k        l  func         phi0         kphi  mult

; wildcard dihedral parameters from toppar_c36_jul22/par_all36_lipid.prm
;      i        j        k        l  func         phi0         kphi  mult
       X     CTL1      OHL        X     9     0.000000     0.585760     3 ; glycerol
       X     CTL2      OHL        X     9     0.000000     0.585760     3 ; glycerol
       X     CTL3      OHL        X     9     0.000000     0.585760     3 ; glycerol
       X       CL      OSL        X     9   180.000000     8.577200     2 ; methyl acetate
       X     CTL2       CL        X     9   180.000000     0.209200     6 ; methyl acetate
       X     CTL3       CL        X     9   180.000000     0.209200     6 ; methyl acetate
       X       CL      OHL        X     9   180.000000     8.577200     2 ; acetic acid
       X     CTL1      CCL        X     9   180.000000     0.209200     6 ; for POPS
       X      OHL       PL        X     9     0.000000     1.255200     3 ; terminal phosphate
       X     CTL1      OSL        X     9     0.000000     0.000000     3 ; phosphate, new NA, 4/98, adm jr.
       X     CTL2      OSL        X     9     0.000000     0.000000     3 ; phosphate, new NA, 4/98, adm jr.
       X     CTL3      OSL        X     9     0.000000     0.000000     3 ; phosphate, new NA, 4/98, adm jr.
       X     CTL1     OSLP        X     9     0.000000     0.000000     3 ; phosphate, new NA, 4/98, adm jr.
       X     CTL2     OSLP        X     9     0.000000     0.000000     3 ; phosphate, new NA, 4/98, adm jr.
       X     CTL3     OSLP        X     9     0.000000     0.000000     3 ; phosphate, new NA, 4/98, adm jr.
       X     CTL2      NTL        X     9     0.000000     1.087840     3 ; tetramethylammonium
       X     CTL5      NTL        X     9     0.000000     0.962320     3 ; tetramethylammonium
       X     CTL1     NH3L        X     9     0.000000     0.418400     3 ; for POPS
       X     CTL2     NH3L        X     9     0.000000     0.418400     3 ; ethanolamine
       X     CTL1     CTL1        X     9     0.000000     0.836800     3 ; alkane, 3/92
       X     CTL1     CTL2        X     9     0.000000     0.836800     3 ; alkane, 3/92
       X     CTL1     CTL3        X     9     0.000000     0.836800     3 ; alkane, 3/92
       X     CTL2     CTL2        X     9     0.000000     0.794960     3 ; alkane, 4/98, yin and mackerell
       X     CTL2     CTL3        X     9     0.000000     0.669440     3 ; alkane, 4/98, yin and mackerell
       X     CTL3     CTL3        X     9     0.000000     0.638060     3 ; alkane, 4/98, yin and mackerell
       X     CEL1     CEL1        X     9   180.000000     1.882800     1 ; 2-butene, adm jr., 4/04
       X     CEL1     CEL1        X     9   180.000000    35.564000     2 ; 
       X     CEL2     CEL2        X     9   180.000000    20.501600     2 ; ethene, yin,adm jr., 12/95

; wildcard dihedral parameters from toppar_c36_jul22/par_all36_na.prm
;      i        j        k        l  func         phi0         kphi  mult
       X      CN8      ON2        X     9     0.000000    -0.418400     3 ; phosphate ester
       X      CN7      CN8        X     9     0.000000     0.836800     3 ; alkane
       X      CN8      NN6        X     9     0.000000     0.418400     3 ; methylammonium
       X      ON4        P        X     9     0.000000     1.255200     3 ; MP_1, adm jr.
       X      ON4       P2        X     9     0.000000     1.255200     3 ; MP_1, adm jr., adm, 2011 DNA update
       X      CN2      NN3        X     9   180.000000     8.368000     2 ; adm jr. 11/97
       X      CN1      NN3        X     9   180.000000     4.184000     2 ; c22
       X      CN1      NN2        X     9   180.000000     3.765600     2 ; c22
       X     CN1T     NN2B        X     9   180.000000     3.765600     2 ; From X CN1 NN2 X, for thymines
       X      CN1     NN2G        X     9   180.000000     3.765600     2 ; c22
       X      CN1     NN2U        X     9   180.000000     3.765600     2 ; c22
       X     CN1T     NN2U        X     9   180.000000     3.765600     2 ; c22
       X      CN3      NN2        X     9   180.000000     4.184000     2 ; c22
       X      CN3     NN2B        X     9   180.000000     4.184000     2 ; From X CN3 NN2 X, for thymines
       X      CN3      CN3        X     9   180.000000     4.184000     2 ; c22
       X      CN3     CN3T        X     9   180.000000     4.184000     2 ; T, adm jr. 11/97
       X      CN1      CN3        X     9   180.000000     4.184000     2 ; c22
       X      CN1     CN3T        X     9   180.000000     4.184000     2 ; T, adm jr. 11/97
       X      CN2      CN3        X     9   180.000000     3.347200     2 ; c22
       X      CN1     CN5G        X     9   180.000000     4.184000     2 ; adm jr. 11/97
       X      CN2     NN2G        X     9   180.000000     4.184000     2 ; 
       X      CN2      CN5        X     9   180.000000     4.184000     2 ; 
       X      CN4      NN2        X     9   180.000000     6.276000     2 ; 
       X      CN4     NN2B        X     9   180.000000     6.276000     2 ; From X CN4 NN2 X
       X      CN4     NN3A        X     9   180.000000    14.644000     2 ; 
       X      CN4      NN4        X     9   180.000000     8.368000     2 ; A,G
       X      CN5      CN5        X     9   180.000000     0.000000     2 ; 
       X     CN5G      CN5        X     9   180.000000     0.000000     2 ; adm jr. 11/97
       X      CN5      NN2        X     9   180.000000     6.276000     2 ; 
       X      CN5     NN2B        X     9   180.000000     6.276000     2 ; From X CN5 NN2 X
       X      CN5     NN3A        X     9   180.000000     4.184000     2 ; 
       X      CN5     NN3G        X     9   180.000000     4.184000     2 ; adm jr. 11/97
       X      CN5      NN4        X     9   180.000000     4.184000     2 ; 
       X     CN5G      NN4        X     9   180.000000     4.184000     2 ; adm jr. 11/97
       X      CN2     NN3A        X     9   180.000000     4.184000     2 ; 
       X      CN2     NN3G        X     9   180.000000     4.184000     2 ; adm jr. 11/97
       X      CN8      CN8        X     9     0.000000     0.627600     3 ; Alkanes (0.2 to 0.15)
       X      CN8      CN9        X     9     0.000000     0.627600     3 ; Alkanes (0.2 to 0.15)
       X      ON4       P4        X     9     0.000000     1.255200     3 ; from MP_1, adm jr.

; wildcard dihedral parameters from toppar_c36_jul22/par_all36m_prot.prm
;      i        j        k        l  func         phi0         kphi  mult
       X       CS       SS        X     9     0.200000     0.000000     3 ; guess
       X        C      NC2        X     9   180.000000     9.414000     2 ; ALLOW   PEP POL ARO
       X       CD      OH1        X     9   180.000000     8.577200     2 ; ALLOW   PEP POL ARO ALC
       X       CD       OS        X     9   180.000000     8.577200     2 ; ALLOW   PEP POL
       X      CE1      CE1        X     9     0.000000     0.627600     1 ; 
       X      CE1      CE1        X     9   180.000000    35.564000     2 ; 
       X      CE2      CE2        X     9   180.000000    20.501600     2 ; 
       X      CP1        C        X     9   180.000000     0.000000     6 ; ALLOW   POL PEP PRO
       X      CP1       CC        X     9   180.000000     0.000000     6 ; ALLOW   POL PEP
       X      CP1       CD        X     9   180.000000     0.000000     6 ; ALLOW   POL PEP
       X      CP1      CP2        X     9     0.000000     0.585760     3 ; ALLOW PRO
       X      CP2      CP2        X     9     0.000000     0.669440     3 ; ALLOW PRO
       X      CP3      CP2        X     9     0.000000     0.585760     3 ; ALLOW PRO
       X      CT1       CC        X     9   180.000000     0.209200     6 ; ALLOW   POL PEP
       X      CT1       CD        X     9   180.000000     0.000000     6 ; ALLOW   POL PEP
       X      CT1      CT1        X     9     0.000000     0.836800     3 ; ALLOW   ALI
       X      CT1      CT2        X     9     0.000000     0.836800     3 ; ALLOW   ALI
       X      CT1      CT3        X     9     0.000000     0.836800     3 ; ALLOW   ALI
       X      CT1      NH3        X     9     0.000000     0.418400     3 ; ALLOW   ALI POL
       X      CT1      OH1        X     9     0.000000     0.585760     3 ; ALLOW   ALI ALC ARO
       X      CT1       OS        X     9     0.000000    -0.418400     3 ; ALLOW   PEP POL
       X      CT2       CA        X     9     0.000000     0.000000     6 ; ALLOW   ALI ARO
       X      CT2       CC        X     9   180.000000     0.209200     6 ; ALLOW   POL PEP
       X      CT2       CD        X     9   180.000000     0.000000     6 ; ALLOW   POL PEP
       X      CT2      CT2        X     9     0.000000     0.794960     3 ; ALLOW   ALI
       X      CT2      CT3        X     9     0.000000     0.669440     3 ; ALLOW   ALI
       X      CT2      NC2        X     9   180.000000     0.000000     6 ; ALLOW   ALI POL
       X      CT2      NH3        X     9     0.000000     0.418400     3 ; ALLOW   ALI POL
       X      CT2      OH1        X     9     0.000000     0.585760     3 ; ALLOW   ALI ALC ARO
       X      CT2       OS        X     9     0.000000    -0.418400     3 ; ALLOW   PEP POL
       X      CT3       CA        X     9     0.000000     0.000000     6 ; ALLOW   ALI ARO
       X      CT3       CC        X     9   180.000000     0.209200     6 ; ALLOW   POL PEP
       X      CT3       CD        X     9   180.000000     0.000000     6 ; ALLOW   POL PEP
       X      CT3      CT3        X     9     0.000000     0.638060     3 ; ALLOW   ALI
       X      CT3      NC2        X     9   180.000000     0.000000     6 ; ALLOW   ALI POL
       X      CT3      NH2        X     9     0.000000     0.460240     3 ; ALLOW   POL
       X      CT3      NH3        X     9     0.000000     0.376560     3 ; ALLOW   ALI POL
       X      CT3      OH1        X     9     0.000000     0.585760     3 ; ALLOW   ALI ALC ARO
       X      CT3       OS        X     9     0.000000    -0.418400     3 ; ALLOW   PEP POL
       X     CT2A       CC        X     9   180.000000     0.209200     6 ; 

; wildcard dihedral parameters from toppar_c36_jul22/silicates/toppar/par_silicates.inp
;      i        j        k        l  func         phi0         kphi  mult

; wildcard dihedral parameters from toppar_c36_jul22/silicates/toppar/top_silicates.inp
;      i        j        k        l  func         phi0         kphi  mult

; wildcard dihedral parameters from toppar_c36_jul22/stream/carb/toppar_all36_carb_glycolipid.str
;      i        j        k        l  func         phi0         kphi  mult

; wildcard dihedral parameters from toppar_c36_jul22/stream/carb/toppar_all36_carb_glycopeptide.str
;      i        j        k        l  func         phi0         kphi  mult

; wildcard dihedral parameters from toppar_c36_jul22/stream/carb/toppar_all36_carb_imlab.str
;      i        j        k        l  func         phi0         kphi  mult

; wildcard dihedral parameters from toppar_c36_jul22/stream/carb/toppar_all36_carb_lignin.str
;      i        j        k        l  func         phi0         kphi  mult

; wildcard dihedral parameters from toppar_c36_jul22/stream/lipid/toppar_all36_lipid_bacterial.str
;      i        j        k        l  func         phi0         kphi  mult
       X   CG3RC1   CG3RC1        X     9   180.000000     1.882800     1 ; 2-butene, adm jr., 4/04 from C36 GenFF
       X   CG3RC1   CG3RC1        X     9   180.000000    35.564000     2 ; from C36 GenFF

; wildcard dihedral parameters from toppar_c36_jul22/stream/lipid/toppar_all36_lipid_cholesterol.str
;      i        j        k        l  func         phi0         kphi  mult
       X     CRL1      OHL        X     9     0.000000     0.585760     3 ; glycerol
       X     CRL2      OHL        X     9     0.000000     0.585760     3 ; glycerol
       X     CRL1     CTL1        X     9     0.000000     0.836800     3 ; alkane, 3/92
       X     CRL1     CRL1        X     9     0.000000     0.836800     3 ; alkane, 3/92
       X     CRL1     CTL2        X     9     0.000000     0.836800     3 ; alkane, 3/92
       X     CRL1     CRL2        X     9     0.000000     0.836800     3 ; alkane, 3/92
       X     CTL1     CRL2        X     9     0.000000     0.836800     3 ; alkane, 3/92
       X     CRL1     CTL3        X     9     0.000000     0.836800     3 ; alkane, 3/92
       X     CTL2     CRL2        X     9     0.000000     0.794960     3 ; alkane, 4/98, yin and mackerell
       X     CRL2     CRL2        X     9     0.000000     0.794960     3 ; alkane, 4/98, yin and mackerell
       X     CRL2     CTL3        X     9     0.000000     0.669440     3 ; alkane, 4/98, yin and mackerell
       X     CRL1     NH3L        X     9     0.000000     0.418400     3 ; for POPS
       X     CEL1     CTL1        X     9   180.000000     0.000000     3 ; from br12
       X     CEL1     CRL1        X     9   180.000000     0.000000     3 ; from br12

; wildcard dihedral parameters from toppar_c36_jul22/stream/lipid/toppar_all36_lipid_detergent.str
;      i        j        k        l  func         phi0         kphi  mult

; wildcard dihedral parameters from toppar_c36_jul22/stream/lipid/toppar_all36_lipid_ether.str
;      i        j        k        l  func         phi0         kphi  mult

; wildcard dihedral parameters from toppar_c36_jul22/stream/lipid/toppar_all36_lipid_lps.str
;      i        j        k        l  func         phi0         kphi  mult

; wildcard dihedral parameters from toppar_c36_jul22/stream/lipid/toppar_all36_lipid_miscellaneous.str
;      i        j        k        l  func         phi0         kphi  mult

; wildcard dihedral parameters from toppar_c36_jul22/stream/lipid/toppar_all36_lipid_prot.str
;      i        j        k        l  func         phi0         kphi  mult

; wildcard dihedral parameters from toppar_c36_jul22/stream/lipid/toppar_all36_lipid_sphingo.str
;      i        j        k        l  func         phi0         kphi  mult
       X     CTL1     CTO1        X     9     0.000000     0.836800     3 ; alkane, 3/92
       X     CTO1     CTL3        X     9     0.000000     0.836800     3 ; alkane, 3/92
       X     CTL1     CTO2        X     9     0.000000     0.836800     3 ; alkane, 3/92; X CTL1 CTL2 X
       X     CTO2      OHL        X     9     0.000000     0.585760     3 ; glycerol; X CTL2 OHL X

; wildcard dihedral parameters from toppar_c36_jul22/stream/misc/toppar_ions_won.str
;      i        j        k        l  func         phi0         kphi  mult

; wildcard dihedral parameters from toppar_c36_jul22/stream/na/toppar_all36_na_modifications.str
;      i        j        k        l  func         phi0         kphi  mult
       X      CN4     NN3I        X     9   180.000000    14.644000     2 ; 
       X      CN5     NN3I        X     9   180.000000     4.184000     2 ; 

; wildcard dihedral parameters from toppar_c36_jul22/stream/na/toppar_all36_na_nad_ppi.str
;      i        j        k        l  func         phi0         kphi  mult
       X      CN3     CN3A        X     9   180.000000     4.184000     2 ; nad/ppi, jjp1/adm jr. 7/95
       X      CN3     CN3B        X     9   180.000000     4.184000     2 ; nad/ppi, jjp1/adm jr. 7/95
       X      CN3      CN8        X     9   180.000000     4.184000     3 ; nad/ppi, jjp1/adm jr. 7/95
       X      NN1     CN1A        X     9   180.000000    10.460000     2 ; nad/ppi, jjp1/adm jr. 7/95
       X      NN2     CN3B        X     9   180.000000     4.184000     2 ; nad/ppi, jjp1/adm jr. 7/95
       X      CN3     CN3C        X     9   180.000000     0.418400     2 ; nad/ppi, jjp1/adm jr. 7/95
       X      NN2     CN3C        X     9   180.000000     0.418400     2 ; nad/ppi, jjp1/adm jr. 7/95

; wildcard dihedral parameters from toppar_c36_jul22/stream/prot/toppar_all36_prot_arg0.str
;      i        j        k        l  func         phi0         kphi  mult

; wildcard dihedral parameters from toppar_c36_jul22/stream/prot/toppar_all36_prot_c36m_d_aminoacids.str
;      i        j        k        l  func         phi0         kphi  mult
       X     CTD1      CT2        X     9     0.000000     0.836800     3 ; ALLOW   ALI
       X     CTD1      CT3        X     9     0.000000     0.836800     3 ; ALLOW   ALI
       X     CTD1       CD        X     9   180.000000     0.000000     6 ; ALLOW   POL PEP
       X     CTD1       CC        X     9   180.000000     0.209200     6 ; ALLOW   POL PEP
       X     CPD1        C        X     9   180.000000     0.000000     6 ; 
       X     CPD1       CC        X     9   180.000000     0.000000     6 ; 
       X     CPD1       CD        X     9   180.000000     0.000000     6 ; 
       X     CPD1      CP2        X     9     0.000000     0.585760     3 ; 

; wildcard dihedral parameters from toppar_c36_jul22/stream/prot/toppar_all36_prot_fluoro_alkanes.str
;      i        j        k        l  func         phi0         kphi  mult
       X      CT3      CF1        X     9     0.000000     0.774040     3 ; 
       X      CT3      CF2        X     9     0.000000     0.744752     3 ; 
       X      CT3      CF3        X     9     0.000000     0.661072     3 ; 

; wildcard dihedral parameters from toppar_c36_jul22/stream/prot/toppar_all36_prot_heme.str
;      i        j        k        l  func         phi0         kphi  mult
       X       FE       SS        X     9     0.000000     0.000000     4 ; guess
       X      CPA      CPB        X     9     0.000000     0.000000     2 ; ALLOW HEM
       X      CPA      CPM        X     9     0.000000     0.000000     2 ; ALLOW HEM
       X      CPB      CE1        X     9   180.000000    12.552000     2 ; ALLOW HEM
       X      CPB      CPB        X     9     0.000000     0.000000     2 ; ALLOW HEM
       X      CPB      CT2        X     9     0.000000     0.000000     6 ; ALLOW HEM
       X      CPB      CT3        X     9     0.000000     0.000000     6 ; ALLOW HEM
       X       FE       CM        X     9     0.000000     0.209200     4 ; ALLOW HEM
       X       FE      NPH        X     9     0.000000     0.000000     2 ; ALLOW HEM
       X       FE      NR2        X     9     0.000000     0.209200     4 ; ALLOW HEM
       X       FE       OM        X     9     0.000000     0.000000     4 ; ALLOW HEM
       X      NPH      CPA        X     9     0.000000     0.000000     2 ; ALLOW HEM

; wildcard dihedral parameters from toppar_c36_jul22/stream/prot/toppar_all36_prot_model.str
;      i        j        k        l  func         phi0         kphi  mult

; wildcard dihedral parameters from toppar_c36_jul22/stream/prot/toppar_all36_prot_modify_res.str
;      i        j        k        l  func         phi0         kphi  mult
       X      CT1       CS        X     9     0.000000     0.836800     3 ; From X    CT1  CT2  X

; wildcard dihedral parameters from toppar_c36_jul22/stream/prot/toppar_all36_prot_na_combined.str
;      i        j        k        l  func         phi0         kphi  mult

; wildcard dihedral parameters from toppar_c36_jul22/stream/prot/toppar_all36_prot_retinol.str
;      i        j        k        l  func         phi0         kphi  mult

; wildcard dihedral parameters from toppar_c36_jul22/top_all36_prot.rtf
;      i        j        k        l  func         phi0         kphi  mult

; wildcard dihedral parameters from toppar_c36_jul22/toppar_water_ions.str
;      i        j        k        l  func         phi0         kphi  mult


; Include dihedral type definitions missing from upstream CHARMM FF.
#include "ffmissingdihedrals.itp"


[ dihedraltypes ]

; specific (non-wildcard) improper dihedral parameters from 
;      i        j        k        l  func         phi0         kphi

; specific (non-wildcard) improper dihedral parameters from toppar_c36_jul22/metals/CHARMM_METAL/par_all22_prot_metals.inp
;      i        j        k        l  func         phi0         kphi
      NY       CA       CY      CPT     2     0.000000   836.800000  ; ALLOW ARO
       O       HA      NH2       CC     2     0.000000   376.560000  ; ALLOW PEP POL PRO
       O      NH2       HA       CC     2     0.000000   376.560000  ; ALLOW PEP POL

; specific (non-wildcard) improper dihedral parameters from toppar_c36_jul22/metals/CHARMM_METAL/top_all22_prot_metals.inp
;      i        j        k        l  func         phi0         kphi

; specific (non-wildcard) improper dihedral parameters from toppar_c36_jul22/par_all35_ethers.prm
;      i        j        k        l  func         phi0         kphi

; specific (non-wildcard) improper dihedral parameters from toppar_c36_jul22/par_all36_carb.prm
;      i        j        k        l  func         phi0         kphi
   CC2O1    CC331    NC2D1    OC2D1     2     0.000000  1004.160000  ; par22 O    X    X    C
   NC2D1    CC2O1   CC3161     HCP1     2     0.000000   167.360000  ; par22 NH1  X    X    H
   NC2D1    CC2O1   CC3062     HCP1     2     0.000000   167.360000  ; par22 NH1  X    X    H
   CC2O2    CC311    OC2D2    OC2D2     2     0.000000   803.328000  ; par22 OC   X    X    CC
   CC2O2    CC301    OC2D2    OC2D2     2     0.000000   803.328000  ; par22 OC   X    X    CC
   CC2O2   CC3163    OC2D2    OC2D2     2     0.000000   803.328000  ; par22 OC   X    X    CC
   CC2O2   CC3062    OC2D2    OC2D2     2     0.000000   803.328000  ; par22 OC   X    X    CC
   CC2O2    CC321    OC2D2    OC2D2     2     0.000000   803.328000  ; par22 OC   X    X    CC
   NC2D1    CC2O1    CC331     HCP1     2     0.000000   167.360000  ; par22 NH1  X    X    H
   NC2D1    CC2O1    CC311     HCP1     2     0.000000   167.360000  ; par22 NH1  X    X    H
   CC2O4    CC331    OC2D4     HCR1     2     0.000000   418.400000  ; acetaldehyde adm
   CC2O4    CC312    OC2D4     HCR1     2     0.000000   418.400000  ; acetaldehyde adm
   OC2D3    CC331    CC331    CC2O3     2     0.000000   585.760000  ; ketone, acetone
   OC2D3    CC312    CC322    CC2O3     2     0.000000   585.760000  ; "

; specific (non-wildcard) improper dihedral parameters from toppar_c36_jul22/par_all36_cgenff.prm
;      i        j        k        l  func         phi0         kphi
   CG2D1    CG331    NG2D1     HGA4     2     0.000000   209.200000  ; SCH1, xxwy
   CG2D1    CG331    NG2P1    HGR52     2     0.000000   150.624000  ; SCH2, xxwy
  CG2D1O   CG2DC1    CG2O1    NG2S1     2     0.000000   236.835320  ; DYAP, by ac_aa
  CG2D1O    CG331    NG2D1    SG311     2     0.000000   157.339320  ; FZN, by ac_aa
  CG2D1O    CG2D1    NG301     HGA4     2     0.000000   443.504000  ; NA NICH, adm jr. WILDCARD
  CG2D1O    CG2D1    NG311     HGA4     2     0.000000   443.504000  ; NA NICH, adm jr. WILDCARD
  CG2D1O    CG2D2    NG321     HGA4     2     0.000000   443.504000  ; AMET, ethenamine, from NA NICH WILDCARD; pram
  CG2D1O    CG2D2    OG301     HGA4     2     0.000000   192.464000  ; MOET, Methoxyethene, xxwy
  CG2D1O   CG2DC1    NG2D1     HGA4     2     0.000000   251.040000  ; ABSB, amide base, sr
  CG2D1O   CG2DC1    NG301     HGA4     2     0.000000   443.504000  ; NA NICH, adm jr. WILDCARD
  CG2D1O   CG2DC1    NG311     HGA4     2     0.000000   443.504000  ; NA NICH, adm jr. WILDCARD
  CG2D1O   CG2DC1    OG301     HGA4     2     0.000000    83.680000  ; MOBU, 1-Methoxy-1,3-butadiene, xxwy
  CG2D2O    CG2D1    NG301     HGA4     2     0.000000   443.504000  ; NA NICH, adm jr. WILDCARD
  CG2D2O    CG2D1    NG311     HGA4     2     0.000000   443.504000  ; NA NICH, adm jr. WILDCARD
  CG2D2O    CG2D2    NG321     HGA4     2     0.000000   443.504000  ; AMET, ethenamine, from NA NICH WILDCARD; pram
  CG2D2O    CG2D2    OG301     HGA4     2     0.000000   192.464000  ; MOET, Methoxyethene, xxwy
  CG2D2O   CG2DC2    NG301     HGA4     2     0.000000   443.504000  ; NA NICH, adm jr. WILDCARD
  CG2D2O   CG2DC2    NG311     HGA4     2     0.000000   443.504000  ; NA NICH, adm jr. WILDCARD
  CG2D2O   CG2DC2    OG301     HGA4     2     0.000000    83.680000  ; MOBU, 1-Methoxy-1,3-butadiene, xxwy
  CG2DC1    CG2O3    CG331    NG2D1     2     0.000000   133.636123  ; MCL, by ac_aa
  CG2DC1   CG2R53    CG321    NG2D1     2     0.000000   538.141896  ; from CG2DC1 CG2R53 CG331 NG2D1, CRQ
  CG2DC1   CG2R53    CG331    NG2D1     2     0.000000   538.141896  ; NRQ, by ac_aa
  CG2DC1    CG321    CG331    NG2D1     2     0.000000  1004.227781  ; NRQ, by ac_aa1
  CG2DC1    CG331    CG331    NG2D1     2     0.000000  1004.227781  ; from CG2DC1 CG321 CG331 NG2D1, sm035
  CG2DC1   CG2R61    NG2D1     HGA4     2     0.000000   251.040000  ; HDZ1B, xxwy
  CG2DC1   CG2DC2    NG2P1    HGR52     2     0.000000   108.784000  ; SCH3, xxwy
  CG2DC2   CG2DC1    CG2O5    NG2D1     2     0.000000     8.368000  ; TQQ, by ac_aa
  CG2DC2   CG2R61    NG2D1     HGA4     2     0.000000   251.040000  ; HDZ1B, xxwy
  CG2DC2   CG2DC1    NG2P1    HGR52     2     0.000000   108.784000  ; SCH3, xxwy
   CG2N1    NG321    NG321    NG2D1     2     0.000000   711.280000  ; MGU1, methylguanidine
   CG2N1    NG2P1    NG2P1    NG2P1     2     0.000000   334.720000  ; PROT 5.75->40.0 GUANIDINIUM (KK)
   CG2N1    NG2D1    NG311    NG321     2     0.000000   711.280000  ; MGU2, methylguanidine2
   CG2N2    NG2P1    NG2P1   CG2R51     2     0.000000   217.568000  ; RCG, yxu, RNA
   CG2N2    NG2P1    NG2P1   CG2R61     2     0.000000   251.040000  ; BAMI, benzamidinium; from AMDN, amidinium; pram
   CG2N2    NG2P1    NG2P1    CG331     2     0.000000   251.040000  ; AMDN, amidinium, sz (verified by pram)
   CG2N2    NG2D1    NG2D1    SG311     2     0.000000   251.040000  ; ABSB, amide base, sr
   CG2N2    NG2D1    NG321    SG311     2     0.000000   267.776000  ; MT2A, fylin
   CG2O1   CG2D1O    NG2S1    OG2D1     2     0.000000  1004.160000  ; from CG2O1 CG2DC1 NG2S1 OG2D1, PENALTY= 4 DYA
   CG2O1   CG2DC1    NG2D1    OG2D1     2     0.000000  1004.160000  ; ABSB, amide base, sr
   CG2O1   CG2DC1    NG2S1    OG2D1     2     0.000000  1004.160000  ; PROT NMA Vibrational Modes (LK) WILDCARD
   CG2O1   CG2DC1    NG2S2    OG2D1     2     0.000000  1004.160000  ; PROT NMA Vibrational Modes (LK) WILDCARD
   CG2O1   CG2DC2    NG2S1    OG2D1     2     0.000000  1004.160000  ; PROT NMA Vibrational Modes (LK) WILDCARD
   CG2O1   CG2DC2    NG2S2    OG2D1     2     0.000000  1004.160000  ; PROT NMA Vibrational Modes (LK) WILDCARD
   CG2O1   CG2R51    NG2S1    OG2D1     2     0.000000   585.760000  ; INCA model for D3R, xxwy
   CG2O1   CG2R61    NG2D1    OG2D1     2     0.000000  1004.160000  ; ABBM, amide base, sr
   CG2O1   CG2R61    NG2S1    OG2D1     2     0.000000  1004.160000  ; PROT NMA Vibrational Modes (LK) WILDCARD
   CG2O1   CG2R61    NG2S2    OG2D1     2     0.000000  1004.160000  ; PROT NMA Vibrational Modes (LK) WILDCARD
   CG2O1   CG2R62    NG2S2    OG2D1     2     0.000000  1004.160000  ; PROT NMA Vibrational Modes (LK) WILDCARD
   CG2O1    CG311    NG2D1    OG2D1     2     0.000000   368.208736  ; XYG, by ac_aa
   CG2O1    CG311    NG2S0    OG2D1     2     0.000000  1004.160000  ; PROT NMA Vibrational Modes (LK) WILDCARD
   CG2O1    CG311    NG2S1    OG2D1     2     0.000000  1004.160000  ; PROT NMA Vibrational Modes (LK) WILDCARD
   CG2O1    CG311    NG2S2    OG2D1     2     0.000000  1004.160000  ; PROT NMA Vibrational Modes (LK) WILDCARD
   CG2O1    CG311    NG311    OG2D1     2     0.000000  1004.160000  ; AMS1, xxwy, from PROT NMA Vibrational Modes (LK) WILDCARD
   CG2O1    CG314    NG2S2    OG2D1     2     0.000000  1004.160000  ; from CG2O1 CG311 NG2S2 OG2D1, PENALTY= 0.1 DDE DDEP
   CG2O1    CG321    NG2S0    OG2D1     2     0.000000  1004.160000  ; PROT NMA Vibrational Modes (LK) WILDCARD
   CG2O1    CG321    NG2S1    OG2D1     2     0.000000  1004.160000  ; PROT NMA Vibrational Modes (LK) WILDCARD
   CG2O1    CG321    NG2S2    OG2D1     2     0.000000  1004.160000  ; PROT NMA Vibrational Modes (LK) WILDCARD
   CG2O1    CG331    NG2D1    OG2D1     2     0.000000   474.044690  ; NRQ, by ac_aa
   CG2O1    CG331    NG2S0    OG2D1     2     0.000000   594.128000  ; DMA, Dimethylacetamide, xxwy
   CG2O1    CG331    NG2S1    OG2D1     2     0.000000  1004.160000  ; PROT NMA Vibrational Modes (LK) WILDCARD
   CG2O1    CG331    NG2S2    OG2D1     2     0.000000  1004.160000  ; PROT NMA Vibrational Modes (LK) WILDCARD
   CG2O1   CG3C50    NG2S1    OG2D1     2     0.000000  1004.160000  ; from CG2O1 CG3C51 NG2S1 OG2D1, penalty= 0.6, sm239
   CG2O1   CG3C51    NG2S0    OG2D1     2     0.000000  1004.160000  ; PROT NMA Vibrational Modes (LK) WILDCARD
   CG2O1   CG3C51    NG2S1    OG2D1     2     0.000000  1004.160000  ; PROT NMA Vibrational Modes (LK) WILDCARD
   CG2O1   CG3C51    NG2S2    OG2D1     2     0.000000  1004.160000  ; PROT NMA Vibrational Modes (LK) WILDCARD
   CG2O1   CG3C53    NG2S0    OG2D1     2     0.000000  1004.160000  ; PROT NMA Vibrational Modes (LK) WILDCARD
   CG2O1   CG3C53    NG2S1    OG2D1     2     0.000000  1004.160000  ; PROT NMA Vibrational Modes (LK) WILDCARD
   CG2O1   CG3C53    NG2S2    OG2D1     2     0.000000  1004.160000  ; PROT NMA Vibrational Modes (LK) WILDCARD
   CG2O1    CG321    NG2S1    SG2D1     2     0.000000   555.466166  ; GL3, by ac_aa
   CG2O1    NG2S0    OG2D1    HGR52     2     0.000000   418.400000  ; DMF, Dimethylformamide, xxwy
   CG2O1    NG2S1    OG2D1    HGR52     2     0.000000   552.288000  ; amba, from CG2O1 NG2S2 OG2D1 HGR52, yxu, RNA
   CG2O1    NG2S2    OG2D1    HGR52     2     0.000000   552.288000  ; FORM, formamide, xxwy
   CG2O2   CG2R61    OG2D1    OG302     2     0.000000   602.496000  ; MBOA, methyl benzoate; MOLVIB looks good; jal
   CG2O2    CG311    OG2D1    OG302     2     0.000000   518.816000  ; PROT & LIPID WILDCARD; from MAS, methyl acetate; xxwy
   CG2O2    CG321    OG2D1    OG302     2     0.000000   518.816000  ; PROT & LIPID WILDCARD; from MAS, methyl acetate; xxwy
   CG2O2    CG331    OG2D1    OG302     2     0.000000   518.816000  ; MAS, methyl acetate, xxwy
   CG2O2    CG321    OG2D1    OG303     2     0.000000   518.816000  ; from CG2O2 CG321 OG2D1 OG302, PENALTY= 5.5 PHD PHDP
   CG2O2   CG2DC1    OG2D1    OG311     2     0.000000   451.748990  ; DYAP, by ac_aa
   CG2O2   CG2R61    OG2D1    OG311     2     0.000000   443.504000  ; ZOIC, benzoic acid; MOLVIB 1% low (55 would be spot on); jal
   CG2O2    CG311    OG2D1    OG311     2     0.000000   543.920000  ; PROT & LIPID WILDCARD; ACEH, acetic acid; xxwy
   CG2O2    CG321    OG2D1    OG311     2     0.000000   543.920000  ; PROT & LIPID WILDCARD; ACEH, acetic acid; xxwy
   CG2O2    CG331    OG2D1    OG311     2     0.000000   543.920000  ; ACEH, acetic acid, xxwy
   CG2O2   CG2R61    OG2D1    SG311     2     0.000000   517.888826  ; JJJ, by ac_aa
   CG2O2    CG321    OG2D1    SG311     2     0.000000   554.749029  ; MCS, by ac_aa and asbb, PC, 2020
   CG2O2    CG331    OG2D1    SG311     2     0.000000   408.057989  ; CYG, by ac_aa
   CG2O2    OG2D1    OG311    HGR52     2     0.000000   627.600000  ; FORH, formic acid, xxwy
   CG2O3    OG2D2    OG2D2   CG2DC1     2     0.000000   803.328000  ; PROT 90.0->96.0 acetate, single impr (KK) WILDCARD
   CG2O3    OG2D2    OG2D2   CG2DC2     2     0.000000   803.328000  ; PROT 90.0->96.0 acetate, single impr (KK) WILDCARD
   CG2O3    OG2D2    OG2D2    CG2O5     2     0.000000   803.328000  ; PROT 90.0->96.0 acetate, single impr (KK) WILDCARD
   CG2O3    OG2D2    OG2D2   CG2R61     2     0.000000   803.328000  ; PROT 90.0->96.0 acetate, single impr (KK) WILDCARD
   CG2O3    OG2D2    OG2D2    CG301     2     0.000000   803.328000  ; PROT 90.0->96.0 acetate, single impr (KK) WILDCARD
   CG2O3    OG2D2    OG2D2    CG311     2     0.000000   803.328000  ; PROT 90.0->96.0 acetate, single impr (KK) correct conversion from wildcard CC X X CT1 which itself may or may not be correct
   CG2O3    OG2D2    OG2D2    CG314     2     0.000000   803.328000  ; PROT 90.0->96.0 acetate, single impr (KK) WILDCARD
   CG2O3    OG2D2    OG2D2    CG321     2     0.000000   803.328000  ; PROT 90.0->96.0 acetate, single impr (KK) correct conversion from wildcard CC X X CT2 which itself may or may not be correct
   CG2O3    OG2D2    OG2D2    CG322     2     0.000000   803.328000  ; from CG2O3 OG2D2 OG2D2 CG321, PENALTY= 5.5 FGA4
   CG2O3    OG2D2    OG2D2    CG324     2     0.000000   803.328000  ; 5DU, yxu, RNA
   CG2O3    OG2D2    OG2D2    CG331     2     0.000000   803.328000  ; PROT 90.0->96.0 acetate, single impr (KK) correct conversion from wildcard CC X X CT3 which itself may or may not be correct
   CG2O3    OG2D2    OG2D2    NG2S1     2     0.000000   461.029102  ; KCX, by ac_aa
   CG2O3    OG2D2    OG2D2    HGR52     2     0.000000   560.656000  ; FORA, formate, sz
   CG2O4   CG3C41   CG3C41    OG2D3     2     0.000000   167.360000  ; 3OXT, ozyo
   CG2O4   CG3C41    OG2D1   OG3C51     2     0.000000   502.080000  ; 2oxt, ozyo, 04/19
   CG2O4   CG2DC1    OG2D1    HGR52     2     0.000000   117.152000  ; RETINOL RTAL unmodified
   CG2O4   CG2DC2    OG2D1    HGR52     2     0.000000   117.152000  ; RETINOL RTAL unmodified
   CG2O4   CG2R61    OG2D1    HGR52     2     0.000000   443.504000  ; ALDEHYDE benzaldehyde unmodified
   CG2O4   CG2R62    OG2D1    HGR52     2     0.000000   443.504000  ; 5FC, yxu, RNA
   CG2O4    CG311    OG2D1    HGR52     2     0.000000   418.400000  ; amba, from CG2O4 CG321 OG2D1 HGR52, yxu, RNA
   CG2O4    CG321    OG2D1    HGR52     2     0.000000   418.400000  ; PALD from acetaldehyde adm 11/08
   CG2O4    CG331    OG2D1    HGR52     2     0.000000   418.400000  ; AALD acetaldehyde adm 11/08
   CG2O5   CG2D1O   CG2DC1    OG2D3     2     0.000000   414.360766  ; TPQ, by ac_aa
   CG2O5   CG2DC1   CG2DC1    OG2D3     2     0.000000   341.872130  ; TPQ, by ac_aa
   CG2O5   CG2DC1    CG2O5    OG2D3     2     0.000000   602.496000  ; TRQ, by ac_aa
   CG2O5   CG2DC1    CG331    OG2D3     2     0.000000   736.384000  ; BEON, butenone, kevo
   CG2O5   CG2DC2   CG2DC2    OG2D3     2     0.000000   731.085382  ; CR8D, by ac_aa
   CG2O5   CG2DC2   CG2R51    OG2D3     2     0.000000   574.623029  ; TQQ, by ac_aa
   CG2O5   CG2DC2    CG331    OG2D3     2     0.000000   736.384000  ; BEON, butenone, kevo
   CG2O5    CG2O3   CG2R61    OG2D3     2     0.000000   602.496000  ; BIPHENYL re-initialized by kevo from PHEK, phenyl ethyl ketone, mcs
   CG2O5    CG2O3    CG321    OG2D3     2     0.000000   736.384000  ; from CG2O5 CG2DC1 CG331 OG2D3, PENALTY= 9.6 26P
   CG2O5    CG2O5   CG2R51    OG2D3     2     0.000000   602.496000  ; TRQ, by ac_aa
   CG2O5   CG2R61   CG2R61    OG2D3     2     0.000000   778.554536  ; PBF, by ac_aa
   CG2O5   CG2R61    CG311    OG2D3     2     0.000000   602.496000  ; BIPHENYL re-initialized by kevo from PHEK, phenyl ethyl ketone; mcs
   CG2O5   CG2R61    CG321    OG2D3     2     0.000000   602.496000  ; PHEK, phenyl ethyl ketone; mcs
   CG2O5   CG2R61    CG331    OG2D3     2     0.000000   502.080000  ; 3ACP, 3-acetylpyridine; PHMK, phenyl methyl ketone; mcs
   CG2O5    CG321    CG321    OG2D3     2     0.000000   585.760000  ; CHON, cyclohexanone; from ACO, acetone; yapol
   CG2O5    CG321    CG331    OG2D3     2     0.000000   585.760000  ; BTON, butanone; from ACO, acetone; yapol
   CG2O5    CG331    CG331    OG2D3     2     0.000000   585.760000  ; ketone, acetone adm 11/08
   CG2O6    NG2D1    NG2S1    OG2D1     2     0.000000   820.064000  ; flavin
   CG2O6   NG2R51    NG2S1    OG2D1     2     0.000000   502.080000  ; TICA model for D3R, xxwy
   CG2O6    NG2S0    NG2S1    OG2D1     2     0.000000   723.832000  ; H2U, aa, RNA
   CG2O6    NG2S1    NG2S1    OG2D1     2     0.000000   669.440000  ; H2U, yxu, RNA
   CG2O6    NG2S1    NG2S2    OG2D1     2     0.000000   669.440000  ; from CG2O6 NG2S2 NG2S2 OG2D1, PENALTY= 1 CIR
   CG2O6    NG2S2    NG2S2    OG2D1     2     0.000000   669.440000  ; UREA, Urea
   CG2O6    OG302    OG302    OG2D1     2     0.000000  1213.360000  ; DMCA, dimethyl carbonate, xxwy
   CG2O6    OG2D2    OG2D2    OG2D2     2     0.000000   895.376000  ; PROTMOD carbonate
   CG2O6    NG2S0    OG2D1    OG302     2     0.000000   518.816000  ; from CG2O6 NG2S1 OG2D1 OG302, penalty= 1 BXT
   CG2O6    NG2S1    OG2D1    OG302     2     0.000000   518.816000  ; DMCB, dimehtyl carbamate, xxwy
   CG2O6    OG2D2    OG2D2    OG311     2     0.000000   711.280000  ; CO31, bicarbonate, xxwy
   CG2O6    NG2S1    NG2S2    SG2D1     2     0.000000   696.199190  ; THIC, by ac_aa
   CG2O6    SG311    SG311    SG2D1     2     0.000000   669.440000  ; DMTT, dimethyl trithiocarbonate, kevo
   CG2O6    NG2S2    OG2D1    SG311     2     0.000000   378.849485  ; QCS, by ac_aa
  CG2R53    CG311   NG2R50   NG2R51     2     0.000000     8.368000  ; MDO, by ac_aa, canonical ordering
  CG2R53   CG251O   NG2R51    OG2D1     2     0.000000   753.120000  ; from CG2R53 CG25C1 NG2R51 OG2D1, PENALTY= 0.5 PIA SWG CR2 CRF CRQ DYG MDO NRQ
  CG2R53   CG251O   NG2R53    OG2D1     2     0.000000   753.120000  ; MRDN, methylidene rhodanine, kevo & xxwy from 2PDO WILDCARD
  CG2R53   CG252O   NG2R53    OG2D1     2     0.000000   753.120000  ; MRDN, methylidene rhodanine, kevo & xxwy from 2PDO WILDCARD
  CG2R53   CG25C1   NG2R51    OG2D1     2     0.000000   753.120000  ; MEOI, methyleneoxindole, kevo & xxwy from 2PDO WILDCARD
  CG2R53   CG25C2   NG2R51    OG2D1     2     0.000000   753.120000  ; MEOI, methyleneoxindole, kevo & xxwy from 2PDO WILDCARD
  CG2R53   CG3C41   NG2R43    OG2D1     2     0.000000  1004.160000  ; AZDO, 2-azetidinone, kevo
  CG2R53   CG3C50   NG2R53    OG2D1     2     0.000000   920.480000  ; MSCH model for D3R, xxwy
  CG2R53   CG3C51   NG2R53    OG2D1     2     0.000000   753.120000  ; from CG2R53 CG3C52 NG2R53 OG2D1, PENALTY= 0.4 SUI 6V1
  CG2R53   CG3C52   NG2R53    OG2D1     2     0.000000   753.120000  ; 90 120 2PDO, 2-pyrrolidinone, kevo
  CG2R53   NG2R53   NG2R53    OG2D1     2     0.000000   753.120000  ; MHYO, 5-methylenehydantoin, xxwy from 2PDO WILDCARD
  CG2R53   CG2R51    OG2D1   OG3C51     2     0.000000   239.324800  ; B2FO, 5H-furan-2-one, ctsai
  CG2R53   CG3C52    OG2D1   OG3C51     2     0.000000   376.560000  ; GBL, Gamma-butyrolactone, ctsai
  CG2R53   NG2R53    OG2D1    SG311     2     0.000000   359.824000  ; MTDO, 5-methylene-2,4-thiazolidinedione, xxwy
  CG2R53   NG2R53    SG2D1    SG311     2     0.000000   359.824000  ; MRDN, methylidene rhodanine, kevo & xxwy
  CG2R62   CG2R62   NG2R62    OG311     2     0.000000     0.000000  ; enoU, yxu, RNA
  CG2R63   CG2R62   CG2R62    OG2D4     2     0.000000   125.520000  ; 4PYO, 4(1H)-pyridinone, isg
  CG2R63   CG2R62   NG2R61    OG2D4     2     0.000000   753.120000  ; NA T/O4, adm jr. 11/97 correct conversion
  CG2R63   CG2R62   NG2R62    OG2D4     2     0.000000   502.080000  ; 1PC, yxu, RNA
  CG2R63   CG2R62   NG2R67    OG2D4     2     0.000000   753.120000  ; 1PH2PO, 1-phenyl-2(1H)-pyridinone; from CG2R63 CG2R62 NG2R61 OG2D4, NA; isg
  CG2R63   CG2RC0   NG2R61    OG2D4     2     0.000000   753.120000  ; NA G correct conversion
  CG2R63   CG2RC0   NG2RC0    OG2D4     2     0.000000   435.136000  ; DWG, from CG2R63 CG2RC0 NG2R61 OG2D4, yxu, RNA
  CG2R63    NG2P1   NG2R61    OG2D4     2     0.000000   652.704000  ; CYTp, yxu, TO BE OPTIMIZED, RNA
  CG2R63   NG2R61   NG2R61    OG2D4     2     0.000000   753.120000  ; RESI URAC, uracil, xxwy, from NA U WILDCARD
  CG2R63   NG2R61   NG2R62    OG2D4     2     0.000000   753.120000  ; RESI CYT, cytosine, NA U WILDCARD
  CG2R63   NG2R61   NG2R67    OG2D4     2     0.000000   753.120000  ; 3PHURA, 3-phenyl-2,4(1H,3H)-pyrimidinedione; from CG2R63 NG2R61 NG2R61 OG2D4, URAC from NA; isg
  CG2R63   CG2R62    OG2D4   OG3R60     2     0.000000   426.768000  ; RIN, coumarin, isg
  CG2R63   CG2R61   NG2R61    SG2D1     2     0.000000   259.408000  ; YTS2, 2,4(1H,3H)-quinazolinedithione, isg
  CG2R63   CG2R61   NG2R67    SG2D1     2     0.000000   326.352000  ; 3PH24S, 2,3-dihydro-3-phenyl-2-thioxo-4(1H)pyrimidinethione; from CG2R63 CG2R62 NG2R61 SG2D1, YTS2; isg
  CG2R63   CG2R62   NG2R61    SG2D1     2     0.000000   326.352000  ; YT2S, 3,4-dihydro-4-thioxo-2(1H)-quinazolinone, isg
  CG2R63   CG2R62   NG2R67    SG2D1     2     0.000000   326.352000  ; 3PH4SR, 2,3-dihydro-3-phenyl-2-oxo-4(1H)pyrimidinethione; from CG2R63 CG2R62 NG2R61 SG2D1, YTS2; isg
  CG2R63   NG2R61   NG2R61    SG2D1     2     0.000000   702.912000  ; YTS2, 2,4(1H,3H)-quinazolinedithione, isg
  CG2R63   NG2R61   NG2R62    SG2D1     2     0.000000   485.344000  ; 2SC, from 2SU, yxu, RNA
  CG2R63   NG2R61   NG2R67    SG2D1     2     0.000000   702.912000  ; 3PH2SR, 2,3-dihydro-3-phenyl-2-thioxo-4(1H)pyrimidinone; from CG2R63 NG2R61 NG2R61 SG2D1, YTS2; isg
  CG2R63   NG2R61   NG2R61    SEGD1     2     0.000000   485.344000  ; SEU, yxu, to be reoptimized, RNA
  CG2R64    NG2P1    NG2P1   CG2R61     2     0.000000   435.136000  ; CYTp, yxu, TO BE OPTIMIZED, RNA
  CG2R64    NG2P1    NG2P1   CG2R62     2     0.000000   435.136000  ; CYTp, B3MC, yxu, TO BE OPTIMIZED, RNA
  CG2R64    NG2P1    NG2P1   CG2RC0     2     0.000000   435.136000  ; ADEp, B1MA, from 3MC, yxu, TO BE OPTIMIZED, RNA
  CG2R64   CG2R61    NG2D1    NG2P1     2     0.000000   234.304000  ; K2C, yxu, TO BE OPTIMIZED, RNA
  CG2R64    NG2P1    NG2P1    NG2P1     2     0.000000   393.296000  ; K2C, yxu, TO BE OPTIMIZED, RNA
  CG2R64     HGP2     HGP2    NG2P1     2     0.000000    -8.368000  ; 3MC, yxu, slack TO BE OPTIMIZED, RNA
  CG2R64   CG2R62    NG2D1   NG2R61     2     0.000000   351.456000  ; 3MCn, slack TO BE OPTIMIZED, RNA
  CG2R64   CG2RC0    NG2D1   NG2R61     2     0.000000   351.456000  ; 1MAn, from 3MCn, yxu, slack TO BE OPTIMIZED, RNA
  CG2R64   CG2R61    NG2D1   NG2R62     2     0.000000   351.456000  ; K2Cn, from 3MCn, yxu, RNA
  CG2R64   CG2R61    NG2P1   NG2R62     2     0.000000   351.456000  ; 34HC, from 3MCn, yxu, TO BE OPTIMIZED, RNA
  CG2R64   CG2RC0   NG2R62    NG2S0     2     0.000000   184.096000  ; m6pa, yxu  ##check!!, RNA
  CG2R64   CG2R61   NG2R60    NG2S1     2     0.000000   158.992000  ; 2AMP, 2-acetamide pyridine,xxwy
  CG2R64   CG2R62   NG2R62    NG2S1     2     0.000000   158.992000  ; 4AC, from CG2R64 CG2R61 NG2R60 NG2S1, yxu, RNA
  CG2R64   CG2RC0   NG2R62    NG2S1     2     0.000000   334.720000  ; 26A, yxu manually added, RNA
  CG2R64   CG2R61   NG2R62    NG2S3     2     0.000000   502.080000  ; 2SC, from CG2R64 CG2R62 NG2R62 NG2S3, from NA36, RNA
  CG2R64   CG2R62   NG2R62    NG2S3     2     0.000000   502.080000  ; NA C
  CG2R64   CG2RC0   NG2R62    NG2S3     2     0.000000   334.720000  ; NA A
  CG2R64   NG2R61   NG2R62    NG2S3     2     0.000000   334.720000  ; NA G
  CG2R64   NG2R62   NG2R62    NG2S3     2     0.000000   334.720000  ; 7MGe , from CG2R64 NG2R61 NG2R62 NG2S3, not optimized, yxu, RNA
  CG2R64   CG2R62   NG2R62    NG301     2     0.000000   334.720000  ; TMC, yxu
  CG2R64   CG2RC0   NG2R62    NG301     2     0.000000   334.720000  ; M6A, yxu
  CG2R64   NG2R61   NG2R62    NG301     2     0.000000   334.720000  ; M2G, from TMC, yxu, RNA
  CG2R64   CG2R62   NG2R62    NG311     2     0.000000   401.664000  ; 4MC, yxu, RNA
  CG2R64   CG2RC0   NG2R62    NG311     2     0.000000   418.400000  ; 6MA, yxu manually added, RNA
  CG2R64   NG2R61   NG2R62    NG311     2     0.000000   334.720000  ; 2MG, from K2Cn, yxu, RNA
   NG2O1    OG2N1    OG2N1    CG324     2     0.000000   448.524800  ; NIPR, nitropropane, abar
   NG2O1    OG2N1    OG2N1    CG334     2     0.000000   425.094400  ; NIME, nitromethane, abar
   NG2S3     HGP4     HGP4   CG2R61     2     0.000000   -20.920000  ; -2.0 PYRIDINE aminopyridine 11/10 kevo: sic! Compensates for in-plane force from CG2R61 CG2R61 NG2S3 HGP4
   NG2S3     HGP4     HGP4   CG2R64     2     0.000000    75.312000  ; NA GUA ADE CYT; from artificially planar 2APY, 2-aminopyridine parameter set (12/2010); xxwy & kevo

; specific (non-wildcard) improper dihedral parameters from toppar_c36_jul22/par_all36_lipid.prm
;      i        j        k        l  func         phi0         kphi
    HEL2     HEL2     CEL2     CEL2     2     0.000000    25.104000  ; ethene, yin,adm jr., 12/95

; specific (non-wildcard) improper dihedral parameters from toppar_c36_jul22/par_all36_na.prm
;      i        j        k        l  func         phi0         kphi
    NN2B      CN4      CN5      HN2     2     0.000000    58.576000  ; G, adm jr. 11/97
     NN1      CN2      HN1      HN1     2     0.000000    50.208000  ; A,C adm jr. 11/97
     CN1     NN2G     CN5G      ON1     2     0.000000   753.120000  ; G
    CN1T     NN2B     NN2U      ON1     2     0.000000   920.480000  ; T/O2, adm jr. 11/97
     CN1     NN2U     CN3T      ON1     2     0.000000   753.120000  ; T/O4, adm jr. 11/97
     CN2     NN3G     NN2G      NN1     2     0.000000   334.720000  ; G
     CN2     NN3A      CN5      NN1     2     0.000000   334.720000  ; A
     CN2      NN3      CN3      NN1     2     0.000000   502.080000  ; C,

; specific (non-wildcard) improper dihedral parameters from toppar_c36_jul22/par_all36m_prot.prm
;      i        j        k        l  func         phi0         kphi
     HE2      HE2      CE2      CE2     2     0.000000    25.104000  ; 
     HR1      NR1      NR2     CPH2     2     0.000000     4.184000  ; ALLOW ARO
     HR1      NR2      NR1     CPH2     2     0.000000     4.184000  ; ALLOW ARO
     HR3     CPH1      NR1     CPH1     2     0.000000     4.184000  ; ALLOW ARO
     HR3     CPH1      NR2     CPH1     2     0.000000     4.184000  ; ALLOW ARO
     HR3     CPH1      NR3     CPH1     2     0.000000     8.368000  ; ALLOW ARO
     HR3      NR1     CPH1     CPH1     2     0.000000     4.184000  ; ALLOW ARO
     HR3      NR2     CPH1     CPH1     2     0.000000     4.184000  ; ALLOW ARO
       N        C      CP1      CP3     2     0.000000     0.000000  ; ALLOW PRO
       C       HC       HC      NC2     2     0.000000     0.000000  ; 
     NR1     CPH1     CPH2        H     2     0.000000     3.765600  ; ALLOW ARO
     NR1     CPH2     CPH1        H     2     0.000000     3.765600  ; ALLOW ARO
     NR3     CPH1     CPH2        H     2     0.000000    10.041600  ; ALLOW ARO
     NR3     CPH2     CPH1        H     2     0.000000    10.041600  ; ALLOW ARO
       O      CP1      NH2       CC     2     0.000000   376.560000  ; ALLOW PEP POL PRO
       O      CT1      NH2       CC     2     0.000000   376.560000  ; ALLOW PEP POL
       O      CT2      NH2       CC     2     0.000000   376.560000  ; ALLOW PEP POL
       O      CT3      NH2       CC     2     0.000000   376.560000  ; ALLOW PEP POL
       O      HA1      NH2       CC     2     0.000000   376.560000  ; ALLOW PEP POL PRO
       O        N      CT2       CC     2     0.000000  1004.160000  ; ALLOW PEP POL PRO
       O      NH2      CP1       CC     2     0.000000   376.560000  ; ALLOW PEP POL PRO
       O      NH2      CT1       CC     2     0.000000   376.560000  ; ALLOW PEP POL
       O      NH2      CT2       CC     2     0.000000   376.560000  ; ALLOW PEP POL
       O      NH2      CT3       CC     2     0.000000   376.560000  ; ALLOW PEP POL
       O      NH2      HA1       CC     2     0.000000   376.560000  ; ALLOW PEP POL

; specific (non-wildcard) improper dihedral parameters from toppar_c36_jul22/silicates/toppar/par_silicates.inp
;      i        j        k        l  func         phi0         kphi

; specific (non-wildcard) improper dihedral parameters from toppar_c36_jul22/silicates/toppar/top_silicates.inp
;      i        j        k        l  func         phi0         kphi

; specific (non-wildcard) improper dihedral parameters from toppar_c36_jul22/stream/carb/toppar_all36_carb_glycolipid.str
;      i        j        k        l  func         phi0         kphi

; specific (non-wildcard) improper dihedral parameters from toppar_c36_jul22/stream/carb/toppar_all36_carb_glycopeptide.str
;      i        j        k        l  func         phi0         kphi
   NC2D1    CC2O1   CC311D     HCP1     2     0.000000   167.360000  ; par22 NH1  X    X    H
   NC2D1    CC2O1   CC3162     HCP1     2     0.000000   167.360000  ; par22 NH1  X    X    H
   CC2O1    NC2D1    CC321    OC2D1     2     0.000000   376.560000  ; O    CT2  NH2  CC     45.0000         0      0.0000 ! ALLOW PEP POL
   CC2O1    CC321    NC2D1    OC2D1     2     0.000000   376.560000  ; O    NH2  CT2  CC     45.0000         0      0.0000 ! ALLOW PEP POL

; specific (non-wildcard) improper dihedral parameters from toppar_c36_jul22/stream/carb/toppar_all36_carb_imlab.str
;      i        j        k        l  func         phi0         kphi
   NG2S1        C    CG321     HGP1     2     0.000000   167.360000  ; par22 NH1  X    X    H, !gpi-link
   CC2O1      CT1    NC2D1    OC2D1     2     0.000000  1004.160000  ; par22 O    X    X    C, !from toppar_all36_carb_lps.str
      CC       OS      NH2       OB     2     0.000000  1004.160000  ; par22 O    X    X    C
   CC2O2    CC312    OC2D2    OC2D2     2     0.000000   803.328000  ; par22 OC   X    X    CC
   CC2O1      CT3    NC2D1    OC2D1     2     0.000000  1004.160000  ; par22 O    X    X    C
   CC2O1    CC331    NC2D1      NC2     2     0.000000   376.560000  ; from, NC2  X    X    C
   CC2O1     HCR1    NC2D1    OC2D1     2     0.000000   376.560000  ; ALLOW PEP POL
   CC2O1      CT2    NC2D1    OC2D1     2     0.000000   376.560000  ; O    NH2  CT2  CC, !NGLY
   NC2D1    CC2O1   CC3152     HCP1     2     0.000000   167.360000  ; NH1  X    X    H
   NC2D1    CC2O1    CC322     HCP1     2     0.000000   167.360000  ; NC2D1   CC2O1   CC331   HCP1, !9TNAC
   CC2O2   CC3163    OC301    OC2D2     2     0.000000   518.816000  ; from CG2O2  CG331  OG2D1  OG302, !COOME
   CC2O2   CC3261    OC2D2    OC2D2     2     0.000000   803.328000  ; CC2O2   CC3062  OC2D2   OC2D2, !DEO for neuraminic acid
   CC2O1    CC312    NC2D1    OC2D1     2     0.000000   376.560000  ; CC2O1    CC321    NC2D1    OC2D1, !SDHB
   CC2O1    CC322    NC2D1    OC2D1     2     0.000000   376.560000  ; CC2O1    CC321    NC2D1    OC2D1, !NDHH
   CC2O1      CP1    NC2D1    OC2D1     2     0.000000   376.560000  ; CC2O1    CC321    NC2D1    OC2D1, !NOPR
      CC      NH1      CP2        O     2     0.000000   753.120000  ; C=O bend alone

; specific (non-wildcard) improper dihedral parameters from toppar_c36_jul22/stream/carb/toppar_all36_carb_lignin.str
;      i        j        k        l  func         phi0         kphi

; specific (non-wildcard) improper dihedral parameters from toppar_c36_jul22/stream/lipid/toppar_all36_lipid_bacterial.str
;      i        j        k        l  func         phi0         kphi
       C      CT1        O      OSL     2     0.000000   518.816000  ; /scrat , from CG2O2 CG311 OG2D1 OG302, PENALTY= 0.1
       C     CTL2        O      OSL     2     0.000000   518.816000  ; PROT & LIPID WILDCARD; from MAS, methyl acetate; xxwy

; specific (non-wildcard) improper dihedral parameters from toppar_c36_jul22/stream/lipid/toppar_all36_lipid_cholesterol.str
;      i        j        k        l  func         phi0         kphi

; specific (non-wildcard) improper dihedral parameters from toppar_c36_jul22/stream/lipid/toppar_all36_lipid_detergent.str
;      i        j        k        l  func         phi0         kphi

; specific (non-wildcard) improper dihedral parameters from toppar_c36_jul22/stream/lipid/toppar_all36_lipid_ether.str
;      i        j        k        l  func         phi0         kphi

; specific (non-wildcard) improper dihedral parameters from toppar_c36_jul22/stream/lipid/toppar_all36_lipid_lps.str
;      i        j        k        l  func         phi0         kphi
   CC2O1     CTL2    NC2D1    OC2D1     2     0.000000  1004.160000  ; O X X C ; all22 prot

; specific (non-wildcard) improper dihedral parameters from toppar_c36_jul22/stream/lipid/toppar_all36_lipid_miscellaneous.str
;      i        j        k        l  func         phi0         kphi

; specific (non-wildcard) improper dihedral parameters from toppar_c36_jul22/stream/lipid/toppar_all36_lipid_prot.str
;      i        j        k        l  func         phi0         kphi
       C        O      NH1     CTL2     2     0.000000   803.328000  ; from, CC   X    X    CT2

; specific (non-wildcard) improper dihedral parameters from toppar_c36_jul22/stream/lipid/toppar_all36_lipid_sphingo.str
;      i        j        k        l  func         phi0         kphi

; specific (non-wildcard) improper dihedral parameters from toppar_c36_jul22/stream/misc/toppar_ions_won.str
;      i        j        k        l  func         phi0         kphi

; specific (non-wildcard) improper dihedral parameters from toppar_c36_jul22/stream/na/toppar_all36_na_modifications.str
;      i        j        k        l  func         phi0         kphi
    NN2G      CN4      CN1      HN2     2     0.000000     6.694400  ; Inosine, adm jr. 2/94
     CN4     NN2G     NN3I      HN3     2     0.000000   326.352000  ; Inosine, adm jr. 2/94
     CN1     NN3G     CN5G      ON5     2     0.000000   460.240000  ; sasha, 2/98
     CN2     NN2C      CN3     NN1C     2     0.000000   753.120000  ; sasha, 2/98
    NN2G      CN1      CN2      HN2     2   180.000000     0.000000  ; 
       C        O      CT2      NH1     2     0.000000  1004.160000  ; 
      CC        O      CT2        N     2     0.000000  1004.160000  ; 
       N      CT2      CT2       CC     2     0.000000     0.000000  ; 
       N      CT2     CT2P       CC     2     0.000000     0.000000  ; as in N CT2 CT2 CC, mj

; specific (non-wildcard) improper dihedral parameters from toppar_c36_jul22/stream/na/toppar_all36_na_nad_ppi.str
;      i        j        k        l  func         phi0         kphi
     CN3     CN3C      CN8      HN6     2     0.000000   125.520000  ; nich, jjp1/adm jr.
     HN2      CN3     CN3B      NN2     2     0.000000   418.400000  ; nad/ppi, jjp1/adm jr.
     HN1      HN1     CN1A      NN1     2     0.000000   -41.840000  ; nad/ppi, jjp1/adm jr.
     HN8      CN3      CN3      CN8     2     0.000000   150.624000  ; nad/ppi, jjp1/adm jr.

; specific (non-wildcard) improper dihedral parameters from toppar_c36_jul22/stream/prot/toppar_all36_prot_arg0.str
;      i        j        k        l  func         phi0         kphi
    CRN1     NRN2     NRN2     NRC4     2   180.000000  1422.560000  ; MGU1, methylguanidine
    NRN2     HRM2     HRM2     CRN1     2   180.000000   334.720000  ; MGU1, methylguanidine
    CRN1     NRN2     NRC4     NRN1     2   180.000000  1422.560000  ; MGU2, methylguanidine2
    NRN1     CR33     CRN1     HRM1     2   180.000000   502.080000  ; MGU2, methylguanidine2
    CRN1     NRC4     NRN2     NRN1     2   180.000000  1422.560000  ; MGU1, methylguanidine
    NRN1      CT2     CRN1     HRM1     2   180.000000   502.080000  ; MGU2, methylguanidine2

; specific (non-wildcard) improper dihedral parameters from toppar_c36_jul22/stream/prot/toppar_all36_prot_c36m_d_aminoacids.str
;      i        j        k        l  func         phi0         kphi
       O     CTD1      NH2       CC     2     0.000000   376.560000  ; 
       O      NH2     CTD1       CC     2     0.000000   376.560000  ; 
       N        C     CPD1      CP3     2     0.000000     0.000000  ; 
       O     CPD1      NH2       CC     2     0.000000   376.560000  ; 
       O      NH2     CPD1       CC     2     0.000000   376.560000  ; 

; specific (non-wildcard) improper dihedral parameters from toppar_c36_jul22/stream/prot/toppar_all36_prot_fluoro_alkanes.str
;      i        j        k        l  func         phi0         kphi

; specific (non-wildcard) improper dihedral parameters from toppar_c36_jul22/stream/prot/toppar_all36_prot_heme.str
;      i        j        k        l  func         phi0         kphi
     CPB      CPA      NPH      CPA     2     0.000000   174.054400  ; ALLOW HEM
      HA      CPA      CPA      CPM     2     0.000000   246.019200  ; ALLOW HEM
     NPH      CPA      CPA       FE     2     0.000000  1149.763200  ; ALLOW HEM
     NPH      CPA      CPB      CPB     2     0.000000   339.740800  ; ALLOW HEM
     NPH      CPA      CPM      CPA     2     0.000000   153.134400  ; ALLOW HEM
     NPH      CPM      CPB      CPA     2     0.000000   273.633600  ; ALLOW HEM

; specific (non-wildcard) improper dihedral parameters from toppar_c36_jul22/stream/prot/toppar_all36_prot_model.str
;      i        j        k        l  func         phi0         kphi
      CD       OC       OC       OC     2     0.000000   895.376000  ; carbonate

; specific (non-wildcard) improper dihedral parameters from toppar_c36_jul22/stream/prot/toppar_all36_prot_modify_res.str
;      i        j        k        l  func         phi0         kphi
       C      CT3        N        O     2     0.000000   594.128000  ; DMA, Dimethylacetamide, xxwy
   CG2O1    CG321      NH1    OG2D1     2     0.000000  1004.160000  ; PROT NMA Vibrational Modes (LK) WILDCARD PRK PIA MEQ SWG KHB CR2 CRF CRQ SUI
   CG2O1   CG2D1O      NH1    OG2D1     2     0.000000  1004.160000  ; from CG2O1 CG2DC1 NG2S1 OG2D1, PENALTY= 4 DYA
   CG2O1   CG3C51      NH1    OG2D1     2     0.000000  1004.160000  ; PROT NMA Vibrational Modes (LK) WILDCARD HZP FP9 8LJ PR4 HYP MP8 PRS 4FB
   CG2O1    CG311      NH1    OG2D1     2     0.000000  1004.160000  ; PROT NMA Vibrational Modes (LK) WILDCARD M20 TH6 DA2 ORN STYA THIC TPQ CSP FME
   CG2O1   CG3C50      NH1    OG2D1     2     0.000000  1004.160000  ; from CG2O1 CG3C51 NG2S1 OG2D1, PENALTY= 0.6 PXU
   CG2O1    CG321      NH1    SG2D1     2     0.000000   555.466166  ; GL3, by ac_aa
   CG2O1   CG3C51        N    OG2D1     2     0.000000  1004.160000  ; from O N CT2 CC, ALLOW PEP POL PRO
       N    CG2O1      CP1      CP3     2     0.000000     0.000000  ; from N C CP1 CP3, ALLOW PRO
   CG2O1    CG311        N    OG2D1     2     0.000000  1004.160000  ; from O N CT2 CC, ALLOW PEP POL PRO
   CG2O1    CG321        N    OG2D1     2     0.000000  1004.160000  ; from O N CT2 CC, ALLOW PEP POL PRO
   CG2O1   CG2D1O        N    OG2D1     2     0.000000  1004.160000  ; from O N CT2 CC, ALLOW PEP POL PRO
   CG2O1    CG321        N    SG2D1     2     0.000000  1004.160000  ; from O N CT2 CC, ALLOW PEP POL PRO
   CG2O1   CG3C50        N    OG2D1     2     0.000000  1004.160000  ; from O N CT2 CC, ALLOW PEP POL PRO
   NG2S0        C   CG3C51   CG3C52     2     0.000000     0.000000  ; from N C CP1 CP3, ALLOW PRO 4FB 8LJ FP9 HZP MP8 PRS
   NG2S0        C   CG3C50   CG3C52     2     0.000000     0.000000  ; from N C CP1 CP3, ALLOW PRO PXU
   NG2S1        C    CG311     HGP1     2     0.000000   167.360000  ; from NH1 X X H, ALLOW PEP POL ARO B2H CH6 CR2 CR8D CRO DYG GYS MDO PIA SUI CRF
   NG2S1        C   CG2D1O     HGP1     2     0.000000   167.360000  ; from NH1 X X H, ALLOW PEP POL DYA
   NG2S1        C   CG3C51     HGP1     2     0.000000   167.360000  ; from NH1 X X H, ALLOW PEP POL SUI
   NG2S0        C    CG321    CG321     2     0.000000     0.000000  ; I4G
   NG2S0        C    CG311    CG331     2     0.000000     0.000000  ; MAA

; specific (non-wildcard) improper dihedral parameters from toppar_c36_jul22/stream/prot/toppar_all36_prot_na_combined.str
;      i        j        k        l  func         phi0         kphi
     NR1     CPH1     CPH2     CN7B     2     0.000000     5.020800  ; From imidazole (NF), k increased
     NR1     CPH2     CPH1     CN7B     2     0.000000     5.020800  ; From imidazole (NF), k increased

; specific (non-wildcard) improper dihedral parameters from toppar_c36_jul22/stream/prot/toppar_all36_prot_retinol.str
;      i        j        k        l  func         phi0         kphi
      CD     CC1A        O      HR1     2     0.000000   117.152000  ; 

; specific (non-wildcard) improper dihedral parameters from toppar_c36_jul22/top_all36_prot.rtf
;      i        j        k        l  func         phi0         kphi

; specific (non-wildcard) improper dihedral parameters from toppar_c36_jul22/toppar_water_ions.str
;      i        j        k        l  func         phi0         kphi

; wildcard improper dihedral parameters from 
;      i        j        k        l  func         phi0         kphi

; wildcard improper dihedral parameters from toppar_c36_jul22/metals/CHARMM_METAL/par_all22_prot_metals.inp
;      i        j        k        l  func         phi0         kphi

; wildcard improper dihedral parameters from toppar_c36_jul22/metals/CHARMM_METAL/top_all22_prot_metals.inp
;      i        j        k        l  func         phi0         kphi

; wildcard improper dihedral parameters from toppar_c36_jul22/par_all35_ethers.prm
;      i        j        k        l  func         phi0         kphi

; wildcard improper dihedral parameters from toppar_c36_jul22/par_all36_carb.prm
;      i        j        k        l  func         phi0         kphi

; wildcard improper dihedral parameters from toppar_c36_jul22/par_all36_cgenff.prm
;      i        j        k        l  func         phi0         kphi

; wildcard improper dihedral parameters from toppar_c36_jul22/par_all36_lipid.prm
;      i        j        k        l  func         phi0         kphi
     OBL        X        X       CL     2     0.000000   836.800000  ; acetic acid
     OCL        X        X       CL     2     0.000000   803.328000  ; acetate
     OCL        X        X      CCL     2     0.000000   803.328000  ; for POPS

; wildcard improper dihedral parameters from toppar_c36_jul22/par_all36_na.prm
;      i        j        k        l  func         phi0         kphi
     HN2        X        X      NN2     2     0.000000     8.368000  ; C, adm jr. 11/97
     HN1        X        X      NN1     2     0.000000    33.472000  ; G, adm jr. 11/97
     CN1        X        X      ON1     2     0.000000   753.120000  ; U
    CN1T        X        X      ON1     2     0.000000   753.120000  ; U
     CN1        X        X     ON1C     2     0.000000   669.440000  ; C, par_32, adm jr. 10/2/91
     CN2        X        X      NN1     2     0.000000   753.120000  ; C,
     CN9        X        X     CN3T     2     0.000000   117.152000  ; T, adm jr. 11/97

; wildcard improper dihedral parameters from toppar_c36_jul22/par_all36m_prot.prm
;      i        j        k        l  func         phi0         kphi
     NC2        X        X        C     2     0.000000   376.560000  ; ALLOW   PEP POL ARO
     NC2        X        X       HC     2     0.000000   -16.736000  ; 
     NH1        X        X        H     2     0.000000   167.360000  ; ALLOW   PEP POL ARO
     NH2        X        X        H     2     0.000000    33.472000  ; ALLOW   POL
       O        X        X        C     2     0.000000  1004.160000  ; ALLOW   PEP POL ARO
      OB        X        X       CD     2     0.000000   836.800000  ; ALLOW   ALC ARO POL
      OC        X        X       CC     2     0.000000   803.328000  ; ALLOW   PEP POL ARO ION
      CC        X        X      CT1     2     0.000000   803.328000  ; ALLOW   PEP POL ARO ION
      CC        X        X      CT2     2     0.000000   803.328000  ; ALLOW   PEP POL ARO ION
      CC        X        X      CT3     2     0.000000   803.328000  ; ALLOW   PEP POL ARO ION

; wildcard improper dihedral parameters from toppar_c36_jul22/silicates/toppar/par_silicates.inp
;      i        j        k        l  func         phi0         kphi

; wildcard improper dihedral parameters from toppar_c36_jul22/silicates/toppar/top_silicates.inp
;      i        j        k        l  func         phi0         kphi

; wildcard improper dihedral parameters from toppar_c36_jul22/stream/carb/toppar_all36_carb_glycolipid.str
;      i        j        k        l  func         phi0         kphi

; wildcard improper dihedral parameters from toppar_c36_jul22/stream/carb/toppar_all36_carb_glycopeptide.str
;      i        j        k        l  func         phi0         kphi

; wildcard improper dihedral parameters from toppar_c36_jul22/stream/carb/toppar_all36_carb_imlab.str
;      i        j        k        l  func         phi0         kphi
     NH1        X        X     HCA1     2     0.000000   167.360000  ; protein NH1  X    X    H

; wildcard improper dihedral parameters from toppar_c36_jul22/stream/carb/toppar_all36_carb_lignin.str
;      i        j        k        l  func         phi0         kphi

; wildcard improper dihedral parameters from toppar_c36_jul22/stream/lipid/toppar_all36_lipid_bacterial.str
;      i        j        k        l  func         phi0         kphi

; wildcard improper dihedral parameters from toppar_c36_jul22/stream/lipid/toppar_all36_lipid_cholesterol.str
;      i        j        k        l  func         phi0         kphi

; wildcard improper dihedral parameters from toppar_c36_jul22/stream/lipid/toppar_all36_lipid_detergent.str
;      i        j        k        l  func         phi0         kphi

; wildcard improper dihedral parameters from toppar_c36_jul22/stream/lipid/toppar_all36_lipid_ether.str
;      i        j        k        l  func         phi0         kphi

; wildcard improper dihedral parameters from toppar_c36_jul22/stream/lipid/toppar_all36_lipid_lps.str
;      i        j        k        l  func         phi0         kphi

; wildcard improper dihedral parameters from toppar_c36_jul22/stream/lipid/toppar_all36_lipid_miscellaneous.str
;      i        j        k        l  func         phi0         kphi

; wildcard improper dihedral parameters from toppar_c36_jul22/stream/lipid/toppar_all36_lipid_prot.str
;      i        j        k        l  func         phi0         kphi
      CL        X        X     CTL2     2     0.000000   803.328000  ; from, CC   X    X    CT2

; wildcard improper dihedral parameters from toppar_c36_jul22/stream/lipid/toppar_all36_lipid_sphingo.str
;      i        j        k        l  func         phi0         kphi
     NHL        X        X        H     2     0.000000   167.360000  ; amide, from peptide; rmv nov 2009

; wildcard improper dihedral parameters from toppar_c36_jul22/stream/misc/toppar_ions_won.str
;      i        j        k        l  func         phi0         kphi

; wildcard improper dihedral parameters from toppar_c36_jul22/stream/na/toppar_all36_na_modifications.str
;      i        j        k        l  func         phi0         kphi
     NNG        X        X      CNG     2     0.000000   334.720000  ; NC2  X    X    C   ALLOW   PEP POL ARO

; wildcard improper dihedral parameters from toppar_c36_jul22/stream/na/toppar_all36_na_nad_ppi.str
;      i        j        k        l  func         phi0         kphi
    HN3B        X        X      CN3     2     0.000000   125.520000  ; nad/ppi, jjp1/adm jr.
    HN3B        X        X     CN3A     2     0.000000   108.784000  ; nad/ppi, jjp1/adm jr.
    HN3B        X        X     CN3B     2     0.000000   108.784000  ; nad/ppi, jjp1/adm jr.
     ON1        X        X     CN1A     2     0.000000   334.720000  ; nad/ppi, jjp1/adm jr.
     HN3        X        X     CN3C     2     0.000000   443.504000  ; nad/ppi, jjp1/adm jr.
     HN6        X        X     CN3C     2     0.000000   443.504000  ; nich, adm jr.

; wildcard improper dihedral parameters from toppar_c36_jul22/stream/prot/toppar_all36_prot_arg0.str
;      i        j        k        l  func         phi0         kphi

; wildcard improper dihedral parameters from toppar_c36_jul22/stream/prot/toppar_all36_prot_c36m_d_aminoacids.str
;      i        j        k        l  func         phi0         kphi
      CC        X        X     CTD1     2     0.000000   803.328000  ; 

; wildcard improper dihedral parameters from toppar_c36_jul22/stream/prot/toppar_all36_prot_fluoro_alkanes.str
;      i        j        k        l  func         phi0         kphi

; wildcard improper dihedral parameters from toppar_c36_jul22/stream/prot/toppar_all36_prot_heme.str
;      i        j        k        l  func         phi0         kphi
     CPB        X        X      CE1     2     0.000000   753.120000  ; ALLOW HEM
     CT2        X        X      CPB     2     0.000000   753.120000  ; ALLOW HEM
     CT3        X        X      CPB     2     0.000000   753.120000  ; ALLOW HEM

; wildcard improper dihedral parameters from toppar_c36_jul22/stream/prot/toppar_all36_prot_model.str
;      i        j        k        l  func         phi0         kphi

; wildcard improper dihedral parameters from toppar_c36_jul22/stream/prot/toppar_all36_prot_modify_res.str
;      i        j        k        l  func         phi0         kphi

; wildcard improper dihedral parameters from toppar_c36_jul22/stream/prot/toppar_all36_prot_na_combined.str
;      i        j        k        l  func         phi0         kphi

; wildcard improper dihedral parameters from toppar_c36_jul22/stream/prot/toppar_all36_prot_retinol.str
;      i        j        k        l  func         phi0         kphi

; wildcard improper dihedral parameters from toppar_c36_jul22/top_all36_prot.rtf
;      i        j        k        l  func         phi0         kphi

; wildcard improper dihedral parameters from toppar_c36_jul22/toppar_water_ions.str
;      i        j        k        l  func         phi0         kphi



; CHARMM-port for GROMACS
; created with charmm2gmx version 0.7.dev45+g7b82040.d20221208 on 2022-12-08 11:11:52.022313
; Code: https://gitlab.com/awacha/charmm2gmx
; Documentation: https://awacha.gitlab.com/charmm2gmx
; Charmm2GMX written by András Wacha, based on the original port by 
; E. Prabhu Raman, Justin A. Lemkul, Robert Best and Alexander D. MacKerell, Jr.


; Dummy zero dihedral types for those which are missing in CHARMM
; Note: in some residue topologies in CHARMM, especially in the CGenFF part (e.g. C3, BUTY) some dihedrals have no
; corresponding interaction parameters based on the types of the participating atoms (e.g. C1-C2-C3-C4 in BUTY).
; CHARMM simply ignores these dihedrals, giving you messages like 
; "CHECKDH> dihedral :    1    3    4    7 will NOT be generated". Grompp however gives you an error.
; As a workaround, this file contains [ dihedraltypes ] with zero force constant for these dihedral types.
;
[ dihedraltypes ]
;      i        j        k        l  func         phi0         kphi  mult
; The following dihedraltype is for:
;     Residue 2BTY, atoms C1, C2, C3, C4
   CG331    CG1T1    CG1T1    CG331     9     0.000000     0.000000     1 ;
; The following dihedraltype is for:
;     Residue 2BTY, atoms H11, C1, C2, C3
;     Residue 2BTY, atoms H12, C1, C2, C3
;     Residue 2BTY, atoms H13, C1, C2, C3
;     Residue 2BTY, atoms C2, C3, C4, H41
;     Residue 2BTY, atoms C2, C3, C4, H42
;     Residue 2BTY, atoms C2, C3, C4, H43
    HGA3    CG331    CG1T1    CG1T1     9     0.000000     0.000000     1 ;
; The following dihedraltype is for:
;     Residue ACN, atoms H11, C1, C2, N3
;     Residue ACN, atoms H12, C1, C2, N3
;     Residue ACN, atoms H13, C1, C2, N3
    HGA3    CG331    CG1N1    NG1T1     9     0.000000     0.000000     1 ;
; The following dihedraltype is for:
;     Residue BCYU, atoms C5, C7, C8, N9
  CG2R62    CG321    CG1N1    NG1T1     9     0.000000     0.000000     1 ;
; The following dihedraltype is for:
;     Residue BCYU, atoms H71, C7, C8, N9
;     Residue BCYU, atoms H72, C7, C8, N9
;     Residue CYBZ, atoms H71, C7, C8, N9
;     Residue CYBZ, atoms H72, C7, C8, N9
    HGA2    CG321    CG1N1    NG1T1     9     0.000000     0.000000     1 ;
; The following dihedraltype is for:
;     Residue BDCG, atoms C8, C7, C10, N10
  CG2R51   CG2R51    CG1N1    NG1T1     9     0.000000     0.000000     1 ;
; The following dihedraltype is for:
;     Residue BDCG, atoms C5, C7, C10, N10
  CG2RC0   CG2R51    CG1N1    NG1T1     9     0.000000     0.000000     1 ;
; The following dihedraltype is for:
;     Residue BEYN, atoms C1, C2, C3, C4
   CG1T2    CG1T1    CG2D1    CG2D2     9     0.000000     0.000000     1 ;
; The following dihedraltype is for:
;     Residue BEYN, atoms C1, C2, C3, H3
   CG1T2    CG1T1    CG2D1     HGA4     9     0.000000     0.000000     1 ;
; The following dihedraltype is for:
;     Residue BEYN, atoms H1, C1, C2, C3
  HGPAM1    CG1T2    CG1T1    CG2D1     9     0.000000     0.000000     1 ;
; The following dihedraltype is for:
;     Residue BUTY, atoms C1, C2, C3, C4
   CG1T2    CG1T1    CG321    CG331     9     0.000000     0.000000     1 ;
; The following dihedraltype is for:
;     Residue BUTY, atoms C1, C2, C3, H31
;     Residue BUTY, atoms C1, C2, C3, H32
;     Residue HPTY, atoms C1, C2, C3, H31
;     Residue HPTY, atoms C1, C2, C3, H32
;     Residue HXYN, atoms C1, C2, C3, H31
;     Residue HXYN, atoms C1, C2, C3, H32
;     Residue OCTY, atoms C1, C2, C3, H31
;     Residue OCTY, atoms C1, C2, C3, H32
;     Residue PNTY, atoms C1, C2, C3, H31
;     Residue PNTY, atoms C1, C2, C3, H32
   CG1T2    CG1T1    CG321     HGA2     9     0.000000     0.000000     1 ;
; The following dihedraltype is for:
;     Residue BUTY, atoms H1, C1, C2, C3
;     Residue HPTY, atoms H1, C1, C2, C3
;     Residue HXYN, atoms H1, C1, C2, C3
;     Residue OCTY, atoms H1, C1, C2, C3
;     Residue PNTY, atoms H1, C1, C2, C3
  HGPAM1    CG1T2    CG1T1    CG321     9     0.000000     0.000000     1 ;
; The following dihedraltype is for:
;     Residue CYBZ, atoms C5, C7, C8, N9
  CG2R61    CG321    CG1N1    NG1T1     9     0.000000     0.000000     1 ;
; The following dihedraltype is for:
;     Residue HPTY, atoms C1, C2, C3, C4
;     Residue HXYN, atoms C1, C2, C3, C4
;     Residue OCTY, atoms C1, C2, C3, C4
;     Residue PNTY, atoms C1, C2, C3, C4
   CG1T2    CG1T1    CG321    CG321     9     0.000000     0.000000     1 ;
; The following dihedraltype is for:
;     Residue PRPY, atoms C1, C2, C3, H31
   CG331    CG1T1    CG1T2   HGPAM1     9     0.000000     0.000000     1 ;
; The following dihedraltype is for:
;     Residue PRPY, atoms H11, C1, C2, C3
;     Residue PRPY, atoms H12, C1, C2, C3
;     Residue PRPY, atoms H13, C1, C2, C3
    HGA3    CG331    CG1T1    CG1T2     9     0.000000     0.000000     1 ;


; When looking for improper dihedral parameters, GROMACS does an A-B-C-D -> D-C-B-A reversal automatically. 
; However, when the phase offset parameter of the improper dihedral is 0, the corresponding potential term is an 
; even function of the dihedral angle, thus the permutation A-B-C-D -> A-C-B-D gives the same potential energy. 
; The CHARMM engine seemingly does this automatically, e.g. in the residue SAH (in CGenFF), but GROMACS does
; not support this. In order to satisfy grompp, we generate the corresponding dihedral types here.
[ dihedraltypes ]
;      i        j        k        l  func         phi0         kphi  mult



[ bondtypes ]
;      i        j  func           b0           kb


[ angletypes ]
;      i        j        k  func       theta0       ktheta          ub0          kub


[ dihedraltypes ]
;      i        j        k        l  func         phi0         kphi  mult
   OG301    CG321    CG321    OG302     9   180.000000     1.046000     1
   OG301    CG321    CG321    OG302     9     0.000000     5.188160     2


[ dihedraltypes ]
; 'improper' dihedrals 
;      i        j        k        l  func         phi0         kphi






















; Created by cgenff_charmm2gmx.py









[ moleculetype ]
; Name			   nrexcl
ECL				 3

[ atoms ]
;	 nr		  type	resnr residue  atom   cgnr	   charge		mass  typeB    chargeB		massB
; residue	 1 ECL rtp ECL q	qsum
     1      CG331      1    ECL     C1      1     -0.098     12.011   ;
     2      OG301      1    ECL     O1      2     -0.343     15.999   ;
     3      CG321      1    ECL     C2      3     -0.009     12.011   ;
     4      CG321      1    ECL     C3      4     -0.009     12.011   ;
     5      OG301      1    ECL     O2      5     -0.342     15.999   ;
     6      CG321      1    ECL     C4      6     -0.009     12.011   ;
     7      CG321      1    ECL     C5      7     -0.009     12.011   ;
     8      OG301      1    ECL     O3      8     -0.342     15.999   ;
     9      CG321      1    ECL     C6      9     -0.009     12.011   ;
    10      CG321      1    ECL     C7     10     -0.009     12.011   ;
    11      OG301      1    ECL     O4     11     -0.342     15.999   ;
    12      CG321      1    ECL     C8     12     -0.009     12.011   ;
    13      CG321      1    ECL     C9     13     -0.009     12.011   ;
    14      OG301      1    ECL     O5     14     -0.342     15.999   ;
    15      CG321      1    ECL    C10     15     -0.009     12.011   ;
    16      CG321      1    ECL    C11     16     -0.009     12.011   ;
    17      OG301      1    ECL     O6     17     -0.342     15.999   ;
    18      CG321      1    ECL    C12     18     -0.006     12.011   ;
    19      CG321      1    ECL    C13     19      0.084     12.011   ;
    20      OG302      1    ECL     O7     20     -0.492     15.999   ;
    21      CG2O2      1    ECL    C14     21      0.904     12.011   ;
    22      CG321      1    ECL    C15     22     -0.231     12.011   ;
    23      OG2D1      1    ECL     O8     23     -0.631     15.999   ;
    24      CG321      1    ECL    C16     24     -0.178     12.011   ;
    25      CG321      1    ECL    C17     25     -0.188     12.011   ;
    26      CG321      1    ECL    C18     26     -0.169     12.011   ;
    27      CG321      1    ECL    C19     27      0.083     12.011   ;
    28      OG302      1    ECL     O9     28     -0.490     15.999   ;
    29      CG2O2      1    ECL    C20     29      0.904     12.011   ;
    30      CG321      1    ECL    C21     30     -0.231     12.011   ;
    31      CG321      1    ECL    C22     31     -0.178     12.011   ;
    32      CG321      1    ECL    C23     32     -0.188     12.011   ;
    33      CG321      1    ECL    C24     33     -0.169     12.011   ;
    34      OG2D1      1    ECL    O10     34     -0.631     15.999   ;
    35      CG321      1    ECL    C25     35      0.083     12.011   ;
    36      OG302      1    ECL    O11     36     -0.490     15.999   ;
    37      CG2O2      1    ECL    C26     37      0.904     12.011   ;
    38      CG321      1    ECL    C27     38     -0.231     12.011   ;
    39      OG2D1      1    ECL    O12     39     -0.631     15.999   ;
    40      CG321      1    ECL    C28     40     -0.178     12.011   ;
    41      CG321      1    ECL    C29     41     -0.188     12.011   ;
    42      CG321      1    ECL    C30     42     -0.169     12.011   ;
    43      CG321      1    ECL    C31     43      0.083     12.011   ;
    44      OG302      1    ECL    O13     44     -0.490     15.999   ;
    45      CG2O2      1    ECL    C32     45      0.904     12.011   ;
    46      CG321      1    ECL    C33     46     -0.231     12.011   ;
    47      OG2D1      1    ECL    O14     47     -0.631     15.999   ;
    48      CG321      1    ECL    C34     48     -0.178     12.011   ;
    49      CG321      1    ECL    C35     49     -0.188     12.011   ;
    50      CG321      1    ECL    C36     50     -0.169     12.011   ;
    51      CG321      1    ECL    C37     51      0.083     12.011   ;
    52      OG302      1    ECL    O15     52     -0.490     15.999   ;
    53      CG2O2      1    ECL    C38     53      0.904     12.011   ;
    54      CG321      1    ECL    C39     54     -0.231     12.011   ;
    55      OG2D1      1    ECL    O16     55     -0.631     15.999   ;
    56      CG321      1    ECL    C40     56     -0.178     12.011   ;
    57      CG321      1    ECL    C41     57     -0.188     12.011   ;
    58      CG321      1    ECL    C42     58     -0.169     12.011   ;
    59      CG321      1    ECL    C43     59      0.083     12.011   ;
    60      OG302      1    ECL    O17     60     -0.490     15.999   ;
    61      CG2O2      1    ECL    C44     61      0.904     12.011   ;
    62      CG321      1    ECL    C45     62     -0.231     12.011   ;
    63      OG2D1      1    ECL    O18     63     -0.631     15.999   ;
    64      CG321      1    ECL    C46     64     -0.178     12.011   ;
    65      CG321      1    ECL    C47     65     -0.179     12.011   ;
    66      CG321      1    ECL    C48     66     -0.179     12.011   ;
    67      CG321      1    ECL    C49     67      0.050     12.011   ;
    68      OG311      1    ECL    O19     68     -0.650     15.999   ;
    69       HGA3      1    ECL     H1     69      0.090      1.008   ;
    70       HGA3      1    ECL     H2     70      0.090      1.008   ;
    71       HGA3      1    ECL     H3     71      0.090      1.008   ;
    72       HGA2      1    ECL     H4     72      0.090      1.008   ;
    73       HGA2      1    ECL     H5     73      0.090      1.008   ;
    74       HGA2      1    ECL     H6     74      0.090      1.008   ;
    75       HGA2      1    ECL     H7     75      0.090      1.008   ;
    76       HGA2      1    ECL     H8     76      0.090      1.008   ;
    77       HGA2      1    ECL     H9     77      0.090      1.008   ;
    78       HGA2      1    ECL    H10     78      0.090      1.008   ;
    79       HGA2      1    ECL    H11     79      0.090      1.008   ;
    80       HGA2      1    ECL    H12     80      0.090      1.008   ;
    81       HGA2      1    ECL    H13     81      0.090      1.008   ;
    82       HGA2      1    ECL    H14     82      0.090      1.008   ;
    83       HGA2      1    ECL    H15     83      0.090      1.008   ;
    84       HGA2      1    ECL    H16     84      0.090      1.008   ;
    85       HGA2      1    ECL    H17     85      0.090      1.008   ;
    86       HGA2      1    ECL    H18     86      0.090      1.008   ;
    87       HGA2      1    ECL    H19     87      0.090      1.008   ;
    88       HGA2      1    ECL    H20     88      0.090      1.008   ;
    89       HGA2      1    ECL    H21     89      0.090      1.008   ;
    90       HGA2      1    ECL    H22     90      0.090      1.008   ;
    91       HGA2      1    ECL    H23     91      0.090      1.008   ;
    92       HGA2      1    ECL    H24     92      0.090      1.008   ;
    93       HGA2      1    ECL    H25     93      0.090      1.008   ;
    94       HGA2      1    ECL    H26     94      0.090      1.008   ;
    95       HGA2      1    ECL    H27     95      0.090      1.008   ;
    96       HGA2      1    ECL    H28     96      0.090      1.008   ;
    97       HGA2      1    ECL    H29     97      0.090      1.008   ;
    98       HGA2      1    ECL    H30     98      0.090      1.008   ;
    99       HGA2      1    ECL    H31     99      0.090      1.008   ;
   100       HGA2      1    ECL    H32    100      0.090      1.008   ;
   101       HGA2      1    ECL    H33    101      0.090      1.008   ;
   102       HGA2      1    ECL    H34    102      0.090      1.008   ;
   103       HGA2      1    ECL    H35    103      0.090      1.008   ;
   104       HGA2      1    ECL    H36    104      0.090      1.008   ;
   105       HGA2      1    ECL    H37    105      0.090      1.008   ;
   106       HGA2      1    ECL    H38    106      0.090      1.008   ;
   107       HGA2      1    ECL    H39    107      0.090      1.008   ;
   108       HGA2      1    ECL    H40    108      0.090      1.008   ;
   109       HGA2      1    ECL    H41    109      0.090      1.008   ;
   110       HGA2      1    ECL    H42    110      0.090      1.008   ;
   111       HGA2      1    ECL    H43    111      0.090      1.008   ;
   112       HGA2      1    ECL    H44    112      0.090      1.008   ;
   113       HGA2      1    ECL    H45    113      0.090      1.008   ;
   114       HGA2      1    ECL    H46    114      0.090      1.008   ;
   115       HGA2      1    ECL    H47    115      0.090      1.008   ;
   116       HGA2      1    ECL    H48    116      0.090      1.008   ;
   117       HGA2      1    ECL    H49    117      0.090      1.008   ;
   118       HGA2      1    ECL    H50    118      0.090      1.008   ;
   119       HGA2      1    ECL    H51    119      0.090      1.008   ;
   120       HGA2      1    ECL    H52    120      0.090      1.008   ;
   121       HGA2      1    ECL    H53    121      0.090      1.008   ;
   122       HGA2      1    ECL    H54    122      0.090      1.008   ;
   123       HGA2      1    ECL    H55    123      0.090      1.008   ;
   124       HGA2      1    ECL    H56    124      0.090      1.008   ;
   125       HGA2      1    ECL    H57    125      0.090      1.008   ;
   126       HGA2      1    ECL    H58    126      0.090      1.008   ;
   127       HGA2      1    ECL    H59    127      0.090      1.008   ;
   128       HGA2      1    ECL    H60    128      0.090      1.008   ;
   129       HGA2      1    ECL    H61    129      0.090      1.008   ;
   130       HGA2      1    ECL    H62    130      0.090      1.008   ;
   131       HGA2      1    ECL    H63    131      0.090      1.008   ;
   132       HGA2      1    ECL    H64    132      0.090      1.008   ;
   133       HGA2      1    ECL    H65    133      0.090      1.008   ;
   134       HGA2      1    ECL    H66    134      0.090      1.008   ;
   135       HGA2      1    ECL    H67    135      0.090      1.008   ;
   136       HGA2      1    ECL    H68    136      0.090      1.008   ;
   137       HGA2      1    ECL    H69    137      0.090      1.008   ;
   138       HGA2      1    ECL    H70    138      0.090      1.008   ;
   139       HGA2      1    ECL    H71    139      0.090      1.008   ;
   140       HGA2      1    ECL    H72    140      0.090      1.008   ;
   141       HGA2      1    ECL    H73    141      0.090      1.008   ;
   142       HGA2      1    ECL    H74    142      0.090      1.008   ;
   143       HGA2      1    ECL    H75    143      0.090      1.008   ;
   144       HGA2      1    ECL    H76    144      0.090      1.008   ;
   145       HGA2      1    ECL    H77    145      0.090      1.008   ;
   146       HGA2      1    ECL    H78    146      0.090      1.008   ;
   147       HGA2      1    ECL    H79    147      0.090      1.008   ;
   148       HGA2      1    ECL    H80    148      0.090      1.008   ;
   149       HGA2      1    ECL    H81    149      0.090      1.008   ;
   150       HGA2      1    ECL    H82    150      0.090      1.008   ;
   151       HGA2      1    ECL    H83    151      0.090      1.008   ;
   152       HGA2      1    ECL    H84    152      0.090      1.008   ;
   153       HGA2      1    ECL    H85    153      0.090      1.008   ;
   154       HGA2      1    ECL    H86    154      0.090      1.008   ;
   155       HGA2      1    ECL    H87    155      0.090      1.008   ;
   156       HGP1      1    ECL    H88    156      0.419      1.008   ;

[ bonds ]
;	ai	  aj funct			  c0			c1			  c2			c3
    1     2	 1
    1    69	 1
    1    70	 1
    1    71	 1
    2     3	 1
    3    73	 1
    3     4	 1
    3    72	 1
    4    74	 1
    4     5	 1
    4    75	 1
    5     6	 1
    6    77	 1
    6    76	 1
    6     7	 1
    7    79	 1
    7    78	 1
    7     8	 1
    8     9	 1
    9    81	 1
    9    10	 1
    9    80	 1
   10    82	 1
   10    11	 1
   10    83	 1
   11    12	 1
   12    85	 1
   12    84	 1
   12    13	 1
   13    14	 1
   13    87	 1
   13    86	 1
   14    15	 1
   15    89	 1
   15    88	 1
   15    16	 1
   16    17	 1
   16    90	 1
   16    91	 1
   17    18	 1
   18    19	 1
   18    92	 1
   18    93	 1
   19    20	 1
   19    94	 1
   19    95	 1
   20    21	 1
   21    22	 1
   21    23	 1
   22    97	 1
   22    96	 1
   22    24	 1
   24    25	 1
   24    98	 1
   24    99	 1
   25    26	 1
   25   100	 1
   25   101	 1
   26    27	 1
   26   102	 1
   26   103	 1
   27   105	 1
   27    28	 1
   27   104	 1
   28    29	 1
   29    34	 1
   29    30	 1
   30   106	 1
   30   107	 1
   30    31	 1
   31   108	 1
   31   109	 1
   31    32	 1
   32    33	 1
   32   111	 1
   32   110	 1
   33   113	 1
   33    35	 1
   33   112	 1
   35   114	 1
   35   115	 1
   35    36	 1
   36    37	 1
   37    38	 1
   37    39	 1
   38   117	 1
   38   116	 1
   38    40	 1
   40    41	 1
   40   119	 1
   40   118	 1
   41   121	 1
   41    42	 1
   41   120	 1
   42   122	 1
   42    43	 1
   42   123	 1
   43   124	 1
   43    44	 1
   43   125	 1
   44    45	 1
   45    46	 1
   45    47	 1
   46   126	 1
   46   127	 1
   46    48	 1
   48    49	 1
   48   129	 1
   48   128	 1
   49   130	 1
   49    50	 1
   49   131	 1
   50    51	 1
   50   132	 1
   50   133	 1
   51    52	 1
   51   134	 1
   51   135	 1
   52    53	 1
   53    54	 1
   53    55	 1
   54   137	 1
   54   136	 1
   54    56	 1
   56    57	 1
   56   138	 1
   56   139	 1
   57    58	 1
   57   140	 1
   57   141	 1
   58    59	 1
   58   142	 1
   58   143	 1
   59   145	 1
   59    60	 1
   59   144	 1
   60    61	 1
   61    62	 1
   61    63	 1
   62   146	 1
   62   147	 1
   62    64	 1
   64    65	 1
   64   148	 1
   64   149	 1
   65    66	 1
   65   150	 1
   65   151	 1
   66   153	 1
   66    67	 1
   66   152	 1
   67   155	 1
   67    68	 1
   67   154	 1
   68   156	 1

[ pairs ]
;	ai	  aj funct			  c0			c1			  c2			c3
    1    73	 1
    1     4	 1
    1    72	 1
    2    74	 1
    2    75	 1
    2     5	 1
    3    69	 1
    3    70	 1
    3    71	 1
    3     6	 1
    4    76	 1
    4    77	 1
    4     7	 1
    5     8	 1
    5    73	 1
    5    72	 1
    5    78	 1
    5    79	 1
    6     9	 1
    6    74	 1
    6    75	 1
    7    81	 1
    7    10	 1
    7    80	 1
    8    11	 1
    8    76	 1
    8    77	 1
    8    82	 1
    8    83	 1
    9    12	 1
    9    79	 1
    9    78	 1
   10    13	 1
   10    84	 1
   10    85	 1
   11    14	 1
   11    80	 1
   11    81	 1
   11    86	 1
   11    87	 1
   12    82	 1
   12    83	 1
   12    15	 1
   13    89	 1
   13    16	 1
   13    88	 1
   14    17	 1
   14    84	 1
   14    85	 1
   14    90	 1
   14    91	 1
   15    18	 1
   15    86	 1
   15    87	 1
   16    93	 1
   16    19	 1
   16    92	 1
   17    20	 1
   17    88	 1
   17    89	 1
   17    94	 1
   17    95	 1
   18    90	 1
   18    91	 1
   18    21	 1
   19    22	 1
   19    23	 1
   20    97	 1
   20    24	 1
   20    92	 1
   20    93	 1
   20    96	 1
   21    98	 1
   21    99	 1
   21    25	 1
   21    94	 1
   21    95	 1
   22    26	 1
   22   100	 1
   22   101	 1
   23    97	 1
   23    24	 1
   23    96	 1
   24   103	 1
   24    27	 1
   24   102	 1
   25    97	 1
   25   104	 1
   25   105	 1
   25    28	 1
   25    96	 1
   26    98	 1
   26    99	 1
   26    29	 1
   27    34	 1
   27   100	 1
   27   101	 1
   27    30	 1
   28   102	 1
   28   103	 1
   28   106	 1
   28   107	 1
   28    31	 1
   29   104	 1
   29   105	 1
   29   108	 1
   29   109	 1
   29    32	 1
   30    33	 1
   30   110	 1
   30   111	 1
   31   113	 1
   31    34	 1
   31    35	 1
   31   112	 1
   32    36	 1
   32   106	 1
   32   107	 1
   32   114	 1
   32   115	 1
   33    37	 1
   33   108	 1
   33   109	 1
   34   106	 1
   34   107	 1
   35    39	 1
   35   110	 1
   35   111	 1
   35    38	 1
   36    40	 1
   36   112	 1
   36   113	 1
   36   116	 1
   36   117	 1
   37    41	 1
   37   114	 1
   37   115	 1
   37   118	 1
   37   119	 1
   38   121	 1
   38    42	 1
   38   120	 1
   39   116	 1
   39   117	 1
   39    40	 1
   40   122	 1
   40    43	 1
   40   123	 1
   41    44	 1
   41   116	 1
   41   117	 1
   41   124	 1
   41   125	 1
   42    45	 1
   42   119	 1
   42   118	 1
   43   121	 1
   43    46	 1
   43    47	 1
   43   120	 1
   44    48	 1
   44   122	 1
   44   123	 1
   44   126	 1
   44   127	 1
   45   129	 1
   45    49	 1
   45   124	 1
   45   125	 1
   45   128	 1
   46   130	 1
   46   131	 1
   46    50	 1
   47   126	 1
   47   127	 1
   47    48	 1
   48   133	 1
   48    51	 1
   48   132	 1
   49   134	 1
   49   135	 1
   49    52	 1
   49   126	 1
   49   127	 1
   50   129	 1
   50    53	 1
   50   128	 1
   51   130	 1
   51   131	 1
   51    54	 1
   51    55	 1
   52   132	 1
   52   133	 1
   52   136	 1
   52   137	 1
   52    56	 1
   53   134	 1
   53   135	 1
   53   138	 1
   53   139	 1
   53    57	 1
   54    58	 1
   54   140	 1
   54   141	 1
   55   137	 1
   55    56	 1
   55   136	 1
   56    59	 1
   56   142	 1
   56   143	 1
   57   136	 1
   57   137	 1
   57   144	 1
   57   145	 1
   57    60	 1
   58   138	 1
   58   139	 1
   58    61	 1
   59   140	 1
   59   141	 1
   59    62	 1
   59    63	 1
   60   142	 1
   60   143	 1
   60   146	 1
   60   147	 1
   60    64	 1
   61    65	 1
   61   144	 1
   61   145	 1
   61   148	 1
   61   149	 1
   62    66	 1
   62   150	 1
   62   151	 1
   63   146	 1
   63   147	 1
   63    64	 1
   64   153	 1
   64    67	 1
   64   152	 1
   65    68	 1
   65   146	 1
   65   147	 1
   65   154	 1
   65   155	 1
   66   156	 1
   66   148	 1
   66   149	 1
   67   150	 1
   67   151	 1
   68   153	 1
   68   152	 1
   72    74	 1
   72    75	 1
   73    74	 1
   73    75	 1
   76    78	 1
   76    79	 1
   77    78	 1
   77    79	 1
   80    82	 1
   80    83	 1
   81    82	 1
   81    83	 1
   84    87	 1
   84    86	 1
   85    87	 1
   85    86	 1
   88    90	 1
   88    91	 1
   89    90	 1
   89    91	 1
   92    94	 1
   92    95	 1
   93    94	 1
   93    95	 1
   96    98	 1
   96    99	 1
   97    98	 1
   97    99	 1
   98   100	 1
   98   101	 1
   99   100	 1
   99   101	 1
  100   102	 1
  100   103	 1
  101   102	 1
  101   103	 1
  102   104	 1
  102   105	 1
  103   104	 1
  103   105	 1
  106   108	 1
  106   109	 1
  107   108	 1
  107   109	 1
  108   110	 1
  108   111	 1
  109   110	 1
  109   111	 1
  110   112	 1
  110   113	 1
  111   112	 1
  111   113	 1
  112   114	 1
  112   115	 1
  113   114	 1
  113   115	 1
  116   119	 1
  116   118	 1
  117   119	 1
  117   118	 1
  118   120	 1
  118   121	 1
  119   120	 1
  119   121	 1
  120   122	 1
  120   123	 1
  121   122	 1
  121   123	 1
  122   124	 1
  122   125	 1
  123   124	 1
  123   125	 1
  126   129	 1
  126   128	 1
  127   129	 1
  127   128	 1
  128   130	 1
  128   131	 1
  129   130	 1
  129   131	 1
  130   132	 1
  130   133	 1
  131   132	 1
  131   133	 1
  132   134	 1
  132   135	 1
  133   134	 1
  133   135	 1
  136   138	 1
  136   139	 1
  137   138	 1
  137   139	 1
  138   140	 1
  138   141	 1
  139   140	 1
  139   141	 1
  140   142	 1
  140   143	 1
  141   142	 1
  141   143	 1
  142   144	 1
  142   145	 1
  143   144	 1
  143   145	 1
  146   149	 1
  146   148	 1
  147   149	 1
  147   148	 1
  148   150	 1
  148   151	 1
  149   150	 1
  149   151	 1
  150   152	 1
  150   153	 1
  151   152	 1
  151   153	 1
  152   154	 1
  152   155	 1
  153   154	 1
  153   155	 1
  154   156	 1
  155   156	 1

[ angles ]
;	ai	  aj	ak funct			c0			  c1			c2			  c3
    2     1    69	5
    2     1    70	5
    2     1    71	5
   69     1    70	5
   69     1    71	5
   70     1    71	5
    1     2     3	5
   73     3     2	5
   73     3     4	5
   73     3    72	5
    2     3     4	5
    2     3    72	5
    4     3    72	5
   74     4     3	5
   74     4     5	5
   74     4    75	5
    3     4     5	5
    3     4    75	5
    5     4    75	5
    4     5     6	5
   77     6    76	5
   77     6     5	5
   77     6     7	5
   76     6     5	5
   76     6     7	5
    5     6     7	5
   79     7     6	5
   79     7    78	5
   79     7     8	5
    6     7    78	5
    6     7     8	5
   78     7     8	5
    9     8     7	5
   81     9    10	5
   81     9    80	5
   81     9     8	5
   10     9    80	5
   10     9     8	5
   80     9     8	5
    9    10    82	5
    9    10    11	5
    9    10    83	5
   82    10    11	5
   82    10    83	5
   11    10    83	5
   10    11    12	5
   85    12    11	5
   85    12    84	5
   85    12    13	5
   11    12    84	5
   11    12    13	5
   84    12    13	5
   12    13    14	5
   12    13    87	5
   12    13    86	5
   14    13    87	5
   14    13    86	5
   87    13    86	5
   13    14    15	5
   89    15    88	5
   89    15    14	5
   89    15    16	5
   88    15    14	5
   88    15    16	5
   14    15    16	5
   17    16    90	5
   17    16    91	5
   17    16    15	5
   90    16    91	5
   90    16    15	5
   91    16    15	5
   18    17    16	5
   17    18    19	5
   17    18    92	5
   17    18    93	5
   19    18    92	5
   19    18    93	5
   92    18    93	5
   18    19    20	5
   18    19    94	5
   18    19    95	5
   20    19    94	5
   20    19    95	5
   94    19    95	5
   19    20    21	5
   20    21    22	5
   20    21    23	5
   22    21    23	5
   97    22    96	5
   97    22    21	5
   97    22    24	5
   96    22    21	5
   96    22    24	5
   21    22    24	5
   25    24    98	5
   25    24    99	5
   25    24    22	5
   98    24    99	5
   98    24    22	5
   99    24    22	5
   26    25   100	5
   26    25   101	5
   26    25    24	5
  100    25   101	5
  100    25    24	5
  101    25    24	5
   25    26    27	5
   25    26   102	5
   25    26   103	5
   27    26   102	5
   27    26   103	5
  102    26   103	5
  105    27    26	5
  105    27    28	5
  105    27   104	5
   26    27    28	5
   26    27   104	5
   28    27   104	5
   27    28    29	5
   34    29    28	5
   34    29    30	5
   28    29    30	5
  106    30   107	5
  106    30    29	5
  106    30    31	5
  107    30    29	5
  107    30    31	5
   29    30    31	5
  108    31   109	5
  108    31    30	5
  108    31    32	5
  109    31    30	5
  109    31    32	5
   30    31    32	5
   33    32   111	5
   33    32   110	5
   33    32    31	5
  111    32   110	5
  111    32    31	5
  110    32    31	5
  113    33    35	5
  113    33   112	5
  113    33    32	5
   35    33   112	5
   35    33    32	5
  112    33    32	5
   33    35   114	5
   33    35   115	5
   33    35    36	5
  114    35   115	5
  114    35    36	5
  115    35    36	5
   35    36    37	5
   36    37    38	5
   36    37    39	5
   38    37    39	5
  117    38   116	5
  117    38    37	5
  117    38    40	5
  116    38    37	5
  116    38    40	5
   37    38    40	5
   41    40    38	5
   41    40   119	5
   41    40   118	5
   38    40   119	5
   38    40   118	5
  119    40   118	5
  121    41    42	5
  121    41   120	5
  121    41    40	5
   42    41   120	5
   42    41    40	5
  120    41    40	5
   41    42   122	5
   41    42    43	5
   41    42   123	5
  122    42    43	5
  122    42   123	5
   43    42   123	5
  124    43    42	5
  124    43    44	5
  124    43   125	5
   42    43    44	5
   42    43   125	5
   44    43   125	5
   43    44    45	5
   44    45    46	5
   44    45    47	5
   46    45    47	5
   45    46   126	5
   45    46   127	5
   45    46    48	5
  126    46   127	5
  126    46    48	5
  127    46    48	5
   49    48   129	5
   49    48    46	5
   49    48   128	5
  129    48    46	5
  129    48   128	5
   46    48   128	5
  130    49    50	5
  130    49   131	5
  130    49    48	5
   50    49   131	5
   50    49    48	5
  131    49    48	5
   49    50    51	5
   49    50   132	5
   49    50   133	5
   51    50   132	5
   51    50   133	5
  132    50   133	5
   50    51    52	5
   50    51   134	5
   50    51   135	5
   52    51   134	5
   52    51   135	5
  134    51   135	5
   51    52    53	5
   52    53    54	5
   52    53    55	5
   54    53    55	5
  137    54   136	5
  137    54    53	5
  137    54    56	5
  136    54    53	5
  136    54    56	5
   53    54    56	5
   57    56   138	5
   57    56   139	5
   57    56    54	5
  138    56   139	5
  138    56    54	5
  139    56    54	5
   58    57   140	5
   58    57   141	5
   58    57    56	5
  140    57   141	5
  140    57    56	5
  141    57    56	5
   57    58    59	5
   57    58   142	5
   57    58   143	5
   59    58   142	5
   59    58   143	5
  142    58   143	5
  145    59    58	5
  145    59    60	5
  145    59   144	5
   58    59    60	5
   58    59   144	5
   60    59   144	5
   59    60    61	5
   60    61    62	5
   60    61    63	5
   62    61    63	5
  146    62   147	5
  146    62    61	5
  146    62    64	5
  147    62    61	5
  147    62    64	5
   61    62    64	5
   65    64   148	5
   65    64   149	5
   65    64    62	5
  148    64   149	5
  148    64    62	5
  149    64    62	5
   66    65   150	5
   66    65   151	5
   66    65    64	5
  150    65   151	5
  150    65    64	5
  151    65    64	5
   65    66   153	5
   65    66    67	5
   65    66   152	5
  153    66    67	5
  153    66   152	5
   67    66   152	5
   66    67   155	5
   66    67    68	5
   66    67   154	5
  155    67    68	5
  155    67   154	5
   68    67   154	5
   67    68   156	5

[ dihedrals ]
;	ai	  aj	ak	  al funct			  c0			c1			  c2			c3			  c4			c5
   69     1     2     3	 9
   70     1     2     3	 9
   71     1     2     3	 9
    1     2     3    73	 9
    1     2     3     4	 9
    1     2     3    72	 9
   73     3     4    74	 9
   73     3     4     5	 9
   73     3     4    75	 9
    2     3     4    74	 9
    2     3     4     5	 9
    2     3     4    75	 9
   72     3     4    74	 9
   72     3     4     5	 9
   72     3     4    75	 9
   74     4     5     6	 9
    3     4     5     6	 9
   75     4     5     6	 9
    4     5     6    77	 9
    4     5     6    76	 9
    4     5     6     7	 9
   77     6     7    79	 9
   77     6     7    78	 9
   77     6     7     8	 9
   76     6     7    79	 9
   76     6     7    78	 9
   76     6     7     8	 9
    5     6     7    79	 9
    5     6     7    78	 9
    5     6     7     8	 9
   79     7     8     9	 9
    6     7     8     9	 9
   78     7     8     9	 9
    7     8     9    81	 9
    7     8     9    10	 9
    7     8     9    80	 9
   81     9    10    82	 9
   81     9    10    11	 9
   81     9    10    83	 9
   80     9    10    82	 9
   80     9    10    11	 9
   80     9    10    83	 9
    8     9    10    82	 9
    8     9    10    11	 9
    8     9    10    83	 9
    9    10    11    12	 9
   82    10    11    12	 9
   83    10    11    12	 9
   10    11    12    85	 9
   10    11    12    84	 9
   10    11    12    13	 9
   85    12    13    14	 9
   85    12    13    87	 9
   85    12    13    86	 9
   11    12    13    14	 9
   11    12    13    87	 9
   11    12    13    86	 9
   84    12    13    14	 9
   84    12    13    87	 9
   84    12    13    86	 9
   12    13    14    15	 9
   87    13    14    15	 9
   86    13    14    15	 9
   13    14    15    89	 9
   13    14    15    88	 9
   13    14    15    16	 9
   89    15    16    17	 9
   89    15    16    90	 9
   89    15    16    91	 9
   88    15    16    17	 9
   88    15    16    90	 9
   88    15    16    91	 9
   14    15    16    17	 9
   14    15    16    90	 9
   14    15    16    91	 9
   90    16    17    18	 9
   91    16    17    18	 9
   15    16    17    18	 9
   16    17    18    19	 9
   16    17    18    92	 9
   16    17    18    93	 9
   17    18    19    20	 9
   17    18    19    94	 9
   17    18    19    95	 9
   92    18    19    20	 9
   92    18    19    94	 9
   92    18    19    95	 9
   93    18    19    20	 9
   93    18    19    94	 9
   93    18    19    95	 9
   18    19    20    21	 9
   94    19    20    21	 9
   95    19    20    21	 9
   19    20    21    22	 9
   19    20    21    23	 9
   20    21    22    97	 9
   20    21    22    96	 9
   20    21    22    24	 9
   23    21    22    97	 9
   23    21    22    96	 9
   23    21    22    24	 9
   97    22    24    25	 9
   97    22    24    98	 9
   97    22    24    99	 9
   96    22    24    25	 9
   96    22    24    98	 9
   96    22    24    99	 9
   21    22    24    25	 9
   21    22    24    98	 9
   21    22    24    99	 9
   98    24    25    26	 9
   98    24    25   100	 9
   98    24    25   101	 9
   99    24    25    26	 9
   99    24    25   100	 9
   99    24    25   101	 9
   22    24    25    26	 9
   22    24    25   100	 9
   22    24    25   101	 9
  100    25    26    27	 9
  100    25    26   102	 9
  100    25    26   103	 9
  101    25    26    27	 9
  101    25    26   102	 9
  101    25    26   103	 9
   24    25    26    27	 9
   24    25    26   102	 9
   24    25    26   103	 9
   25    26    27   105	 9
   25    26    27    28	 9
   25    26    27   104	 9
  102    26    27   105	 9
  102    26    27    28	 9
  102    26    27   104	 9
  103    26    27   105	 9
  103    26    27    28	 9
  103    26    27   104	 9
  105    27    28    29	 9
   26    27    28    29	 9
  104    27    28    29	 9
   27    28    29    34	 9
   27    28    29    30	 9
   34    29    30   106	 9
   34    29    30   107	 9
   34    29    30    31	 9
   28    29    30   106	 9
   28    29    30   107	 9
   28    29    30    31	 9
  106    30    31   108	 9
  106    30    31   109	 9
  106    30    31    32	 9
  107    30    31   108	 9
  107    30    31   109	 9
  107    30    31    32	 9
   29    30    31   108	 9
   29    30    31   109	 9
   29    30    31    32	 9
  108    31    32    33	 9
  108    31    32   111	 9
  108    31    32   110	 9
  109    31    32    33	 9
  109    31    32   111	 9
  109    31    32   110	 9
   30    31    32    33	 9
   30    31    32   111	 9
   30    31    32   110	 9
  111    32    33   113	 9
  111    32    33    35	 9
  111    32    33   112	 9
  110    32    33   113	 9
  110    32    33    35	 9
  110    32    33   112	 9
   31    32    33   113	 9
   31    32    33    35	 9
   31    32    33   112	 9
  113    33    35   114	 9
  113    33    35   115	 9
  113    33    35    36	 9
  112    33    35   114	 9
  112    33    35   115	 9
  112    33    35    36	 9
   32    33    35   114	 9
   32    33    35   115	 9
   32    33    35    36	 9
   33    35    36    37	 9
  114    35    36    37	 9
  115    35    36    37	 9
   35    36    37    38	 9
   35    36    37    39	 9
   36    37    38   117	 9
   36    37    38   116	 9
   36    37    38    40	 9
   39    37    38   117	 9
   39    37    38   116	 9
   39    37    38    40	 9
  117    38    40    41	 9
  117    38    40   119	 9
  117    38    40   118	 9
  116    38    40    41	 9
  116    38    40   119	 9
  116    38    40   118	 9
   37    38    40    41	 9
   37    38    40   119	 9
   37    38    40   118	 9
   38    40    41   121	 9
   38    40    41    42	 9
   38    40    41   120	 9
  119    40    41   121	 9
  119    40    41    42	 9
  119    40    41   120	 9
  118    40    41   121	 9
  118    40    41    42	 9
  118    40    41   120	 9
  121    41    42   122	 9
  121    41    42    43	 9
  121    41    42   123	 9
  120    41    42   122	 9
  120    41    42    43	 9
  120    41    42   123	 9
   40    41    42   122	 9
   40    41    42    43	 9
   40    41    42   123	 9
   41    42    43   124	 9
   41    42    43    44	 9
   41    42    43   125	 9
  122    42    43   124	 9
  122    42    43    44	 9
  122    42    43   125	 9
  123    42    43   124	 9
  123    42    43    44	 9
  123    42    43   125	 9
  124    43    44    45	 9
   42    43    44    45	 9
  125    43    44    45	 9
   43    44    45    46	 9
   43    44    45    47	 9
   44    45    46   126	 9
   44    45    46   127	 9
   44    45    46    48	 9
   47    45    46   126	 9
   47    45    46   127	 9
   47    45    46    48	 9
   45    46    48    49	 9
   45    46    48   129	 9
   45    46    48   128	 9
  126    46    48    49	 9
  126    46    48   129	 9
  126    46    48   128	 9
  127    46    48    49	 9
  127    46    48   129	 9
  127    46    48   128	 9
  129    48    49   130	 9
  129    48    49    50	 9
  129    48    49   131	 9
   46    48    49   130	 9
   46    48    49    50	 9
   46    48    49   131	 9
  128    48    49   130	 9
  128    48    49    50	 9
  128    48    49   131	 9
  130    49    50    51	 9
  130    49    50   132	 9
  130    49    50   133	 9
  131    49    50    51	 9
  131    49    50   132	 9
  131    49    50   133	 9
   48    49    50    51	 9
   48    49    50   132	 9
   48    49    50   133	 9
   49    50    51    52	 9
   49    50    51   134	 9
   49    50    51   135	 9
  132    50    51    52	 9
  132    50    51   134	 9
  132    50    51   135	 9
  133    50    51    52	 9
  133    50    51   134	 9
  133    50    51   135	 9
   50    51    52    53	 9
  134    51    52    53	 9
  135    51    52    53	 9
   51    52    53    54	 9
   51    52    53    55	 9
   52    53    54   137	 9
   52    53    54   136	 9
   52    53    54    56	 9
   55    53    54   137	 9
   55    53    54   136	 9
   55    53    54    56	 9
  137    54    56    57	 9
  137    54    56   138	 9
  137    54    56   139	 9
  136    54    56    57	 9
  136    54    56   138	 9
  136    54    56   139	 9
   53    54    56    57	 9
   53    54    56   138	 9
   53    54    56   139	 9
  138    56    57    58	 9
  138    56    57   140	 9
  138    56    57   141	 9
  139    56    57    58	 9
  139    56    57   140	 9
  139    56    57   141	 9
   54    56    57    58	 9
   54    56    57   140	 9
   54    56    57   141	 9
  140    57    58    59	 9
  140    57    58   142	 9
  140    57    58   143	 9
  141    57    58    59	 9
  141    57    58   142	 9
  141    57    58   143	 9
   56    57    58    59	 9
   56    57    58   142	 9
   56    57    58   143	 9
   57    58    59   145	 9
   57    58    59    60	 9
   57    58    59   144	 9
  142    58    59   145	 9
  142    58    59    60	 9
  142    58    59   144	 9
  143    58    59   145	 9
  143    58    59    60	 9
  143    58    59   144	 9
  145    59    60    61	 9
   58    59    60    61	 9
  144    59    60    61	 9
   59    60    61    62	 9
   59    60    61    63	 9
   60    61    62   146	 9
   60    61    62   147	 9
   60    61    62    64	 9
   63    61    62   146	 9
   63    61    62   147	 9
   63    61    62    64	 9
  146    62    64    65	 9
  146    62    64   148	 9
  146    62    64   149	 9
  147    62    64    65	 9
  147    62    64   148	 9
  147    62    64   149	 9
   61    62    64    65	 9
   61    62    64   148	 9
   61    62    64   149	 9
  148    64    65    66	 9
  148    64    65   150	 9
  148    64    65   151	 9
  149    64    65    66	 9
  149    64    65   150	 9
  149    64    65   151	 9
   62    64    65    66	 9
   62    64    65   150	 9
   62    64    65   151	 9
  150    65    66   153	 9
  150    65    66    67	 9
  150    65    66   152	 9
  151    65    66   153	 9
  151    65    66    67	 9
  151    65    66   152	 9
   64    65    66   153	 9
   64    65    66    67	 9
   64    65    66   152	 9
   65    66    67   155	 9
   65    66    67    68	 9
   65    66    67   154	 9
  153    66    67   155	 9
  153    66    67    68	 9
  153    66    67   154	 9
  152    66    67   155	 9
  152    66    67    68	 9
  152    66    67   154	 9
   66    67    68   156	 9
  155    67    68   156	 9
  154    67    68   156	 9

[ dihedrals ]
;	ai	  aj	ak	  al funct			  c0			c1			  c2			c3
   21    22    23    20	 2
   29    30    34    28	 2
   37    38    39    36	 2
   45    46    47    44	 2
   53    54    55    52	 2
   61    62    63    60	 2

