; Created by cgenff_charmm2gmx.py

[ moleculetype ]
; Name			   nrexcl
ECL				 3

[ atoms ]
;	 nr		  type	resnr residue  atom   cgnr	   charge		mass  typeB    chargeB		massB
; residue	 1 ECL rtp ECL q	qsum
     1      CG331      1    ECL     C1      1     -0.098     12.011   ;
     2      OG301      1    ECL     O1      2     -0.343     15.999   ;
     3      CG321      1    ECL     C2      3     -0.009     12.011   ;
     4      CG321      1    ECL     C3      4     -0.009     12.011   ;
     5      OG301      1    ECL     O2      5     -0.342     15.999   ;
     6      CG321      1    ECL     C4      6     -0.009     12.011   ;
     7      CG321      1    ECL     C5      7     -0.009     12.011   ;
     8      OG301      1    ECL     O3      8     -0.342     15.999   ;
     9      CG321      1    ECL     C6      9     -0.009     12.011   ;
    10      CG321      1    ECL     C7     10     -0.009     12.011   ;
    11      OG301      1    ECL     O4     11     -0.342     15.999   ;
    12      CG321      1    ECL     C8     12     -0.009     12.011   ;
    13      CG321      1    ECL     C9     13     -0.009     12.011   ;
    14      OG301      1    ECL     O5     14     -0.342     15.999   ;
    15      CG321      1    ECL    C10     15     -0.009     12.011   ;
    16      CG321      1    ECL    C11     16     -0.009     12.011   ;
    17      OG301      1    ECL     O6     17     -0.342     15.999   ;
    18      CG321      1    ECL    C12     18     -0.006     12.011   ;
    19      CG321      1    ECL    C13     19      0.084     12.011   ;
    20      OG302      1    ECL     O7     20     -0.492     15.999   ;
    21      CG2O2      1    ECL    C14     21      0.904     12.011   ;
    22      CG321      1    ECL    C15     22     -0.231     12.011   ;
    23      OG2D1      1    ECL     O8     23     -0.631     15.999   ;
    24      CG321      1    ECL    C16     24     -0.178     12.011   ;
    25      CG321      1    ECL    C17     25     -0.188     12.011   ;
    26      CG321      1    ECL    C18     26     -0.169     12.011   ;
    27      CG321      1    ECL    C19     27      0.083     12.011   ;
    28      OG302      1    ECL     O9     28     -0.490     15.999   ;
    29      CG2O2      1    ECL    C20     29      0.904     12.011   ;
    30      CG321      1    ECL    C21     30     -0.231     12.011   ;
    31      CG321      1    ECL    C22     31     -0.178     12.011   ;
    32      CG321      1    ECL    C23     32     -0.188     12.011   ;
    33      CG321      1    ECL    C24     33     -0.169     12.011   ;
    34      OG2D1      1    ECL    O10     34     -0.631     15.999   ;
    35      CG321      1    ECL    C25     35      0.083     12.011   ;
    36      OG302      1    ECL    O11     36     -0.490     15.999   ;
    37      CG2O2      1    ECL    C26     37      0.904     12.011   ;
    38      CG321      1    ECL    C27     38     -0.231     12.011   ;
    39      OG2D1      1    ECL    O12     39     -0.631     15.999   ;
    40      CG321      1    ECL    C28     40     -0.178     12.011   ;
    41      CG321      1    ECL    C29     41     -0.188     12.011   ;
    42      CG321      1    ECL    C30     42     -0.169     12.011   ;
    43      CG321      1    ECL    C31     43      0.083     12.011   ;
    44      OG302      1    ECL    O13     44     -0.490     15.999   ;
    45      CG2O2      1    ECL    C32     45      0.904     12.011   ;
    46      CG321      1    ECL    C33     46     -0.231     12.011   ;
    47      OG2D1      1    ECL    O14     47     -0.631     15.999   ;
    48      CG321      1    ECL    C34     48     -0.178     12.011   ;
    49      CG321      1    ECL    C35     49     -0.188     12.011   ;
    50      CG321      1    ECL    C36     50     -0.169     12.011   ;
    51      CG321      1    ECL    C37     51      0.083     12.011   ;
    52      OG302      1    ECL    O15     52     -0.490     15.999   ;
    53      CG2O2      1    ECL    C38     53      0.904     12.011   ;
    54      CG321      1    ECL    C39     54     -0.231     12.011   ;
    55      OG2D1      1    ECL    O16     55     -0.631     15.999   ;
    56      CG321      1    ECL    C40     56     -0.178     12.011   ;
    57      CG321      1    ECL    C41     57     -0.188     12.011   ;
    58      CG321      1    ECL    C42     58     -0.169     12.011   ;
    59      CG321      1    ECL    C43     59      0.083     12.011   ;
    60      OG302      1    ECL    O17     60     -0.490     15.999   ;
    61      CG2O2      1    ECL    C44     61      0.904     12.011   ;
    62      CG321      1    ECL    C45     62     -0.231     12.011   ;
    63      OG2D1      1    ECL    O18     63     -0.631     15.999   ;
    64      CG321      1    ECL    C46     64     -0.178     12.011   ;
    65      CG321      1    ECL    C47     65     -0.179     12.011   ;
    66      CG321      1    ECL    C48     66     -0.179     12.011   ;
    67      CG321      1    ECL    C49     67      0.050     12.011   ;
    68      OG311      1    ECL    O19     68     -0.650     15.999   ;
    69       HGA3      1    ECL     H1     69      0.090      1.008   ;
    70       HGA3      1    ECL     H2     70      0.090      1.008   ;
    71       HGA3      1    ECL     H3     71      0.090      1.008   ;
    72       HGA2      1    ECL     H4     72      0.090      1.008   ;
    73       HGA2      1    ECL     H5     73      0.090      1.008   ;
    74       HGA2      1    ECL     H6     74      0.090      1.008   ;
    75       HGA2      1    ECL     H7     75      0.090      1.008   ;
    76       HGA2      1    ECL     H8     76      0.090      1.008   ;
    77       HGA2      1    ECL     H9     77      0.090      1.008   ;
    78       HGA2      1    ECL    H10     78      0.090      1.008   ;
    79       HGA2      1    ECL    H11     79      0.090      1.008   ;
    80       HGA2      1    ECL    H12     80      0.090      1.008   ;
    81       HGA2      1    ECL    H13     81      0.090      1.008   ;
    82       HGA2      1    ECL    H14     82      0.090      1.008   ;
    83       HGA2      1    ECL    H15     83      0.090      1.008   ;
    84       HGA2      1    ECL    H16     84      0.090      1.008   ;
    85       HGA2      1    ECL    H17     85      0.090      1.008   ;
    86       HGA2      1    ECL    H18     86      0.090      1.008   ;
    87       HGA2      1    ECL    H19     87      0.090      1.008   ;
    88       HGA2      1    ECL    H20     88      0.090      1.008   ;
    89       HGA2      1    ECL    H21     89      0.090      1.008   ;
    90       HGA2      1    ECL    H22     90      0.090      1.008   ;
    91       HGA2      1    ECL    H23     91      0.090      1.008   ;
    92       HGA2      1    ECL    H24     92      0.090      1.008   ;
    93       HGA2      1    ECL    H25     93      0.090      1.008   ;
    94       HGA2      1    ECL    H26     94      0.090      1.008   ;
    95       HGA2      1    ECL    H27     95      0.090      1.008   ;
    96       HGA2      1    ECL    H28     96      0.090      1.008   ;
    97       HGA2      1    ECL    H29     97      0.090      1.008   ;
    98       HGA2      1    ECL    H30     98      0.090      1.008   ;
    99       HGA2      1    ECL    H31     99      0.090      1.008   ;
   100       HGA2      1    ECL    H32    100      0.090      1.008   ;
   101       HGA2      1    ECL    H33    101      0.090      1.008   ;
   102       HGA2      1    ECL    H34    102      0.090      1.008   ;
   103       HGA2      1    ECL    H35    103      0.090      1.008   ;
   104       HGA2      1    ECL    H36    104      0.090      1.008   ;
   105       HGA2      1    ECL    H37    105      0.090      1.008   ;
   106       HGA2      1    ECL    H38    106      0.090      1.008   ;
   107       HGA2      1    ECL    H39    107      0.090      1.008   ;
   108       HGA2      1    ECL    H40    108      0.090      1.008   ;
   109       HGA2      1    ECL    H41    109      0.090      1.008   ;
   110       HGA2      1    ECL    H42    110      0.090      1.008   ;
   111       HGA2      1    ECL    H43    111      0.090      1.008   ;
   112       HGA2      1    ECL    H44    112      0.090      1.008   ;
   113       HGA2      1    ECL    H45    113      0.090      1.008   ;
   114       HGA2      1    ECL    H46    114      0.090      1.008   ;
   115       HGA2      1    ECL    H47    115      0.090      1.008   ;
   116       HGA2      1    ECL    H48    116      0.090      1.008   ;
   117       HGA2      1    ECL    H49    117      0.090      1.008   ;
   118       HGA2      1    ECL    H50    118      0.090      1.008   ;
   119       HGA2      1    ECL    H51    119      0.090      1.008   ;
   120       HGA2      1    ECL    H52    120      0.090      1.008   ;
   121       HGA2      1    ECL    H53    121      0.090      1.008   ;
   122       HGA2      1    ECL    H54    122      0.090      1.008   ;
   123       HGA2      1    ECL    H55    123      0.090      1.008   ;
   124       HGA2      1    ECL    H56    124      0.090      1.008   ;
   125       HGA2      1    ECL    H57    125      0.090      1.008   ;
   126       HGA2      1    ECL    H58    126      0.090      1.008   ;
   127       HGA2      1    ECL    H59    127      0.090      1.008   ;
   128       HGA2      1    ECL    H60    128      0.090      1.008   ;
   129       HGA2      1    ECL    H61    129      0.090      1.008   ;
   130       HGA2      1    ECL    H62    130      0.090      1.008   ;
   131       HGA2      1    ECL    H63    131      0.090      1.008   ;
   132       HGA2      1    ECL    H64    132      0.090      1.008   ;
   133       HGA2      1    ECL    H65    133      0.090      1.008   ;
   134       HGA2      1    ECL    H66    134      0.090      1.008   ;
   135       HGA2      1    ECL    H67    135      0.090      1.008   ;
   136       HGA2      1    ECL    H68    136      0.090      1.008   ;
   137       HGA2      1    ECL    H69    137      0.090      1.008   ;
   138       HGA2      1    ECL    H70    138      0.090      1.008   ;
   139       HGA2      1    ECL    H71    139      0.090      1.008   ;
   140       HGA2      1    ECL    H72    140      0.090      1.008   ;
   141       HGA2      1    ECL    H73    141      0.090      1.008   ;
   142       HGA2      1    ECL    H74    142      0.090      1.008   ;
   143       HGA2      1    ECL    H75    143      0.090      1.008   ;
   144       HGA2      1    ECL    H76    144      0.090      1.008   ;
   145       HGA2      1    ECL    H77    145      0.090      1.008   ;
   146       HGA2      1    ECL    H78    146      0.090      1.008   ;
   147       HGA2      1    ECL    H79    147      0.090      1.008   ;
   148       HGA2      1    ECL    H80    148      0.090      1.008   ;
   149       HGA2      1    ECL    H81    149      0.090      1.008   ;
   150       HGA2      1    ECL    H82    150      0.090      1.008   ;
   151       HGA2      1    ECL    H83    151      0.090      1.008   ;
   152       HGA2      1    ECL    H84    152      0.090      1.008   ;
   153       HGA2      1    ECL    H85    153      0.090      1.008   ;
   154       HGA2      1    ECL    H86    154      0.090      1.008   ;
   155       HGA2      1    ECL    H87    155      0.090      1.008   ;
   156       HGP1      1    ECL    H88    156      0.419      1.008   ;

[ bonds ]
;	ai	  aj funct			  c0			c1			  c2			c3
    1     2	 1
    1    69	 1
    1    70	 1
    1    71	 1
    2     3	 1
    3    73	 1
    3     4	 1
    3    72	 1
    4    74	 1
    4     5	 1
    4    75	 1
    5     6	 1
    6    77	 1
    6    76	 1
    6     7	 1
    7    79	 1
    7    78	 1
    7     8	 1
    8     9	 1
    9    81	 1
    9    10	 1
    9    80	 1
   10    82	 1
   10    11	 1
   10    83	 1
   11    12	 1
   12    85	 1
   12    84	 1
   12    13	 1
   13    14	 1
   13    87	 1
   13    86	 1
   14    15	 1
   15    89	 1
   15    88	 1
   15    16	 1
   16    17	 1
   16    90	 1
   16    91	 1
   17    18	 1
   18    19	 1
   18    92	 1
   18    93	 1
   19    20	 1
   19    94	 1
   19    95	 1
   20    21	 1
   21    22	 1
   21    23	 1
   22    97	 1
   22    96	 1
   22    24	 1
   24    25	 1
   24    98	 1
   24    99	 1
   25    26	 1
   25   100	 1
   25   101	 1
   26    27	 1
   26   102	 1
   26   103	 1
   27   105	 1
   27    28	 1
   27   104	 1
   28    29	 1
   29    34	 1
   29    30	 1
   30   106	 1
   30   107	 1
   30    31	 1
   31   108	 1
   31   109	 1
   31    32	 1
   32    33	 1
   32   111	 1
   32   110	 1
   33   113	 1
   33    35	 1
   33   112	 1
   35   114	 1
   35   115	 1
   35    36	 1
   36    37	 1
   37    38	 1
   37    39	 1
   38   117	 1
   38   116	 1
   38    40	 1
   40    41	 1
   40   119	 1
   40   118	 1
   41   121	 1
   41    42	 1
   41   120	 1
   42   122	 1
   42    43	 1
   42   123	 1
   43   124	 1
   43    44	 1
   43   125	 1
   44    45	 1
   45    46	 1
   45    47	 1
   46   126	 1
   46   127	 1
   46    48	 1
   48    49	 1
   48   129	 1
   48   128	 1
   49   130	 1
   49    50	 1
   49   131	 1
   50    51	 1
   50   132	 1
   50   133	 1
   51    52	 1
   51   134	 1
   51   135	 1
   52    53	 1
   53    54	 1
   53    55	 1
   54   137	 1
   54   136	 1
   54    56	 1
   56    57	 1
   56   138	 1
   56   139	 1
   57    58	 1
   57   140	 1
   57   141	 1
   58    59	 1
   58   142	 1
   58   143	 1
   59   145	 1
   59    60	 1
   59   144	 1
   60    61	 1
   61    62	 1
   61    63	 1
   62   146	 1
   62   147	 1
   62    64	 1
   64    65	 1
   64   148	 1
   64   149	 1
   65    66	 1
   65   150	 1
   65   151	 1
   66   153	 1
   66    67	 1
   66   152	 1
   67   155	 1
   67    68	 1
   67   154	 1
   68   156	 1

[ pairs ]
;	ai	  aj funct			  c0			c1			  c2			c3
    1    73	 1
    1     4	 1
    1    72	 1
    2    74	 1
    2    75	 1
    2     5	 1
    3    69	 1
    3    70	 1
    3    71	 1
    3     6	 1
    4    76	 1
    4    77	 1
    4     7	 1
    5     8	 1
    5    73	 1
    5    72	 1
    5    78	 1
    5    79	 1
    6     9	 1
    6    74	 1
    6    75	 1
    7    81	 1
    7    10	 1
    7    80	 1
    8    11	 1
    8    76	 1
    8    77	 1
    8    82	 1
    8    83	 1
    9    12	 1
    9    79	 1
    9    78	 1
   10    13	 1
   10    84	 1
   10    85	 1
   11    14	 1
   11    80	 1
   11    81	 1
   11    86	 1
   11    87	 1
   12    82	 1
   12    83	 1
   12    15	 1
   13    89	 1
   13    16	 1
   13    88	 1
   14    17	 1
   14    84	 1
   14    85	 1
   14    90	 1
   14    91	 1
   15    18	 1
   15    86	 1
   15    87	 1
   16    93	 1
   16    19	 1
   16    92	 1
   17    20	 1
   17    88	 1
   17    89	 1
   17    94	 1
   17    95	 1
   18    90	 1
   18    91	 1
   18    21	 1
   19    22	 1
   19    23	 1
   20    97	 1
   20    24	 1
   20    92	 1
   20    93	 1
   20    96	 1
   21    98	 1
   21    99	 1
   21    25	 1
   21    94	 1
   21    95	 1
   22    26	 1
   22   100	 1
   22   101	 1
   23    97	 1
   23    24	 1
   23    96	 1
   24   103	 1
   24    27	 1
   24   102	 1
   25    97	 1
   25   104	 1
   25   105	 1
   25    28	 1
   25    96	 1
   26    98	 1
   26    99	 1
   26    29	 1
   27    34	 1
   27   100	 1
   27   101	 1
   27    30	 1
   28   102	 1
   28   103	 1
   28   106	 1
   28   107	 1
   28    31	 1
   29   104	 1
   29   105	 1
   29   108	 1
   29   109	 1
   29    32	 1
   30    33	 1
   30   110	 1
   30   111	 1
   31   113	 1
   31    34	 1
   31    35	 1
   31   112	 1
   32    36	 1
   32   106	 1
   32   107	 1
   32   114	 1
   32   115	 1
   33    37	 1
   33   108	 1
   33   109	 1
   34   106	 1
   34   107	 1
   35    39	 1
   35   110	 1
   35   111	 1
   35    38	 1
   36    40	 1
   36   112	 1
   36   113	 1
   36   116	 1
   36   117	 1
   37    41	 1
   37   114	 1
   37   115	 1
   37   118	 1
   37   119	 1
   38   121	 1
   38    42	 1
   38   120	 1
   39   116	 1
   39   117	 1
   39    40	 1
   40   122	 1
   40    43	 1
   40   123	 1
   41    44	 1
   41   116	 1
   41   117	 1
   41   124	 1
   41   125	 1
   42    45	 1
   42   119	 1
   42   118	 1
   43   121	 1
   43    46	 1
   43    47	 1
   43   120	 1
   44    48	 1
   44   122	 1
   44   123	 1
   44   126	 1
   44   127	 1
   45   129	 1
   45    49	 1
   45   124	 1
   45   125	 1
   45   128	 1
   46   130	 1
   46   131	 1
   46    50	 1
   47   126	 1
   47   127	 1
   47    48	 1
   48   133	 1
   48    51	 1
   48   132	 1
   49   134	 1
   49   135	 1
   49    52	 1
   49   126	 1
   49   127	 1
   50   129	 1
   50    53	 1
   50   128	 1
   51   130	 1
   51   131	 1
   51    54	 1
   51    55	 1
   52   132	 1
   52   133	 1
   52   136	 1
   52   137	 1
   52    56	 1
   53   134	 1
   53   135	 1
   53   138	 1
   53   139	 1
   53    57	 1
   54    58	 1
   54   140	 1
   54   141	 1
   55   137	 1
   55    56	 1
   55   136	 1
   56    59	 1
   56   142	 1
   56   143	 1
   57   136	 1
   57   137	 1
   57   144	 1
   57   145	 1
   57    60	 1
   58   138	 1
   58   139	 1
   58    61	 1
   59   140	 1
   59   141	 1
   59    62	 1
   59    63	 1
   60   142	 1
   60   143	 1
   60   146	 1
   60   147	 1
   60    64	 1
   61    65	 1
   61   144	 1
   61   145	 1
   61   148	 1
   61   149	 1
   62    66	 1
   62   150	 1
   62   151	 1
   63   146	 1
   63   147	 1
   63    64	 1
   64   153	 1
   64    67	 1
   64   152	 1
   65    68	 1
   65   146	 1
   65   147	 1
   65   154	 1
   65   155	 1
   66   156	 1
   66   148	 1
   66   149	 1
   67   150	 1
   67   151	 1
   68   153	 1
   68   152	 1
   72    74	 1
   72    75	 1
   73    74	 1
   73    75	 1
   76    78	 1
   76    79	 1
   77    78	 1
   77    79	 1
   80    82	 1
   80    83	 1
   81    82	 1
   81    83	 1
   84    87	 1
   84    86	 1
   85    87	 1
   85    86	 1
   88    90	 1
   88    91	 1
   89    90	 1
   89    91	 1
   92    94	 1
   92    95	 1
   93    94	 1
   93    95	 1
   96    98	 1
   96    99	 1
   97    98	 1
   97    99	 1
   98   100	 1
   98   101	 1
   99   100	 1
   99   101	 1
  100   102	 1
  100   103	 1
  101   102	 1
  101   103	 1
  102   104	 1
  102   105	 1
  103   104	 1
  103   105	 1
  106   108	 1
  106   109	 1
  107   108	 1
  107   109	 1
  108   110	 1
  108   111	 1
  109   110	 1
  109   111	 1
  110   112	 1
  110   113	 1
  111   112	 1
  111   113	 1
  112   114	 1
  112   115	 1
  113   114	 1
  113   115	 1
  116   119	 1
  116   118	 1
  117   119	 1
  117   118	 1
  118   120	 1
  118   121	 1
  119   120	 1
  119   121	 1
  120   122	 1
  120   123	 1
  121   122	 1
  121   123	 1
  122   124	 1
  122   125	 1
  123   124	 1
  123   125	 1
  126   129	 1
  126   128	 1
  127   129	 1
  127   128	 1
  128   130	 1
  128   131	 1
  129   130	 1
  129   131	 1
  130   132	 1
  130   133	 1
  131   132	 1
  131   133	 1
  132   134	 1
  132   135	 1
  133   134	 1
  133   135	 1
  136   138	 1
  136   139	 1
  137   138	 1
  137   139	 1
  138   140	 1
  138   141	 1
  139   140	 1
  139   141	 1
  140   142	 1
  140   143	 1
  141   142	 1
  141   143	 1
  142   144	 1
  142   145	 1
  143   144	 1
  143   145	 1
  146   149	 1
  146   148	 1
  147   149	 1
  147   148	 1
  148   150	 1
  148   151	 1
  149   150	 1
  149   151	 1
  150   152	 1
  150   153	 1
  151   152	 1
  151   153	 1
  152   154	 1
  152   155	 1
  153   154	 1
  153   155	 1
  154   156	 1
  155   156	 1

[ angles ]
;	ai	  aj	ak funct			c0			  c1			c2			  c3
    2     1    69	5
    2     1    70	5
    2     1    71	5
   69     1    70	5
   69     1    71	5
   70     1    71	5
    1     2     3	5
   73     3     2	5
   73     3     4	5
   73     3    72	5
    2     3     4	5
    2     3    72	5
    4     3    72	5
   74     4     3	5
   74     4     5	5
   74     4    75	5
    3     4     5	5
    3     4    75	5
    5     4    75	5
    4     5     6	5
   77     6    76	5
   77     6     5	5
   77     6     7	5
   76     6     5	5
   76     6     7	5
    5     6     7	5
   79     7     6	5
   79     7    78	5
   79     7     8	5
    6     7    78	5
    6     7     8	5
   78     7     8	5
    9     8     7	5
   81     9    10	5
   81     9    80	5
   81     9     8	5
   10     9    80	5
   10     9     8	5
   80     9     8	5
    9    10    82	5
    9    10    11	5
    9    10    83	5
   82    10    11	5
   82    10    83	5
   11    10    83	5
   10    11    12	5
   85    12    11	5
   85    12    84	5
   85    12    13	5
   11    12    84	5
   11    12    13	5
   84    12    13	5
   12    13    14	5
   12    13    87	5
   12    13    86	5
   14    13    87	5
   14    13    86	5
   87    13    86	5
   13    14    15	5
   89    15    88	5
   89    15    14	5
   89    15    16	5
   88    15    14	5
   88    15    16	5
   14    15    16	5
   17    16    90	5
   17    16    91	5
   17    16    15	5
   90    16    91	5
   90    16    15	5
   91    16    15	5
   18    17    16	5
   17    18    19	5
   17    18    92	5
   17    18    93	5
   19    18    92	5
   19    18    93	5
   92    18    93	5
   18    19    20	5
   18    19    94	5
   18    19    95	5
   20    19    94	5
   20    19    95	5
   94    19    95	5
   19    20    21	5
   20    21    22	5
   20    21    23	5
   22    21    23	5
   97    22    96	5
   97    22    21	5
   97    22    24	5
   96    22    21	5
   96    22    24	5
   21    22    24	5
   25    24    98	5
   25    24    99	5
   25    24    22	5
   98    24    99	5
   98    24    22	5
   99    24    22	5
   26    25   100	5
   26    25   101	5
   26    25    24	5
  100    25   101	5
  100    25    24	5
  101    25    24	5
   25    26    27	5
   25    26   102	5
   25    26   103	5
   27    26   102	5
   27    26   103	5
  102    26   103	5
  105    27    26	5
  105    27    28	5
  105    27   104	5
   26    27    28	5
   26    27   104	5
   28    27   104	5
   27    28    29	5
   34    29    28	5
   34    29    30	5
   28    29    30	5
  106    30   107	5
  106    30    29	5
  106    30    31	5
  107    30    29	5
  107    30    31	5
   29    30    31	5
  108    31   109	5
  108    31    30	5
  108    31    32	5
  109    31    30	5
  109    31    32	5
   30    31    32	5
   33    32   111	5
   33    32   110	5
   33    32    31	5
  111    32   110	5
  111    32    31	5
  110    32    31	5
  113    33    35	5
  113    33   112	5
  113    33    32	5
   35    33   112	5
   35    33    32	5
  112    33    32	5
   33    35   114	5
   33    35   115	5
   33    35    36	5
  114    35   115	5
  114    35    36	5
  115    35    36	5
   35    36    37	5
   36    37    38	5
   36    37    39	5
   38    37    39	5
  117    38   116	5
  117    38    37	5
  117    38    40	5
  116    38    37	5
  116    38    40	5
   37    38    40	5
   41    40    38	5
   41    40   119	5
   41    40   118	5
   38    40   119	5
   38    40   118	5
  119    40   118	5
  121    41    42	5
  121    41   120	5
  121    41    40	5
   42    41   120	5
   42    41    40	5
  120    41    40	5
   41    42   122	5
   41    42    43	5
   41    42   123	5
  122    42    43	5
  122    42   123	5
   43    42   123	5
  124    43    42	5
  124    43    44	5
  124    43   125	5
   42    43    44	5
   42    43   125	5
   44    43   125	5
   43    44    45	5
   44    45    46	5
   44    45    47	5
   46    45    47	5
   45    46   126	5
   45    46   127	5
   45    46    48	5
  126    46   127	5
  126    46    48	5
  127    46    48	5
   49    48   129	5
   49    48    46	5
   49    48   128	5
  129    48    46	5
  129    48   128	5
   46    48   128	5
  130    49    50	5
  130    49   131	5
  130    49    48	5
   50    49   131	5
   50    49    48	5
  131    49    48	5
   49    50    51	5
   49    50   132	5
   49    50   133	5
   51    50   132	5
   51    50   133	5
  132    50   133	5
   50    51    52	5
   50    51   134	5
   50    51   135	5
   52    51   134	5
   52    51   135	5
  134    51   135	5
   51    52    53	5
   52    53    54	5
   52    53    55	5
   54    53    55	5
  137    54   136	5
  137    54    53	5
  137    54    56	5
  136    54    53	5
  136    54    56	5
   53    54    56	5
   57    56   138	5
   57    56   139	5
   57    56    54	5
  138    56   139	5
  138    56    54	5
  139    56    54	5
   58    57   140	5
   58    57   141	5
   58    57    56	5
  140    57   141	5
  140    57    56	5
  141    57    56	5
   57    58    59	5
   57    58   142	5
   57    58   143	5
   59    58   142	5
   59    58   143	5
  142    58   143	5
  145    59    58	5
  145    59    60	5
  145    59   144	5
   58    59    60	5
   58    59   144	5
   60    59   144	5
   59    60    61	5
   60    61    62	5
   60    61    63	5
   62    61    63	5
  146    62   147	5
  146    62    61	5
  146    62    64	5
  147    62    61	5
  147    62    64	5
   61    62    64	5
   65    64   148	5
   65    64   149	5
   65    64    62	5
  148    64   149	5
  148    64    62	5
  149    64    62	5
   66    65   150	5
   66    65   151	5
   66    65    64	5
  150    65   151	5
  150    65    64	5
  151    65    64	5
   65    66   153	5
   65    66    67	5
   65    66   152	5
  153    66    67	5
  153    66   152	5
   67    66   152	5
   66    67   155	5
   66    67    68	5
   66    67   154	5
  155    67    68	5
  155    67   154	5
   68    67   154	5
   67    68   156	5

[ dihedrals ]
;	ai	  aj	ak	  al funct			  c0			c1			  c2			c3			  c4			c5
   69     1     2     3	 9
   70     1     2     3	 9
   71     1     2     3	 9
    1     2     3    73	 9
    1     2     3     4	 9
    1     2     3    72	 9
   73     3     4    74	 9
   73     3     4     5	 9
   73     3     4    75	 9
    2     3     4    74	 9
    2     3     4     5	 9
    2     3     4    75	 9
   72     3     4    74	 9
   72     3     4     5	 9
   72     3     4    75	 9
   74     4     5     6	 9
    3     4     5     6	 9
   75     4     5     6	 9
    4     5     6    77	 9
    4     5     6    76	 9
    4     5     6     7	 9
   77     6     7    79	 9
   77     6     7    78	 9
   77     6     7     8	 9
   76     6     7    79	 9
   76     6     7    78	 9
   76     6     7     8	 9
    5     6     7    79	 9
    5     6     7    78	 9
    5     6     7     8	 9
   79     7     8     9	 9
    6     7     8     9	 9
   78     7     8     9	 9
    7     8     9    81	 9
    7     8     9    10	 9
    7     8     9    80	 9
   81     9    10    82	 9
   81     9    10    11	 9
   81     9    10    83	 9
   80     9    10    82	 9
   80     9    10    11	 9
   80     9    10    83	 9
    8     9    10    82	 9
    8     9    10    11	 9
    8     9    10    83	 9
    9    10    11    12	 9
   82    10    11    12	 9
   83    10    11    12	 9
   10    11    12    85	 9
   10    11    12    84	 9
   10    11    12    13	 9
   85    12    13    14	 9
   85    12    13    87	 9
   85    12    13    86	 9
   11    12    13    14	 9
   11    12    13    87	 9
   11    12    13    86	 9
   84    12    13    14	 9
   84    12    13    87	 9
   84    12    13    86	 9
   12    13    14    15	 9
   87    13    14    15	 9
   86    13    14    15	 9
   13    14    15    89	 9
   13    14    15    88	 9
   13    14    15    16	 9
   89    15    16    17	 9
   89    15    16    90	 9
   89    15    16    91	 9
   88    15    16    17	 9
   88    15    16    90	 9
   88    15    16    91	 9
   14    15    16    17	 9
   14    15    16    90	 9
   14    15    16    91	 9
   90    16    17    18	 9
   91    16    17    18	 9
   15    16    17    18	 9
   16    17    18    19	 9
   16    17    18    92	 9
   16    17    18    93	 9
   17    18    19    20	 9
   17    18    19    94	 9
   17    18    19    95	 9
   92    18    19    20	 9
   92    18    19    94	 9
   92    18    19    95	 9
   93    18    19    20	 9
   93    18    19    94	 9
   93    18    19    95	 9
   18    19    20    21	 9
   94    19    20    21	 9
   95    19    20    21	 9
   19    20    21    22	 9
   19    20    21    23	 9
   20    21    22    97	 9
   20    21    22    96	 9
   20    21    22    24	 9
   23    21    22    97	 9
   23    21    22    96	 9
   23    21    22    24	 9
   97    22    24    25	 9
   97    22    24    98	 9
   97    22    24    99	 9
   96    22    24    25	 9
   96    22    24    98	 9
   96    22    24    99	 9
   21    22    24    25	 9
   21    22    24    98	 9
   21    22    24    99	 9
   98    24    25    26	 9
   98    24    25   100	 9
   98    24    25   101	 9
   99    24    25    26	 9
   99    24    25   100	 9
   99    24    25   101	 9
   22    24    25    26	 9
   22    24    25   100	 9
   22    24    25   101	 9
  100    25    26    27	 9
  100    25    26   102	 9
  100    25    26   103	 9
  101    25    26    27	 9
  101    25    26   102	 9
  101    25    26   103	 9
   24    25    26    27	 9
   24    25    26   102	 9
   24    25    26   103	 9
   25    26    27   105	 9
   25    26    27    28	 9
   25    26    27   104	 9
  102    26    27   105	 9
  102    26    27    28	 9
  102    26    27   104	 9
  103    26    27   105	 9
  103    26    27    28	 9
  103    26    27   104	 9
  105    27    28    29	 9
   26    27    28    29	 9
  104    27    28    29	 9
   27    28    29    34	 9
   27    28    29    30	 9
   34    29    30   106	 9
   34    29    30   107	 9
   34    29    30    31	 9
   28    29    30   106	 9
   28    29    30   107	 9
   28    29    30    31	 9
  106    30    31   108	 9
  106    30    31   109	 9
  106    30    31    32	 9
  107    30    31   108	 9
  107    30    31   109	 9
  107    30    31    32	 9
   29    30    31   108	 9
   29    30    31   109	 9
   29    30    31    32	 9
  108    31    32    33	 9
  108    31    32   111	 9
  108    31    32   110	 9
  109    31    32    33	 9
  109    31    32   111	 9
  109    31    32   110	 9
   30    31    32    33	 9
   30    31    32   111	 9
   30    31    32   110	 9
  111    32    33   113	 9
  111    32    33    35	 9
  111    32    33   112	 9
  110    32    33   113	 9
  110    32    33    35	 9
  110    32    33   112	 9
   31    32    33   113	 9
   31    32    33    35	 9
   31    32    33   112	 9
  113    33    35   114	 9
  113    33    35   115	 9
  113    33    35    36	 9
  112    33    35   114	 9
  112    33    35   115	 9
  112    33    35    36	 9
   32    33    35   114	 9
   32    33    35   115	 9
   32    33    35    36	 9
   33    35    36    37	 9
  114    35    36    37	 9
  115    35    36    37	 9
   35    36    37    38	 9
   35    36    37    39	 9
   36    37    38   117	 9
   36    37    38   116	 9
   36    37    38    40	 9
   39    37    38   117	 9
   39    37    38   116	 9
   39    37    38    40	 9
  117    38    40    41	 9
  117    38    40   119	 9
  117    38    40   118	 9
  116    38    40    41	 9
  116    38    40   119	 9
  116    38    40   118	 9
   37    38    40    41	 9
   37    38    40   119	 9
   37    38    40   118	 9
   38    40    41   121	 9
   38    40    41    42	 9
   38    40    41   120	 9
  119    40    41   121	 9
  119    40    41    42	 9
  119    40    41   120	 9
  118    40    41   121	 9
  118    40    41    42	 9
  118    40    41   120	 9
  121    41    42   122	 9
  121    41    42    43	 9
  121    41    42   123	 9
  120    41    42   122	 9
  120    41    42    43	 9
  120    41    42   123	 9
   40    41    42   122	 9
   40    41    42    43	 9
   40    41    42   123	 9
   41    42    43   124	 9
   41    42    43    44	 9
   41    42    43   125	 9
  122    42    43   124	 9
  122    42    43    44	 9
  122    42    43   125	 9
  123    42    43   124	 9
  123    42    43    44	 9
  123    42    43   125	 9
  124    43    44    45	 9
   42    43    44    45	 9
  125    43    44    45	 9
   43    44    45    46	 9
   43    44    45    47	 9
   44    45    46   126	 9
   44    45    46   127	 9
   44    45    46    48	 9
   47    45    46   126	 9
   47    45    46   127	 9
   47    45    46    48	 9
   45    46    48    49	 9
   45    46    48   129	 9
   45    46    48   128	 9
  126    46    48    49	 9
  126    46    48   129	 9
  126    46    48   128	 9
  127    46    48    49	 9
  127    46    48   129	 9
  127    46    48   128	 9
  129    48    49   130	 9
  129    48    49    50	 9
  129    48    49   131	 9
   46    48    49   130	 9
   46    48    49    50	 9
   46    48    49   131	 9
  128    48    49   130	 9
  128    48    49    50	 9
  128    48    49   131	 9
  130    49    50    51	 9
  130    49    50   132	 9
  130    49    50   133	 9
  131    49    50    51	 9
  131    49    50   132	 9
  131    49    50   133	 9
   48    49    50    51	 9
   48    49    50   132	 9
   48    49    50   133	 9
   49    50    51    52	 9
   49    50    51   134	 9
   49    50    51   135	 9
  132    50    51    52	 9
  132    50    51   134	 9
  132    50    51   135	 9
  133    50    51    52	 9
  133    50    51   134	 9
  133    50    51   135	 9
   50    51    52    53	 9
  134    51    52    53	 9
  135    51    52    53	 9
   51    52    53    54	 9
   51    52    53    55	 9
   52    53    54   137	 9
   52    53    54   136	 9
   52    53    54    56	 9
   55    53    54   137	 9
   55    53    54   136	 9
   55    53    54    56	 9
  137    54    56    57	 9
  137    54    56   138	 9
  137    54    56   139	 9
  136    54    56    57	 9
  136    54    56   138	 9
  136    54    56   139	 9
   53    54    56    57	 9
   53    54    56   138	 9
   53    54    56   139	 9
  138    56    57    58	 9
  138    56    57   140	 9
  138    56    57   141	 9
  139    56    57    58	 9
  139    56    57   140	 9
  139    56    57   141	 9
   54    56    57    58	 9
   54    56    57   140	 9
   54    56    57   141	 9
  140    57    58    59	 9
  140    57    58   142	 9
  140    57    58   143	 9
  141    57    58    59	 9
  141    57    58   142	 9
  141    57    58   143	 9
   56    57    58    59	 9
   56    57    58   142	 9
   56    57    58   143	 9
   57    58    59   145	 9
   57    58    59    60	 9
   57    58    59   144	 9
  142    58    59   145	 9
  142    58    59    60	 9
  142    58    59   144	 9
  143    58    59   145	 9
  143    58    59    60	 9
  143    58    59   144	 9
  145    59    60    61	 9
   58    59    60    61	 9
  144    59    60    61	 9
   59    60    61    62	 9
   59    60    61    63	 9
   60    61    62   146	 9
   60    61    62   147	 9
   60    61    62    64	 9
   63    61    62   146	 9
   63    61    62   147	 9
   63    61    62    64	 9
  146    62    64    65	 9
  146    62    64   148	 9
  146    62    64   149	 9
  147    62    64    65	 9
  147    62    64   148	 9
  147    62    64   149	 9
   61    62    64    65	 9
   61    62    64   148	 9
   61    62    64   149	 9
  148    64    65    66	 9
  148    64    65   150	 9
  148    64    65   151	 9
  149    64    65    66	 9
  149    64    65   150	 9
  149    64    65   151	 9
   62    64    65    66	 9
   62    64    65   150	 9
   62    64    65   151	 9
  150    65    66   153	 9
  150    65    66    67	 9
  150    65    66   152	 9
  151    65    66   153	 9
  151    65    66    67	 9
  151    65    66   152	 9
   64    65    66   153	 9
   64    65    66    67	 9
   64    65    66   152	 9
   65    66    67   155	 9
   65    66    67    68	 9
   65    66    67   154	 9
  153    66    67   155	 9
  153    66    67    68	 9
  153    66    67   154	 9
  152    66    67   155	 9
  152    66    67    68	 9
  152    66    67   154	 9
   66    67    68   156	 9
  155    67    68   156	 9
  154    67    68   156	 9

[ dihedrals ]
;	ai	  aj	ak	  al funct			  c0			c1			  c2			c3
   21    22    23    20	 2
   29    30    34    28	 2
   37    38    39    36	 2
   45    46    47    44	 2
   53    54    55    52	 2
   61    62    63    60	 2

