GROningen MAchine for Chemical Simulation
  156
    1ECL     C1    1  -3.700  -0.042   0.008
    1ECL     O1    2  -3.582   0.036  -0.002
    1ECL     C2    3  -3.466  -0.041   0.007
    1ECL     C3    4  -3.345   0.051  -0.004
    1ECL     O2    5  -3.228  -0.027   0.005
    1ECL     C4    6  -3.111   0.050  -0.004
    1ECL     C5    7  -2.991  -0.043   0.007
    1ECL     O3    8  -2.873   0.034  -0.003
    1ECL     C6    9  -2.757  -0.045   0.006
    1ECL     C7   10  -2.635   0.046  -0.005
    1ECL     O4   11  -2.519  -0.033   0.005
    1ECL     C8   12  -2.401   0.043  -0.005
    1ECL     C9   13  -2.282  -0.052   0.007
    1ECL     O5   14  -2.163   0.023  -0.002
    1ECL    C10   15  -2.049  -0.058   0.008
    1ECL    C11   16  -1.925   0.031  -0.003
    1ECL     O6   17  -1.811  -0.050   0.007
    1ECL    C12   18  -1.691   0.023  -0.002
    1ECL    C13   19  -1.574  -0.074   0.011
    1ECL     O7   20  -1.454  -0.002   0.002
    1ECL    C14   21  -1.338  -0.073   0.012
    1ECL    C15   22  -1.219   0.021  -0.000
    1ECL     O8   23  -1.331  -0.193   0.027
    1ECL    C16   24  -1.083  -0.050   0.009
    1ECL    C17   25  -0.966   0.049  -0.004
    1ECL    C18   26  -0.830  -0.023   0.005
    1ECL    C19   27  -0.713   0.075  -0.007
    1ECL     O9   28  -0.593   0.004   0.001
    1ECL    C20   29  -0.477   0.075  -0.007
    1ECL    C21   30  -0.358  -0.019   0.004
    1ECL    C22   31  -0.222   0.052  -0.004
    1ECL    C23   32  -0.105  -0.047   0.007
    1ECL    C24   33   0.031   0.024  -0.001
    1ECL    O10   34  -0.470   0.195  -0.021
    1ECL    C25   35   0.148  -0.074   0.010
    1ECL    O11   36   0.268  -0.003   0.003
    1ECL    C26   37   0.384  -0.075   0.010
    1ECL    C27   38   0.503   0.019   0.001
    1ECL    O12   39   0.391  -0.195   0.022
    1ECL    C28   40   0.639  -0.052   0.007
    1ECL    C29   41   0.757   0.046  -0.003
    1ECL    C30   42   0.892  -0.025   0.002
    1ECL    C31   43   1.009   0.074  -0.007
    1ECL    O13   44   1.130   0.002  -0.002
    1ECL    C32   45   1.245   0.074  -0.007
    1ECL    C33   46   1.365  -0.020  -0.002
    1ECL    O14   47   1.252   0.195  -0.015
    1ECL    C34   48   1.500   0.052  -0.003
    1ECL    C35   49   1.618  -0.047   0.002
    1ECL    C36   50   1.754   0.025   0.001
    1ECL    C37   51   1.870  -0.074   0.004
    1ECL    O15   52   1.991  -0.002   0.005
    1ECL    C38   53   2.106  -0.074   0.006
    1ECL    C39   54   2.226   0.020   0.008
    1ECL    O16   55   2.113  -0.195   0.006
    1ECL    C40   56   2.362  -0.051   0.002
    1ECL    C41   57   2.479   0.047   0.005
    1ECL    C42   58   2.615  -0.024  -0.002
    1ECL    C43   59   2.732   0.074   0.003
    1ECL    O17   60   2.852   0.002  -0.005
    1ECL    C44   61   2.968   0.073   0.001
    1ECL    C45   62   3.087  -0.021  -0.010
    1ECL    O18   63   2.975   0.194   0.012
    1ECL    C46   64   3.223   0.049   0.004
    1ECL    C47   65   3.340  -0.051  -0.008
    1ECL    C48   66   3.476   0.018   0.007
    1ECL    C49   67   3.592  -0.081  -0.005
    1ECL    O19   68   3.714  -0.012   0.010
    1ECL     H1   69  -3.787   0.026  -0.000
    1ECL     H2   70  -3.704  -0.115  -0.076
    1ECL     H3   71  -3.703  -0.094   0.106
    1ECL     H4   72  -3.464  -0.095   0.105
    1ECL     H5   73  -3.464  -0.116  -0.076
    1ECL     H6   74  -3.346   0.104  -0.102
    1ECL     H7   75  -3.346   0.125   0.079
    1ECL     H8   76  -3.109   0.124   0.078
    1ECL     H9   77  -3.109   0.103  -0.102
    1ECL    H10   78  -2.993  -0.096   0.105
    1ECL    H11   79  -2.993  -0.118  -0.076
    1ECL    H12   80  -2.756  -0.098   0.105
    1ECL    H13   81  -2.756  -0.120  -0.076
    1ECL    H14   82  -2.636   0.121   0.078
    1ECL    H15   83  -2.636   0.099  -0.103
    1ECL    H16   84  -2.398   0.118   0.078
    1ECL    H17   85  -2.398   0.095  -0.103
    1ECL    H18   86  -2.285  -0.104   0.105
    1ECL    H19   87  -2.285  -0.127  -0.075
    1ECL    H20   88  -2.049  -0.110   0.106
    1ECL    H21   89  -2.049  -0.133  -0.074
    1ECL    H22   90  -1.925   0.106   0.079
    1ECL    H23   91  -1.925   0.083  -0.102
    1ECL    H24   92  -1.687   0.075  -0.100
    1ECL    H25   93  -1.687   0.098   0.081
    1ECL    H26   94  -1.578  -0.149  -0.071
    1ECL    H27   95  -1.579  -0.126   0.110
    1ECL    H28   96  -1.227   0.075  -0.098
    1ECL    H29   97  -1.227   0.097   0.082
    1ECL    H30   98  -1.076  -0.126  -0.073
    1ECL    H31   99  -1.076  -0.104   0.106
    1ECL    H32  100  -0.973   0.103  -0.101
    1ECL    H33  101  -0.973   0.125   0.078
    1ECL    H34  102  -0.823  -0.099  -0.077
    1ECL    H35  103  -0.823  -0.077   0.102
    1ECL    H36  104  -0.718   0.128  -0.105
    1ECL    H37  105  -0.718   0.150   0.076
    1ECL    H38  106  -0.365  -0.094  -0.079
    1ECL    H39  107  -0.366  -0.073   0.101
    1ECL    H40  108  -0.214   0.107  -0.101
    1ECL    H41  109  -0.215   0.127   0.078
    1ECL    H42  110  -0.112  -0.122  -0.075
    1ECL    H43  111  -0.112  -0.102   0.104
    1ECL    H44  112   0.039   0.080  -0.097
    1ECL    H45  113   0.039   0.100   0.082
    1ECL    H46  114   0.143  -0.147  -0.074
    1ECL    H47  115   0.143  -0.128   0.108
    1ECL    H48  116   0.495   0.076  -0.095
    1ECL    H49  117   0.497   0.092   0.085
    1ECL    H50  118   0.646  -0.126  -0.077
    1ECL    H51  119   0.647  -0.109   0.102
    1ECL    H52  120   0.749   0.104  -0.098
    1ECL    H53  121   0.750   0.120   0.081
    1ECL    H54  122   0.899  -0.098  -0.082
    1ECL    H55  123   0.900  -0.083   0.097
    1ECL    H56  124   1.004   0.130  -0.102
    1ECL    H57  125   1.005   0.144   0.080
    1ECL    H58  126   1.359  -0.089  -0.090
    1ECL    H59  127   1.357  -0.081   0.091
    1ECL    H60  128   1.508   0.114  -0.096
    1ECL    H61  129   1.507   0.121   0.084
    1ECL    H62  130   1.612  -0.115  -0.086
    1ECL    H63  131   1.610  -0.110   0.093
    1ECL    H64  132   1.762   0.089  -0.090
    1ECL    H65  133   1.760   0.093   0.090
    1ECL    H66  134   1.867  -0.139  -0.086
    1ECL    H67  135   1.865  -0.136   0.097
    1ECL    H68  136   2.217   0.090  -0.079
    1ECL    H69  137   2.220   0.081   0.101
    1ECL    H70  138   2.367  -0.112  -0.091
    1ECL    H71  139   2.371  -0.121   0.089
    1ECL    H72  140   2.470   0.118  -0.081
    1ECL    H73  141   2.474   0.108   0.099
    1ECL    H74  142   2.621  -0.084  -0.097
    1ECL    H75  143   2.624  -0.096   0.083
    1ECL    H76  144   2.726   0.145  -0.083
    1ECL    H77  145   2.729   0.131   0.099
    1ECL    H78  146   3.081  -0.072  -0.109
    1ECL    H79  147   3.077  -0.098   0.070
    1ECL    H80  148   3.233   0.126  -0.076
    1ECL    H81  149   3.228   0.101   0.102
    1ECL    H82  150   3.330  -0.129   0.071
    1ECL    H83  151   3.335  -0.102  -0.107
    1ECL    H84  152   3.482   0.069   0.106
    1ECL    H85  153   3.487   0.097  -0.072
    1ECL    H86  154   3.587  -0.158   0.075
    1ECL    H87  155   3.593  -0.130  -0.105
    1ECL    H88  156   3.787  -0.075   0.002
   0.00000   0.00000   0.00000
