; Created by cgenff_charmm2gmx.py

[ moleculetype ]
; Name			   nrexcl
DEX				 3

[ atoms ]
;	 nr		  type	resnr residue  atom   cgnr	   charge		mass  typeB    chargeB		massB
; residue	 1 DEX rtp DEX q	qsum
     1      CG331      1    DEL     C1      1     -0.273     12.011   ;
     2      CG321      1    DEL     C2      2     -0.177     12.011   ;
     3      CG321      1    DEL     C3      3     -0.181     12.011   ;
     4      CG321      1    DEL     C4      4     -0.179     12.011   ;
     5      CG321      1    DEL     C5      5     -0.180     12.011   ;
     6      CG321      1    DEL     C6      6     -0.180     12.011   ;
     7      CG321      1    DEL     C7      7     -0.180     12.011   ;
     8      CG321      1    DEL     C8      8     -0.180     12.011   ;
     9      CG321      1    DEL     C9      9     -0.180     12.011   ;
    10      CG321      1    DEL    C10     10     -0.180     12.011   ;
    11      CG321      1    DEL    C11     11     -0.180     12.011   ;
    12      CG321      1    DEL    C12     12     -0.180     12.011   ;
    13      CG321      1    DEL    C13     13     -0.180     12.011   ;
    14      CG321      1    DEL    C14     14     -0.180     12.011   ;
    15      CG321      1    DEL    C15     15     -0.180     12.011   ;
    16      CG321      1    DEL    C16     16     -0.180     12.011   ;
    17      CG321      1    DEL    C17     17     -0.180     12.011   ;
    18      CG321      1    DEL    C18     18      0.036     12.011   ;
    19      CG301      1    DEL    C19     19      0.381     12.011   ;
    20      CG331      1    DEL    C20     20     -0.269     12.011   ;
    21      CG331      1    DEL    C21     21     -0.269     12.011   ;
    22      OG301      1    DEL     O1     22     -0.402     15.999   ;
    23       HGA3      1    DEL     H1     23      0.090      1.008   ;
    24       HGA3      1    DEL     H2     24      0.090      1.008   ;
    25       HGA3      1    DEL     H3     25      0.090      1.008   ;
    26       HGA2      1    DEL     H4     26      0.090      1.008   ;
    27       HGA2      1    DEL     H5     27      0.090      1.008   ;
    28       HGA2      1    DEL     H6     28      0.090      1.008   ;
    29       HGA2      1    DEL     H7     29      0.090      1.008   ;
    30       HGA2      1    DEL     H8     30      0.090      1.008   ;
    31       HGA2      1    DEL     H9     31      0.090      1.008   ;
    32       HGA2      1    DEL    H10     32      0.090      1.008   ;
    33       HGA2      1    DEL    H11     33      0.090      1.008   ;
    34       HGA2      1    DEL    H12     34      0.090      1.008   ;
    35       HGA2      1    DEL    H13     35      0.090      1.008   ;
    36       HGA2      1    DEL    H14     36      0.090      1.008   ;
    37       HGA2      1    DEL    H15     37      0.090      1.008   ;
    38       HGA2      1    DEL    H16     38      0.090      1.008   ;
    39       HGA2      1    DEL    H17     39      0.090      1.008   ;
    40       HGA2      1    DEL    H18     40      0.090      1.008   ;
    41       HGA2      1    DEL    H19     41      0.090      1.008   ;
    42       HGA2      1    DEL    H20     42      0.090      1.008   ;
    43       HGA2      1    DEL    H21     43      0.090      1.008   ;
    44       HGA2      1    DEL    H22     44      0.090      1.008   ;
    45       HGA2      1    DEL    H23     45      0.090      1.008   ;
    46       HGA2      1    DEL    H24     46      0.090      1.008   ;
    47       HGA2      1    DEL    H25     47      0.090      1.008   ;
    48       HGA2      1    DEL    H26     48      0.090      1.008   ;
    49       HGA2      1    DEL    H27     49      0.090      1.008   ;
    50       HGA2      1    DEL    H28     50      0.090      1.008   ;
    51       HGA2      1    DEL    H29     51      0.090      1.008   ;
    52       HGA2      1    DEL    H30     52      0.090      1.008   ;
    53       HGA2      1    DEL    H31     53      0.090      1.008   ;
    54       HGA2      1    DEL    H32     54      0.090      1.008   ;
    55       HGA2      1    DEL    H33     55      0.090      1.008   ;
    56       HGA2      1    DEL    H34     56      0.090      1.008   ;
    57       HGA2      1    DEL    H35     57      0.090      1.008   ;
    58       HGA2      1    DEL    H36     58      0.090      1.008   ;
    59       HGA2      1    DEL    H37     59      0.090      1.008   ;
    60       HGA3      1    DEL    H38     60      0.090      1.008   ;
    61       HGA3      1    DEL    H39     61      0.090      1.008   ;
    62       HGA3      1    DEL    H40     62      0.090      1.008   ;
    63       HGA3      1    DEL    H41     63      0.090      1.008   ;
    64       HGA3      1    DEL    H42     64      0.090      1.008   ;
    65       HGA3      1    DEL    H43     65      0.090      1.008   ;
    66      CG321      1    DEX    C22     66      0.168     12.011   ;
    67      CG2O5      1    DEX    C23     67      0.184     12.011   ;
    68     CG3C50      1    DEX    C24     68      0.352     12.011   ;
    69     CG3C51      1    DEX    C25     69     -0.138     12.011   ;
    70      CG331      1    DEX    C26     70     -0.265     12.011   ;
    71     CG3C52      1    DEX    C27     71     -0.186     12.011   ;
    72     CG3RC1      1    DEX    C28     72     -0.090     12.011   ;
    73      CG311      1    DEX    C29     73      0.063     12.011   ;
    74      CG321      1    DEX    C30     74     -0.144     12.011   ;
    75      CG321      1    DEX    C31     75     -0.283     12.011   ;
    76     CG2DC1      1    DEX    C32     76      0.311     12.011   ;
    77     CG2DC1      1    DEX    C33     77     -0.217     12.011   ;
    78      CG2O5      1    DEX    C34     78      0.125     12.011   ;
    79     CG2DC1      1    DEX    C35     79     -0.202     12.011   ;
    80     CG2DC1      1    DEX    C36     80      0.029     12.011   ;
    81      CG301      1    DEX    C37     81      0.108     12.011   ;
    82      CG331      1    DEX    C38     82     -0.269     12.011   ;
    83      CG322      1    DEX    C39     83     -0.157     12.011   ;
    84      CG311      1    DEX    C40     84      0.212     12.011   ;
    85      CG321      1    DEX    C41     85     -0.196     12.011   ;
    86     CG3RC1      1    DEX    C42     86      0.074     12.011   ;
    87      CG331      1    DEX    C43     87     -0.271     12.011   ;
    88      OG301      1    DEX     O2     88     -0.444     15.999   ;
    89      OG2D3      1    DEX     O3     89     -0.407     15.999   ;
    90      OG311      1    DEX     O4     90     -0.617     15.999   ;
    91      OG2D3      1    DEX     O5     91     -0.405     15.999   ;
    92      OG311      1    DEX     O6     92     -0.578     15.999   ;
    93       FGA1      1    DEX      F     93     -0.231     18.998   ;
    94       HGA2      1    DEX    H44     94      0.090      1.008   ;
    95       HGA2      1    DEX    H45     95      0.090      1.008   ;
    96       HGP1      1    DEX    H46     96      0.379      1.008   ;
    97       HGA1      1    DEX    H47     97      0.090      1.008   ;
    98       HGA3      1    DEX    H48     98      0.090      1.008   ;
    99       HGA3      1    DEX    H49     99      0.090      1.008   ;
   100       HGA3      1    DEX    H50    100      0.090      1.008   ;
   101       HGA2      1    DEX    H51    101      0.090      1.008   ;
   102       HGA2      1    DEX    H52    102      0.090      1.008   ;
   103       HGA1      1    DEX    H53    103      0.090      1.008   ;
   104       HGA1      1    DEX    H54    104      0.090      1.008   ;
   105       HGA2      1    DEX    H55    105      0.090      1.008   ;
   106       HGA2      1    DEX    H56    106      0.090      1.008   ;
   107       HGA2      1    DEX    H57    107      0.090      1.008   ;
   108       HGA2      1    DEX    H58    108      0.090      1.008   ;
   109       HGA4      1    DEX    H59    109      0.150      1.008   ;
   110       HGA4      1    DEX    H60    110      0.150      1.008   ;
   111       HGA4      1    DEX    H61    111      0.124      1.008   ;
   112       HGA3      1    DEX    H62    112      0.090      1.008   ;
   113       HGA3      1    DEX    H63    113      0.090      1.008   ;
   114       HGA3      1    DEX    H64    114      0.090      1.008   ;
   115       HGA1      1    DEX    H65    115      0.090      1.008   ;
   116       HGP1      1    DEX    H66    116      0.404      1.008   ;
   117       HGA2      1    DEX    H67    117      0.090      1.008   ;
   118       HGA2      1    DEX    H68    118      0.090      1.008   ;
   119       HGA3      1    DEX    H69    119      0.090      1.008   ;
   120       HGA3      1    DEX    H70    120      0.090      1.008   ;
   121       HGA3      1    DEX    H71    121      0.090      1.008   ;

[ bonds ]
;	ai	  aj funct			  c0			c1			  c2			c3
    1     2	 1 ;       CG331      CG321
    1    23	 1 ;       CG331       HGA3
    1    24	 1 ;       CG331       HGA3
    1    25	 1 ;       CG331       HGA3
    2     3	 1 ;       CG321      CG321
    2    26	 1 ;       CG321       HGA2
    2    27	 1 ;       CG321       HGA2
    3     4	 1 ;       CG321      CG321
    3    28	 1 ;       CG321       HGA2
    3    29	 1 ;       CG321       HGA2
    4     5	 1 ;       CG321      CG321
    4    30	 1 ;       CG321       HGA2
    4    31	 1 ;       CG321       HGA2
    5     6	 1 ;       CG321      CG321
    5    32	 1 ;       CG321       HGA2
    5    33	 1 ;       CG321       HGA2
    6     7	 1 ;       CG321      CG321
    6    34	 1 ;       CG321       HGA2
    6    35	 1 ;       CG321       HGA2
    7     8	 1 ;       CG321      CG321
    7    36	 1 ;       CG321       HGA2
    7    37	 1 ;       CG321       HGA2
    8     9	 1 ;       CG321      CG321
    8    38	 1 ;       CG321       HGA2
    8    39	 1 ;       CG321       HGA2
    9    10	 1 ;       CG321      CG321
    9    40	 1 ;       CG321       HGA2
    9    41	 1 ;       CG321       HGA2
   10    11	 1 ;       CG321      CG321
   10    42	 1 ;       CG321       HGA2
   10    43	 1 ;       CG321       HGA2
   11    12	 1 ;       CG321      CG321
   11    44	 1 ;       CG321       HGA2
   11    45	 1 ;       CG321       HGA2
   12    13	 1 ;       CG321      CG321
   12    46	 1 ;       CG321       HGA2
   12    47	 1 ;       CG321       HGA2
   13    14	 1 ;       CG321      CG321
   13    48	 1 ;       CG321       HGA2
   13    49	 1 ;       CG321       HGA2
   14    15	 1 ;       CG321      CG321
   14    50	 1 ;       CG321       HGA2
   14    51	 1 ;       CG321       HGA2
   15    16	 1 ;       CG321      CG321
   15    52	 1 ;       CG321       HGA2
   15    53	 1 ;       CG321       HGA2
   16    17	 1 ;       CG321      CG321
   16    54	 1 ;       CG321       HGA2
   16    55	 1 ;       CG321       HGA2
   17    18	 1 ;       CG321      CG321
   17    56	 1 ;       CG321       HGA2
   17    57	 1 ;       CG321       HGA2
   18    22	 1 ;       CG321      OG301
   18    58	 1 ;       CG321       HGA2
   18    59	 1 ;       CG321       HGA2
   19    20	 1 ;       CG301      CG331
   19    21	 1 ;       CG301      CG331
   19    88	 1 ;       CG301      OG301
   19    22	 1 ;       CG301      OG301
   20    60	 1 ;       CG331       HGA3
   20    61	 1 ;       CG331       HGA3
   20    62	 1 ;       CG331       HGA3
   21    63	 1 ;       CG331       HGA3
   21    64	 1 ;       CG331       HGA3
   21    65	 1 ;       CG331       HGA3
   66    67	 1 ;       CG321      CG2O5
   66    94	 1 ;       CG321       HGA2
   66    95	 1 ;       CG321       HGA2
   66    88	 1 ;       CG321      OG301
   67    68	 1 ;       CG2O5     CG3C50
   67    89	 1 ;       CG2O5      OG2D3
   68    69	 1 ;      CG3C50     CG3C51
   68    86	 1 ;      CG3C50     CG3RC1
   68    90	 1 ;      CG3C50      OG311
   69    70	 1 ;      CG3C51      CG331
   69    71	 1 ;      CG3C51     CG3C52
   69    97	 1 ;      CG3C51       HGA1
   70    98	 1 ;       CG331       HGA3
   70    99	 1 ;       CG331       HGA3
   70   100	 1 ;       CG331       HGA3
   71    72	 1 ;      CG3C52     CG3RC1
   71   101	 1 ;      CG3C52       HGA2
   71   102	 1 ;      CG3C52       HGA2
   72    73	 1 ;      CG3RC1      CG311
   72    86	 1 ;      CG3RC1     CG3RC1
   72   103	 1 ;      CG3RC1       HGA1
   73    74	 1 ;       CG311      CG321
   73    83	 1 ;       CG311      CG322
   73   104	 1 ;       CG311       HGA1
   74    75	 1 ;       CG321      CG321
   74   105	 1 ;       CG321       HGA2
   74   106	 1 ;       CG321       HGA2
   75    76	 1 ;       CG321     CG2DC1
   75   107	 1 ;       CG321       HGA2
   75   108	 1 ;       CG321       HGA2
   76    77	 1 ;      CG2DC1     CG2DC1
   76    81	 1 ;      CG2DC1      CG301
   77    78	 1 ;      CG2DC1      CG2O5
   77   109	 1 ;      CG2DC1       HGA4
   78    79	 1 ;       CG2O5     CG2DC1
   78    91	 1 ;       CG2O5      OG2D3
   79    80	 1 ;      CG2DC1     CG2DC1
   79   110	 1 ;      CG2DC1       HGA4
   80    81	 1 ;      CG2DC1      CG301
   80   111	 1 ;      CG2DC1       HGA4
   81    82	 1 ;       CG301      CG331
   81    83	 1 ;       CG301      CG322
   82   112	 1 ;       CG331       HGA3
   82   113	 1 ;       CG331       HGA3
   82   114	 1 ;       CG331       HGA3
   83    84	 1 ;       CG322      CG311
   83    93	 1 ;       CG322       FGA1
   84    85	 1 ;       CG311      CG321
   84    92	 1 ;       CG311      OG311
   84   115	 1 ;       CG311       HGA1
   85    86	 1 ;       CG321     CG3RC1
   85   117	 1 ;       CG321       HGA2
   85   118	 1 ;       CG321       HGA2
   86    87	 1 ;      CG3RC1      CG331
   87   119	 1 ;       CG331       HGA3
   87   120	 1 ;       CG331       HGA3
   87   121	 1 ;       CG331       HGA3
   90    96	 1 ;       OG311       HGP1
   92   116	 1 ;       OG311       HGP1

[ pairs ]
;	ai	  aj funct			  c0			c1			  c2			c3
    1     4	 1
    1    28	 1
    1    29	 1
    2     5	 1
    2    30	 1
    2    31	 1
    3    23	 1
    3    24	 1
    3    25	 1
    3     6	 1
    3    32	 1
    3    33	 1
    4    26	 1
    4    27	 1
    4     7	 1
    4    34	 1
    4    35	 1
    5    28	 1
    5    29	 1
    5     8	 1
    5    36	 1
    5    37	 1
    6    30	 1
    6    31	 1
    6     9	 1
    6    38	 1
    6    39	 1
    7    32	 1
    7    33	 1
    7    10	 1
    7    40	 1
    7    41	 1
    8    34	 1
    8    35	 1
    8    11	 1
    8    42	 1
    8    43	 1
    9    36	 1
    9    37	 1
    9    12	 1
    9    44	 1
    9    45	 1
   10    38	 1
   10    39	 1
   10    13	 1
   10    46	 1
   10    47	 1
   11    40	 1
   11    41	 1
   11    14	 1
   11    48	 1
   11    49	 1
   12    42	 1
   12    43	 1
   12    15	 1
   12    50	 1
   12    51	 1
   13    44	 1
   13    45	 1
   13    16	 1
   13    52	 1
   13    53	 1
   14    46	 1
   14    47	 1
   14    17	 1
   14    54	 1
   14    55	 1
   15    48	 1
   15    49	 1
   15    18	 1
   15    56	 1
   15    57	 1
   16    50	 1
   16    51	 1
   16    22	 1
   16    58	 1
   16    59	 1
   17    52	 1
   17    53	 1
   17    19	 1
   18    54	 1
   18    55	 1
   18    20	 1
   18    21	 1
   18    88	 1
   19    58	 1
   19    59	 1
   19    67	 1
   19    94	 1
   19    95	 1
   20    63	 1
   20    64	 1
   20    65	 1
   20    66	 1
   21    60	 1
   21    61	 1
   21    62	 1
   21    66	 1
   22    56	 1
   22    57	 1
   22    60	 1
   22    61	 1
   22    62	 1
   22    63	 1
   22    64	 1
   22    65	 1
   22    66	 1
   23    26	 1
   23    27	 1
   24    26	 1
   24    27	 1
   25    26	 1
   25    27	 1
   26    28	 1
   26    29	 1
   27    28	 1
   27    29	 1
   28    30	 1
   28    31	 1
   29    30	 1
   29    31	 1
   30    32	 1
   30    33	 1
   31    32	 1
   31    33	 1
   32    34	 1
   32    35	 1
   33    34	 1
   33    35	 1
   34    36	 1
   34    37	 1
   35    36	 1
   35    37	 1
   36    38	 1
   36    39	 1
   37    38	 1
   37    39	 1
   38    40	 1
   38    41	 1
   39    40	 1
   39    41	 1
   40    42	 1
   40    43	 1
   41    42	 1
   41    43	 1
   42    44	 1
   42    45	 1
   43    44	 1
   43    45	 1
   44    46	 1
   44    47	 1
   45    46	 1
   45    47	 1
   46    48	 1
   46    49	 1
   47    48	 1
   47    49	 1
   48    50	 1
   48    51	 1
   49    50	 1
   49    51	 1
   50    52	 1
   50    53	 1
   51    52	 1
   51    53	 1
   52    54	 1
   52    55	 1
   53    54	 1
   53    55	 1
   54    56	 1
   54    57	 1
   55    56	 1
   55    57	 1
   56    58	 1
   56    59	 1
   57    58	 1
   57    59	 1
   60    88	 1
   61    88	 1
   62    88	 1
   63    88	 1
   64    88	 1
   65    88	 1
   66    69	 1
   66    86	 1
   66    90	 1
   67    70	 1
   67    71	 1
   67    97	 1
   67    72	 1
   67    85	 1
   67    87	 1
   67    96	 1
   68    94	 1
   68    95	 1
   68    88	 1
   68    98	 1
   68    99	 1
   68   100	 1
   68   101	 1
   68   102	 1
   68    73	 1
   68   103	 1
   68    84	 1
   68   117	 1
   68   118	 1
   68   119	 1
   68   120	 1
   68   121	 1
   69    89	 1
   69    85	 1
   69    87	 1
   69    96	 1
   69    73	 1
   69   103	 1
   70    86	 1
   70    90	 1
   70    72	 1
   70   101	 1
   70   102	 1
   71    90	 1
   71    98	 1
   71    99	 1
   71   100	 1
   71    74	 1
   71    83	 1
   71   104	 1
   71    85	 1
   71    87	 1
   72    90	 1
   72    97	 1
   72    75	 1
   72   105	 1
   72   106	 1
   72    81	 1
   72    84	 1
   72    93	 1
   72   117	 1
   72   118	 1
   72   119	 1
   72   120	 1
   72   121	 1
   73   101	 1
   73   102	 1
   73    85	 1
   73    87	 1
   73    76	 1
   73   107	 1
   73   108	 1
   73    80	 1
   73    82	 1
   73    92	 1
   73   115	 1
   74    86	 1
   74   103	 1
   74    81	 1
   74    84	 1
   74    93	 1
   74    77	 1
   75    83	 1
   75   104	 1
   75    78	 1
   75   109	 1
   75    80	 1
   75    82	 1
   76   105	 1
   76   106	 1
   76    79	 1
   76    91	 1
   76   111	 1
   76   112	 1
   76   113	 1
   76   114	 1
   76    84	 1
   76    93	 1
   77   107	 1
   77   108	 1
   77    80	 1
   77    82	 1
   77    83	 1
   77   110	 1
   78    81	 1
   78   111	 1
   79   109	 1
   79    82	 1
   79    83	 1
   80    91	 1
   80   112	 1
   80   113	 1
   80   114	 1
   80    84	 1
   80    93	 1
   81   104	 1
   81   107	 1
   81   108	 1
   81   109	 1
   81   110	 1
   81    85	 1
   81    92	 1
   81   115	 1
   82   111	 1
   82    84	 1
   82    93	 1
   83    86	 1
   83   103	 1
   83   105	 1
   83   106	 1
   83   111	 1
   83   112	 1
   83   113	 1
   83   114	 1
   83   117	 1
   83   118	 1
   83   116	 1
   84   104	 1
   84    87	 1
   85    90	 1
   85   103	 1
   85    93	 1
   85   116	 1
   85   119	 1
   85   120	 1
   85   121	 1
   86    89	 1
   86    97	 1
   86    96	 1
   86   101	 1
   86   102	 1
   86   104	 1
   86    92	 1
   86   115	 1
   87    90	 1
   87   103	 1
   87   117	 1
   87   118	 1
   88    89	 1
   89    94	 1
   89    95	 1
   89    90	 1
   90    97	 1
   91   109	 1
   91   110	 1
   92    93	 1
   92   117	 1
   92   118	 1
   93   104	 1
   93   115	 1
   97    98	 1
   97    99	 1
   97   100	 1
   97   101	 1
   97   102	 1
  101   103	 1
  102   103	 1
  103   104	 1
  104   105	 1
  104   106	 1
  105   107	 1
  105   108	 1
  106   107	 1
  106   108	 1
  110   111	 1
  115   117	 1
  115   118	 1
  115   116	 1

[ angles ]
;	ai	  aj	ak funct			c0			  c1			c2			  c3
    2     1    23	5 ;      CG321      CG331       HGA3
    2     1    24	5 ;      CG321      CG331       HGA3
    2     1    25	5 ;      CG321      CG331       HGA3
   23     1    24	5 ;       HGA3      CG331       HGA3
   23     1    25	5 ;       HGA3      CG331       HGA3
   24     1    25	5 ;       HGA3      CG331       HGA3
    1     2     3	5 ;      CG331      CG321      CG321
    1     2    26	5 ;      CG331      CG321       HGA2
    1     2    27	5 ;      CG331      CG321       HGA2
    3     2    26	5 ;      CG321      CG321       HGA2
    3     2    27	5 ;      CG321      CG321       HGA2
   26     2    27	5 ;       HGA2      CG321       HGA2
    2     3     4	5 ;      CG321      CG321      CG321
    2     3    28	5 ;      CG321      CG321       HGA2
    2     3    29	5 ;      CG321      CG321       HGA2
    4     3    28	5 ;      CG321      CG321       HGA2
    4     3    29	5 ;      CG321      CG321       HGA2
   28     3    29	5 ;       HGA2      CG321       HGA2
    3     4     5	5 ;      CG321      CG321      CG321
    3     4    30	5 ;      CG321      CG321       HGA2
    3     4    31	5 ;      CG321      CG321       HGA2
    5     4    30	5 ;      CG321      CG321       HGA2
    5     4    31	5 ;      CG321      CG321       HGA2
   30     4    31	5 ;       HGA2      CG321       HGA2
    4     5     6	5 ;      CG321      CG321      CG321
    4     5    32	5 ;      CG321      CG321       HGA2
    4     5    33	5 ;      CG321      CG321       HGA2
    6     5    32	5 ;      CG321      CG321       HGA2
    6     5    33	5 ;      CG321      CG321       HGA2
   32     5    33	5 ;       HGA2      CG321       HGA2
    5     6     7	5 ;      CG321      CG321      CG321
    5     6    34	5 ;      CG321      CG321       HGA2
    5     6    35	5 ;      CG321      CG321       HGA2
    7     6    34	5 ;      CG321      CG321       HGA2
    7     6    35	5 ;      CG321      CG321       HGA2
   34     6    35	5 ;       HGA2      CG321       HGA2
    6     7     8	5 ;      CG321      CG321      CG321
    6     7    36	5 ;      CG321      CG321       HGA2
    6     7    37	5 ;      CG321      CG321       HGA2
    8     7    36	5 ;      CG321      CG321       HGA2
    8     7    37	5 ;      CG321      CG321       HGA2
   36     7    37	5 ;       HGA2      CG321       HGA2
    7     8     9	5 ;      CG321      CG321      CG321
    7     8    38	5 ;      CG321      CG321       HGA2
    7     8    39	5 ;      CG321      CG321       HGA2
    9     8    38	5 ;      CG321      CG321       HGA2
    9     8    39	5 ;      CG321      CG321       HGA2
   38     8    39	5 ;       HGA2      CG321       HGA2
    8     9    10	5 ;      CG321      CG321      CG321
    8     9    40	5 ;      CG321      CG321       HGA2
    8     9    41	5 ;      CG321      CG321       HGA2
   10     9    40	5 ;      CG321      CG321       HGA2
   10     9    41	5 ;      CG321      CG321       HGA2
   40     9    41	5 ;       HGA2      CG321       HGA2
    9    10    11	5 ;      CG321      CG321      CG321
    9    10    42	5 ;      CG321      CG321       HGA2
    9    10    43	5 ;      CG321      CG321       HGA2
   11    10    42	5 ;      CG321      CG321       HGA2
   11    10    43	5 ;      CG321      CG321       HGA2
   42    10    43	5 ;       HGA2      CG321       HGA2
   10    11    12	5 ;      CG321      CG321      CG321
   10    11    44	5 ;      CG321      CG321       HGA2
   10    11    45	5 ;      CG321      CG321       HGA2
   12    11    44	5 ;      CG321      CG321       HGA2
   12    11    45	5 ;      CG321      CG321       HGA2
   44    11    45	5 ;       HGA2      CG321       HGA2
   11    12    13	5 ;      CG321      CG321      CG321
   11    12    46	5 ;      CG321      CG321       HGA2
   11    12    47	5 ;      CG321      CG321       HGA2
   13    12    46	5 ;      CG321      CG321       HGA2
   13    12    47	5 ;      CG321      CG321       HGA2
   46    12    47	5 ;       HGA2      CG321       HGA2
   12    13    14	5 ;      CG321      CG321      CG321
   12    13    48	5 ;      CG321      CG321       HGA2
   12    13    49	5 ;      CG321      CG321       HGA2
   14    13    48	5 ;      CG321      CG321       HGA2
   14    13    49	5 ;      CG321      CG321       HGA2
   48    13    49	5 ;       HGA2      CG321       HGA2
   13    14    15	5 ;      CG321      CG321      CG321
   13    14    50	5 ;      CG321      CG321       HGA2
   13    14    51	5 ;      CG321      CG321       HGA2
   15    14    50	5 ;      CG321      CG321       HGA2
   15    14    51	5 ;      CG321      CG321       HGA2
   50    14    51	5 ;       HGA2      CG321       HGA2
   14    15    16	5 ;      CG321      CG321      CG321
   14    15    52	5 ;      CG321      CG321       HGA2
   14    15    53	5 ;      CG321      CG321       HGA2
   16    15    52	5 ;      CG321      CG321       HGA2
   16    15    53	5 ;      CG321      CG321       HGA2
   52    15    53	5 ;       HGA2      CG321       HGA2
   15    16    17	5 ;      CG321      CG321      CG321
   15    16    54	5 ;      CG321      CG321       HGA2
   15    16    55	5 ;      CG321      CG321       HGA2
   17    16    54	5 ;      CG321      CG321       HGA2
   17    16    55	5 ;      CG321      CG321       HGA2
   54    16    55	5 ;       HGA2      CG321       HGA2
   16    17    18	5 ;      CG321      CG321      CG321
   16    17    56	5 ;      CG321      CG321       HGA2
   16    17    57	5 ;      CG321      CG321       HGA2
   18    17    56	5 ;      CG321      CG321       HGA2
   18    17    57	5 ;      CG321      CG321       HGA2
   56    17    57	5 ;       HGA2      CG321       HGA2
   17    18    22	5 ;      CG321      CG321      OG301
   17    18    58	5 ;      CG321      CG321       HGA2
   17    18    59	5 ;      CG321      CG321       HGA2
   22    18    58	5 ;      OG301      CG321       HGA2
   22    18    59	5 ;      OG301      CG321       HGA2
   58    18    59	5 ;       HGA2      CG321       HGA2
   20    19    21	5 ;      CG331      CG301      CG331
   20    19    88	5 ;      CG331      CG301      OG301
   20    19    22	5 ;      CG331      CG301      OG301
   21    19    88	5 ;      CG331      CG301      OG301
   21    19    22	5 ;      CG331      CG301      OG301
   88    19    22	5 ;      OG301      CG301      OG301
   19    20    60	5 ;      CG301      CG331       HGA3
   19    20    61	5 ;      CG301      CG331       HGA3
   19    20    62	5 ;      CG301      CG331       HGA3
   60    20    61	5 ;       HGA3      CG331       HGA3
   60    20    62	5 ;       HGA3      CG331       HGA3
   61    20    62	5 ;       HGA3      CG331       HGA3
   19    21    63	5 ;      CG301      CG331       HGA3
   19    21    64	5 ;      CG301      CG331       HGA3
   19    21    65	5 ;      CG301      CG331       HGA3
   63    21    64	5 ;       HGA3      CG331       HGA3
   63    21    65	5 ;       HGA3      CG331       HGA3
   64    21    65	5 ;       HGA3      CG331       HGA3
   18    22    19	5 ;      CG321      OG301      CG301
   67    66    94	5 ;      CG2O5      CG321       HGA2
   67    66    95	5 ;      CG2O5      CG321       HGA2
   67    66    88	5 ;      CG2O5      CG321      OG301
   94    66    95	5 ;       HGA2      CG321       HGA2
   94    66    88	5 ;       HGA2      CG321      OG301
   95    66    88	5 ;       HGA2      CG321      OG301
   66    67    68	5 ;      CG321      CG2O5     CG3C50
   66    67    89	5 ;      CG321      CG2O5      OG2D3
   68    67    89	5 ;     CG3C50      CG2O5      OG2D3
   67    68    69	5 ;      CG2O5     CG3C50     CG3C51
   67    68    86	5 ;      CG2O5     CG3C50     CG3RC1
   67    68    90	5 ;      CG2O5     CG3C50      OG311
   69    68    86	5 ;     CG3C51     CG3C50     CG3RC1
   69    68    90	5 ;     CG3C51     CG3C50      OG311
   86    68    90	5 ;     CG3RC1     CG3C50      OG311
   68    69    70	5 ;     CG3C50     CG3C51      CG331
   68    69    71	5 ;     CG3C50     CG3C51     CG3C52
   68    69    97	5 ;     CG3C50     CG3C51       HGA1
   70    69    71	5 ;      CG331     CG3C51     CG3C52
   70    69    97	5 ;      CG331     CG3C51       HGA1
   71    69    97	5 ;     CG3C52     CG3C51       HGA1
   69    70    98	5 ;     CG3C51      CG331       HGA3
   69    70    99	5 ;     CG3C51      CG331       HGA3
   69    70   100	5 ;     CG3C51      CG331       HGA3
   98    70    99	5 ;       HGA3      CG331       HGA3
   98    70   100	5 ;       HGA3      CG331       HGA3
   99    70   100	5 ;       HGA3      CG331       HGA3
   69    71    72	5 ;     CG3C51     CG3C52     CG3RC1
   69    71   101	5 ;     CG3C51     CG3C52       HGA2
   69    71   102	5 ;     CG3C51     CG3C52       HGA2
   72    71   101	5 ;     CG3RC1     CG3C52       HGA2
   72    71   102	5 ;     CG3RC1     CG3C52       HGA2
  101    71   102	5 ;       HGA2     CG3C52       HGA2
   71    72    73	5 ;     CG3C52     CG3RC1      CG311
   71    72    86	5 ;     CG3C52     CG3RC1     CG3RC1
   71    72   103	5 ;     CG3C52     CG3RC1       HGA1
   73    72    86	5 ;      CG311     CG3RC1     CG3RC1
   73    72   103	5 ;      CG311     CG3RC1       HGA1
   86    72   103	5 ;     CG3RC1     CG3RC1       HGA1
   72    73    74	5 ;     CG3RC1      CG311      CG321
   72    73    83	5 ;     CG3RC1      CG311      CG322
   72    73   104	5 ;     CG3RC1      CG311       HGA1
   74    73    83	5 ;      CG321      CG311      CG322
   74    73   104	5 ;      CG321      CG311       HGA1
   83    73   104	5 ;      CG322      CG311       HGA1
   73    74    75	5 ;      CG311      CG321      CG321
   73    74   105	5 ;      CG311      CG321       HGA2
   73    74   106	5 ;      CG311      CG321       HGA2
   75    74   105	5 ;      CG321      CG321       HGA2
   75    74   106	5 ;      CG321      CG321       HGA2
  105    74   106	5 ;       HGA2      CG321       HGA2
   74    75    76	5 ;      CG321      CG321     CG2DC1
   74    75   107	5 ;      CG321      CG321       HGA2
   74    75   108	5 ;      CG321      CG321       HGA2
   76    75   107	5 ;     CG2DC1      CG321       HGA2
   76    75   108	5 ;     CG2DC1      CG321       HGA2
  107    75   108	5 ;       HGA2      CG321       HGA2
   75    76    77	5 ;      CG321     CG2DC1     CG2DC1
   75    76    81	5 ;      CG321     CG2DC1      CG301
   77    76    81	5 ;     CG2DC1     CG2DC1      CG301
   76    77    78	5 ;     CG2DC1     CG2DC1      CG2O5
   76    77   109	5 ;     CG2DC1     CG2DC1       HGA4
   78    77   109	5 ;      CG2O5     CG2DC1       HGA4
   77    78    79	5 ;     CG2DC1      CG2O5     CG2DC1
   77    78    91	5 ;     CG2DC1      CG2O5      OG2D3
   79    78    91	5 ;     CG2DC1      CG2O5      OG2D3
   78    79    80	5 ;      CG2O5     CG2DC1     CG2DC1
   78    79   110	5 ;      CG2O5     CG2DC1       HGA4
   80    79   110	5 ;     CG2DC1     CG2DC1       HGA4
   79    80    81	5 ;     CG2DC1     CG2DC1      CG301
   79    80   111	5 ;     CG2DC1     CG2DC1       HGA4
   81    80   111	5 ;      CG301     CG2DC1       HGA4
   76    81    80	5 ;     CG2DC1      CG301     CG2DC1
   76    81    82	5 ;     CG2DC1      CG301      CG331
   76    81    83	5 ;     CG2DC1      CG301      CG322
   80    81    82	5 ;     CG2DC1      CG301      CG331
   80    81    83	5 ;     CG2DC1      CG301      CG322
   82    81    83	5 ;      CG331      CG301      CG322
   81    82   112	5 ;      CG301      CG331       HGA3
   81    82   113	5 ;      CG301      CG331       HGA3
   81    82   114	5 ;      CG301      CG331       HGA3
  112    82   113	5 ;       HGA3      CG331       HGA3
  112    82   114	5 ;       HGA3      CG331       HGA3
  113    82   114	5 ;       HGA3      CG331       HGA3
   73    83    81	5 ;      CG311      CG322      CG301
   73    83    84	5 ;      CG311      CG322      CG311
   73    83    93	5 ;      CG311      CG322       FGA1
   81    83    84	5 ;      CG301      CG322      CG311
   81    83    93	5 ;      CG301      CG322       FGA1
   84    83    93	5 ;      CG311      CG322       FGA1
   83    84    85	5 ;      CG322      CG311      CG321
   83    84    92	5 ;      CG322      CG311      OG311
   83    84   115	5 ;      CG322      CG311       HGA1
   85    84    92	5 ;      CG321      CG311      OG311
   85    84   115	5 ;      CG321      CG311       HGA1
   92    84   115	5 ;      OG311      CG311       HGA1
   84    85    86	5 ;      CG311      CG321     CG3RC1
   84    85   117	5 ;      CG311      CG321       HGA2
   84    85   118	5 ;      CG311      CG321       HGA2
   86    85   117	5 ;     CG3RC1      CG321       HGA2
   86    85   118	5 ;     CG3RC1      CG321       HGA2
  117    85   118	5 ;       HGA2      CG321       HGA2
   68    86    72	5 ;     CG3C50     CG3RC1     CG3RC1
   68    86    85	5 ;     CG3C50     CG3RC1      CG321
   68    86    87	5 ;     CG3C50     CG3RC1      CG331
   72    86    85	5 ;     CG3RC1     CG3RC1      CG321
   72    86    87	5 ;     CG3RC1     CG3RC1      CG331
   85    86    87	5 ;      CG321     CG3RC1      CG331
   86    87   119	5 ;     CG3RC1      CG331       HGA3
   86    87   120	5 ;     CG3RC1      CG331       HGA3
   86    87   121	5 ;     CG3RC1      CG331       HGA3
  119    87   120	5 ;       HGA3      CG331       HGA3
  119    87   121	5 ;       HGA3      CG331       HGA3
  120    87   121	5 ;       HGA3      CG331       HGA3
   19    88    66	5 ;      CG301      OG301      CG321
   68    90    96	5 ;     CG3C50      OG311       HGP1
   84    92   116	5 ;      CG311      OG311       HGP1

[ dihedrals ]
;	ai	  aj	ak	  al funct			  c0			c1			  c2			c3			  c4			c5
   23     1     2     3	 9 ;       HGA3      CG331      CG321      CG321
   23     1     2    26	 9 ;       HGA3      CG331      CG321       HGA2
   23     1     2    27	 9 ;       HGA3      CG331      CG321       HGA2
   24     1     2     3	 9 ;       HGA3      CG331      CG321      CG321
   24     1     2    26	 9 ;       HGA3      CG331      CG321       HGA2
   24     1     2    27	 9 ;       HGA3      CG331      CG321       HGA2
   25     1     2     3	 9 ;       HGA3      CG331      CG321      CG321
   25     1     2    26	 9 ;       HGA3      CG331      CG321       HGA2
   25     1     2    27	 9 ;       HGA3      CG331      CG321       HGA2
    1     2     3     4	 9 ;      CG331      CG321      CG321      CG321
    1     2     3    28	 9 ;      CG331      CG321      CG321       HGA2
    1     2     3    29	 9 ;      CG331      CG321      CG321       HGA2
   26     2     3     4	 9 ;       HGA2      CG321      CG321      CG321
   26     2     3    28	 9 ;       HGA2      CG321      CG321       HGA2
   26     2     3    29	 9 ;       HGA2      CG321      CG321       HGA2
   27     2     3     4	 9 ;       HGA2      CG321      CG321      CG321
   27     2     3    28	 9 ;       HGA2      CG321      CG321       HGA2
   27     2     3    29	 9 ;       HGA2      CG321      CG321       HGA2
    2     3     4     5	 9 ;      CG321      CG321      CG321      CG321
    2     3     4    30	 9 ;      CG321      CG321      CG321       HGA2
    2     3     4    31	 9 ;      CG321      CG321      CG321       HGA2
   28     3     4     5	 9 ;       HGA2      CG321      CG321      CG321
   28     3     4    30	 9 ;       HGA2      CG321      CG321       HGA2
   28     3     4    31	 9 ;       HGA2      CG321      CG321       HGA2
   29     3     4     5	 9 ;       HGA2      CG321      CG321      CG321
   29     3     4    30	 9 ;       HGA2      CG321      CG321       HGA2
   29     3     4    31	 9 ;       HGA2      CG321      CG321       HGA2
    3     4     5     6	 9 ;      CG321      CG321      CG321      CG321
    3     4     5    32	 9 ;      CG321      CG321      CG321       HGA2
    3     4     5    33	 9 ;      CG321      CG321      CG321       HGA2
   30     4     5     6	 9 ;       HGA2      CG321      CG321      CG321
   30     4     5    32	 9 ;       HGA2      CG321      CG321       HGA2
   30     4     5    33	 9 ;       HGA2      CG321      CG321       HGA2
   31     4     5     6	 9 ;       HGA2      CG321      CG321      CG321
   31     4     5    32	 9 ;       HGA2      CG321      CG321       HGA2
   31     4     5    33	 9 ;       HGA2      CG321      CG321       HGA2
    4     5     6     7	 9 ;      CG321      CG321      CG321      CG321
    4     5     6    34	 9 ;      CG321      CG321      CG321       HGA2
    4     5     6    35	 9 ;      CG321      CG321      CG321       HGA2
   32     5     6     7	 9 ;       HGA2      CG321      CG321      CG321
   32     5     6    34	 9 ;       HGA2      CG321      CG321       HGA2
   32     5     6    35	 9 ;       HGA2      CG321      CG321       HGA2
   33     5     6     7	 9 ;       HGA2      CG321      CG321      CG321
   33     5     6    34	 9 ;       HGA2      CG321      CG321       HGA2
   33     5     6    35	 9 ;       HGA2      CG321      CG321       HGA2
    5     6     7     8	 9 ;      CG321      CG321      CG321      CG321
    5     6     7    36	 9 ;      CG321      CG321      CG321       HGA2
    5     6     7    37	 9 ;      CG321      CG321      CG321       HGA2
   34     6     7     8	 9 ;       HGA2      CG321      CG321      CG321
   34     6     7    36	 9 ;       HGA2      CG321      CG321       HGA2
   34     6     7    37	 9 ;       HGA2      CG321      CG321       HGA2
   35     6     7     8	 9 ;       HGA2      CG321      CG321      CG321
   35     6     7    36	 9 ;       HGA2      CG321      CG321       HGA2
   35     6     7    37	 9 ;       HGA2      CG321      CG321       HGA2
    6     7     8     9	 9 ;      CG321      CG321      CG321      CG321
    6     7     8    38	 9 ;      CG321      CG321      CG321       HGA2
    6     7     8    39	 9 ;      CG321      CG321      CG321       HGA2
   36     7     8     9	 9 ;       HGA2      CG321      CG321      CG321
   36     7     8    38	 9 ;       HGA2      CG321      CG321       HGA2
   36     7     8    39	 9 ;       HGA2      CG321      CG321       HGA2
   37     7     8     9	 9 ;       HGA2      CG321      CG321      CG321
   37     7     8    38	 9 ;       HGA2      CG321      CG321       HGA2
   37     7     8    39	 9 ;       HGA2      CG321      CG321       HGA2
    7     8     9    10	 9 ;      CG321      CG321      CG321      CG321
    7     8     9    40	 9 ;      CG321      CG321      CG321       HGA2
    7     8     9    41	 9 ;      CG321      CG321      CG321       HGA2
   38     8     9    10	 9 ;       HGA2      CG321      CG321      CG321
   38     8     9    40	 9 ;       HGA2      CG321      CG321       HGA2
   38     8     9    41	 9 ;       HGA2      CG321      CG321       HGA2
   39     8     9    10	 9 ;       HGA2      CG321      CG321      CG321
   39     8     9    40	 9 ;       HGA2      CG321      CG321       HGA2
   39     8     9    41	 9 ;       HGA2      CG321      CG321       HGA2
    8     9    10    11	 9 ;      CG321      CG321      CG321      CG321
    8     9    10    42	 9 ;      CG321      CG321      CG321       HGA2
    8     9    10    43	 9 ;      CG321      CG321      CG321       HGA2
   40     9    10    11	 9 ;       HGA2      CG321      CG321      CG321
   40     9    10    42	 9 ;       HGA2      CG321      CG321       HGA2
   40     9    10    43	 9 ;       HGA2      CG321      CG321       HGA2
   41     9    10    11	 9 ;       HGA2      CG321      CG321      CG321
   41     9    10    42	 9 ;       HGA2      CG321      CG321       HGA2
   41     9    10    43	 9 ;       HGA2      CG321      CG321       HGA2
    9    10    11    12	 9 ;      CG321      CG321      CG321      CG321
    9    10    11    44	 9 ;      CG321      CG321      CG321       HGA2
    9    10    11    45	 9 ;      CG321      CG321      CG321       HGA2
   42    10    11    12	 9 ;       HGA2      CG321      CG321      CG321
   42    10    11    44	 9 ;       HGA2      CG321      CG321       HGA2
   42    10    11    45	 9 ;       HGA2      CG321      CG321       HGA2
   43    10    11    12	 9 ;       HGA2      CG321      CG321      CG321
   43    10    11    44	 9 ;       HGA2      CG321      CG321       HGA2
   43    10    11    45	 9 ;       HGA2      CG321      CG321       HGA2
   10    11    12    13	 9 ;      CG321      CG321      CG321      CG321
   10    11    12    46	 9 ;      CG321      CG321      CG321       HGA2
   10    11    12    47	 9 ;      CG321      CG321      CG321       HGA2
   44    11    12    13	 9 ;       HGA2      CG321      CG321      CG321
   44    11    12    46	 9 ;       HGA2      CG321      CG321       HGA2
   44    11    12    47	 9 ;       HGA2      CG321      CG321       HGA2
   45    11    12    13	 9 ;       HGA2      CG321      CG321      CG321
   45    11    12    46	 9 ;       HGA2      CG321      CG321       HGA2
   45    11    12    47	 9 ;       HGA2      CG321      CG321       HGA2
   11    12    13    14	 9 ;      CG321      CG321      CG321      CG321
   11    12    13    48	 9 ;      CG321      CG321      CG321       HGA2
   11    12    13    49	 9 ;      CG321      CG321      CG321       HGA2
   46    12    13    14	 9 ;       HGA2      CG321      CG321      CG321
   46    12    13    48	 9 ;       HGA2      CG321      CG321       HGA2
   46    12    13    49	 9 ;       HGA2      CG321      CG321       HGA2
   47    12    13    14	 9 ;       HGA2      CG321      CG321      CG321
   47    12    13    48	 9 ;       HGA2      CG321      CG321       HGA2
   47    12    13    49	 9 ;       HGA2      CG321      CG321       HGA2
   12    13    14    15	 9 ;      CG321      CG321      CG321      CG321
   12    13    14    50	 9 ;      CG321      CG321      CG321       HGA2
   12    13    14    51	 9 ;      CG321      CG321      CG321       HGA2
   48    13    14    15	 9 ;       HGA2      CG321      CG321      CG321
   48    13    14    50	 9 ;       HGA2      CG321      CG321       HGA2
   48    13    14    51	 9 ;       HGA2      CG321      CG321       HGA2
   49    13    14    15	 9 ;       HGA2      CG321      CG321      CG321
   49    13    14    50	 9 ;       HGA2      CG321      CG321       HGA2
   49    13    14    51	 9 ;       HGA2      CG321      CG321       HGA2
   13    14    15    16	 9 ;      CG321      CG321      CG321      CG321
   13    14    15    52	 9 ;      CG321      CG321      CG321       HGA2
   13    14    15    53	 9 ;      CG321      CG321      CG321       HGA2
   50    14    15    16	 9 ;       HGA2      CG321      CG321      CG321
   50    14    15    52	 9 ;       HGA2      CG321      CG321       HGA2
   50    14    15    53	 9 ;       HGA2      CG321      CG321       HGA2
   51    14    15    16	 9 ;       HGA2      CG321      CG321      CG321
   51    14    15    52	 9 ;       HGA2      CG321      CG321       HGA2
   51    14    15    53	 9 ;       HGA2      CG321      CG321       HGA2
   14    15    16    17	 9 ;      CG321      CG321      CG321      CG321
   14    15    16    54	 9 ;      CG321      CG321      CG321       HGA2
   14    15    16    55	 9 ;      CG321      CG321      CG321       HGA2
   52    15    16    17	 9 ;       HGA2      CG321      CG321      CG321
   52    15    16    54	 9 ;       HGA2      CG321      CG321       HGA2
   52    15    16    55	 9 ;       HGA2      CG321      CG321       HGA2
   53    15    16    17	 9 ;       HGA2      CG321      CG321      CG321
   53    15    16    54	 9 ;       HGA2      CG321      CG321       HGA2
   53    15    16    55	 9 ;       HGA2      CG321      CG321       HGA2
   15    16    17    18	 9 ;      CG321      CG321      CG321      CG321
   15    16    17    56	 9 ;      CG321      CG321      CG321       HGA2
   15    16    17    57	 9 ;      CG321      CG321      CG321       HGA2
   54    16    17    18	 9 ;       HGA2      CG321      CG321      CG321
   54    16    17    56	 9 ;       HGA2      CG321      CG321       HGA2
   54    16    17    57	 9 ;       HGA2      CG321      CG321       HGA2
   55    16    17    18	 9 ;       HGA2      CG321      CG321      CG321
   55    16    17    56	 9 ;       HGA2      CG321      CG321       HGA2
   55    16    17    57	 9 ;       HGA2      CG321      CG321       HGA2
   16    17    18    22	 9 ;      CG321      CG321      CG321      OG301
   16    17    18    58	 9 ;      CG321      CG321      CG321       HGA2
   16    17    18    59	 9 ;      CG321      CG321      CG321       HGA2
   56    17    18    22	 9 ;       HGA2      CG321      CG321      OG301
   56    17    18    58	 9 ;       HGA2      CG321      CG321       HGA2
   56    17    18    59	 9 ;       HGA2      CG321      CG321       HGA2
   57    17    18    22	 9 ;       HGA2      CG321      CG321      OG301
   57    17    18    58	 9 ;       HGA2      CG321      CG321       HGA2
   57    17    18    59	 9 ;       HGA2      CG321      CG321       HGA2
   17    18    22    19	 9 ;      CG321      CG321      OG301      CG301
   58    18    22    19	 9 ;       HGA2      CG321      OG301      CG301
   59    18    22    19	 9 ;       HGA2      CG321      OG301      CG301
   21    19    20    60	 9 ;      CG331      CG301      CG331       HGA3
   21    19    20    61	 9 ;      CG331      CG301      CG331       HGA3
   21    19    20    62	 9 ;      CG331      CG301      CG331       HGA3
   88    19    20    60	 9 ;      OG301      CG301      CG331       HGA3
   88    19    20    61	 9 ;      OG301      CG301      CG331       HGA3
   88    19    20    62	 9 ;      OG301      CG301      CG331       HGA3
   22    19    20    60	 9 ;      OG301      CG301      CG331       HGA3
   22    19    20    61	 9 ;      OG301      CG301      CG331       HGA3
   22    19    20    62	 9 ;      OG301      CG301      CG331       HGA3
   20    19    21    63	 9 ;      CG331      CG301      CG331       HGA3
   20    19    21    64	 9 ;      CG331      CG301      CG331       HGA3
   20    19    21    65	 9 ;      CG331      CG301      CG331       HGA3
   88    19    21    63	 9 ;      OG301      CG301      CG331       HGA3
   88    19    21    64	 9 ;      OG301      CG301      CG331       HGA3
   88    19    21    65	 9 ;      OG301      CG301      CG331       HGA3
   22    19    21    63	 9 ;      OG301      CG301      CG331       HGA3
   22    19    21    64	 9 ;      OG301      CG301      CG331       HGA3
   22    19    21    65	 9 ;      OG301      CG301      CG331       HGA3
   20    19    88    66	 9 ;      CG331      CG301      OG301      CG321
   21    19    88    66	 9 ;      CG331      CG301      OG301      CG321
   22    19    88    66	 9 ;      OG301      CG301      OG301      CG321
   20    19    22    18	 9 ;      CG331      CG301      OG301      CG321
   21    19    22    18	 9 ;      CG331      CG301      OG301      CG321
   88    19    22    18	 9 ;      OG301      CG301      OG301      CG321
   94    66    67    68	 9 ;       HGA2      CG321      CG2O5     CG3C50
   94    66    67    89	 9 ;       HGA2      CG321      CG2O5      OG2D3
   95    66    67    68	 9 ;       HGA2      CG321      CG2O5     CG3C50
   95    66    67    89	 9 ;       HGA2      CG321      CG2O5      OG2D3
   88    66    67    68	 9 ;      OG301      CG321      CG2O5     CG3C50
   88    66    67    89	 9 ;      OG301      CG321      CG2O5      OG2D3
   67    66    88    19	 9 ;      CG2O5      CG321      OG301      CG301
   94    66    88    19	 9 ;       HGA2      CG321      OG301      CG301
   95    66    88    19	 9 ;       HGA2      CG321      OG301      CG301
   66    67    68    69	 9 ;      CG321      CG2O5     CG3C50     CG3C51
   66    67    68    86	 9 ;      CG321      CG2O5     CG3C50     CG3RC1
   66    67    68    90	 9 ;      CG321      CG2O5     CG3C50      OG311
   89    67    68    69	 9 ;      OG2D3      CG2O5     CG3C50     CG3C51
   89    67    68    86	 9 ;      OG2D3      CG2O5     CG3C50     CG3RC1
   89    67    68    90	 9 ;      OG2D3      CG2O5     CG3C50      OG311
   67    68    69    70	 9 ;      CG2O5     CG3C50     CG3C51      CG331
   67    68    69    71	 9 ;      CG2O5     CG3C50     CG3C51     CG3C52
   67    68    69    97	 9 ;      CG2O5     CG3C50     CG3C51       HGA1
   86    68    69    70	 9 ;     CG3RC1     CG3C50     CG3C51      CG331
   86    68    69    71	 9 ;     CG3RC1     CG3C50     CG3C51     CG3C52
   86    68    69    97	 9 ;     CG3RC1     CG3C50     CG3C51       HGA1
   90    68    69    70	 9 ;      OG311     CG3C50     CG3C51      CG331
   90    68    69    71	 9 ;      OG311     CG3C50     CG3C51     CG3C52
   90    68    69    97	 9 ;      OG311     CG3C50     CG3C51       HGA1
   67    68    86    72	 9 ;      CG2O5     CG3C50     CG3RC1     CG3RC1
   67    68    86    85	 9 ;      CG2O5     CG3C50     CG3RC1      CG321
   67    68    86    87	 9 ;      CG2O5     CG3C50     CG3RC1      CG331
   69    68    86    72	 9 ;     CG3C51     CG3C50     CG3RC1     CG3RC1
   69    68    86    85	 9 ;     CG3C51     CG3C50     CG3RC1      CG321
   69    68    86    87	 9 ;     CG3C51     CG3C50     CG3RC1      CG331
   90    68    86    72	 9 ;      OG311     CG3C50     CG3RC1     CG3RC1
   90    68    86    85	 9 ;      OG311     CG3C50     CG3RC1      CG321
   90    68    86    87	 9 ;      OG311     CG3C50     CG3RC1      CG331
   67    68    90    96	 9 ;      CG2O5     CG3C50      OG311       HGP1
   69    68    90    96	 9 ;     CG3C51     CG3C50      OG311       HGP1
   86    68    90    96	 9 ;     CG3RC1     CG3C50      OG311       HGP1
   68    69    70    98	 9 ;     CG3C50     CG3C51      CG331       HGA3
   68    69    70    99	 9 ;     CG3C50     CG3C51      CG331       HGA3
   68    69    70   100	 9 ;     CG3C50     CG3C51      CG331       HGA3
   71    69    70    98	 9 ;     CG3C52     CG3C51      CG331       HGA3
   71    69    70    99	 9 ;     CG3C52     CG3C51      CG331       HGA3
   71    69    70   100	 9 ;     CG3C52     CG3C51      CG331       HGA3
   97    69    70    98	 9 ;       HGA1     CG3C51      CG331       HGA3
   97    69    70    99	 9 ;       HGA1     CG3C51      CG331       HGA3
   97    69    70   100	 9 ;       HGA1     CG3C51      CG331       HGA3
   68    69    71    72	 9 ;     CG3C50     CG3C51     CG3C52     CG3RC1
   68    69    71   101	 9 ;     CG3C50     CG3C51     CG3C52       HGA2
   68    69    71   102	 9 ;     CG3C50     CG3C51     CG3C52       HGA2
   70    69    71    72	 9 ;      CG331     CG3C51     CG3C52     CG3RC1
   70    69    71   101	 9 ;      CG331     CG3C51     CG3C52       HGA2
   70    69    71   102	 9 ;      CG331     CG3C51     CG3C52       HGA2
   97    69    71    72	 9 ;       HGA1     CG3C51     CG3C52     CG3RC1
   97    69    71   101	 9 ;       HGA1     CG3C51     CG3C52       HGA2
   97    69    71   102	 9 ;       HGA1     CG3C51     CG3C52       HGA2
   69    71    72    73	 9 ;     CG3C51     CG3C52     CG3RC1      CG311
   69    71    72    86	 9 ;     CG3C51     CG3C52     CG3RC1     CG3RC1
   69    71    72   103	 9 ;     CG3C51     CG3C52     CG3RC1       HGA1
  101    71    72    73	 9 ;       HGA2     CG3C52     CG3RC1      CG311
  101    71    72    86	 9 ;       HGA2     CG3C52     CG3RC1     CG3RC1
  101    71    72   103	 9 ;       HGA2     CG3C52     CG3RC1       HGA1
  102    71    72    73	 9 ;       HGA2     CG3C52     CG3RC1      CG311
  102    71    72    86	 9 ;       HGA2     CG3C52     CG3RC1     CG3RC1
  102    71    72   103	 9 ;       HGA2     CG3C52     CG3RC1       HGA1
   71    72    73    74	 9 ;     CG3C52     CG3RC1      CG311      CG321
   71    72    73    83	 9 ;     CG3C52     CG3RC1      CG311      CG322
   71    72    73   104	 9 ;     CG3C52     CG3RC1      CG311       HGA1
   86    72    73    74	 9 ;     CG3RC1     CG3RC1      CG311      CG321
   86    72    73    83	 9 ;     CG3RC1     CG3RC1      CG311      CG322
   86    72    73   104	 9 ;     CG3RC1     CG3RC1      CG311       HGA1
  103    72    73    74	 9 ;       HGA1     CG3RC1      CG311      CG321
  103    72    73    83	 9 ;       HGA1     CG3RC1      CG311      CG322
  103    72    73   104	 9 ;       HGA1     CG3RC1      CG311       HGA1
   71    72    86    68	 9 ;     CG3C52     CG3RC1     CG3RC1     CG3C50
   71    72    86    85	 9 ;     CG3C52     CG3RC1     CG3RC1      CG321
   71    72    86    87	 9 ;     CG3C52     CG3RC1     CG3RC1      CG331
   73    72    86    68	 9 ;      CG311     CG3RC1     CG3RC1     CG3C50
   73    72    86    85	 9 ;      CG311     CG3RC1     CG3RC1      CG321
   73    72    86    87	 9 ;      CG311     CG3RC1     CG3RC1      CG331
  103    72    86    68	 9 ;       HGA1     CG3RC1     CG3RC1     CG3C50
  103    72    86    85	 9 ;       HGA1     CG3RC1     CG3RC1      CG321
  103    72    86    87	 9 ;       HGA1     CG3RC1     CG3RC1      CG331
   72    73    74    75	 9 ;     CG3RC1      CG311      CG321      CG321
   72    73    74   105	 9 ;     CG3RC1      CG311      CG321       HGA2
   72    73    74   106	 9 ;     CG3RC1      CG311      CG321       HGA2
   83    73    74    75	 9 ;      CG322      CG311      CG321      CG321
   83    73    74   105	 9 ;      CG322      CG311      CG321       HGA2
   83    73    74   106	 9 ;      CG322      CG311      CG321       HGA2
  104    73    74    75	 9 ;       HGA1      CG311      CG321      CG321
  104    73    74   105	 9 ;       HGA1      CG311      CG321       HGA2
  104    73    74   106	 9 ;       HGA1      CG311      CG321       HGA2
   72    73    83    81	 9 ;     CG3RC1      CG311      CG322      CG301
   72    73    83    84	 9 ;     CG3RC1      CG311      CG322      CG311
   72    73    83    93	 9 ;     CG3RC1      CG311      CG322       FGA1
   74    73    83    81	 9 ;      CG321      CG311      CG322      CG301
   74    73    83    84	 9 ;      CG321      CG311      CG322      CG311
   74    73    83    93	 9 ;      CG321      CG311      CG322       FGA1
  104    73    83    81	 9 ;       HGA1      CG311      CG322      CG301
  104    73    83    84	 9 ;       HGA1      CG311      CG322      CG311
  104    73    83    93	 9 ;       HGA1      CG311      CG322       FGA1
   73    74    75    76	 9 ;      CG311      CG321      CG321     CG2DC1
   73    74    75   107	 9 ;      CG311      CG321      CG321       HGA2
   73    74    75   108	 9 ;      CG311      CG321      CG321       HGA2
  105    74    75    76	 9 ;       HGA2      CG321      CG321     CG2DC1
  105    74    75   107	 9 ;       HGA2      CG321      CG321       HGA2
  105    74    75   108	 9 ;       HGA2      CG321      CG321       HGA2
  106    74    75    76	 9 ;       HGA2      CG321      CG321     CG2DC1
  106    74    75   107	 9 ;       HGA2      CG321      CG321       HGA2
  106    74    75   108	 9 ;       HGA2      CG321      CG321       HGA2
   74    75    76    77	 9 ;      CG321      CG321     CG2DC1     CG2DC1
   74    75    76    81	 9 ;      CG321      CG321     CG2DC1      CG301
  107    75    76    77	 9 ;       HGA2      CG321     CG2DC1     CG2DC1
  107    75    76    81	 9 ;       HGA2      CG321     CG2DC1      CG301
  108    75    76    77	 9 ;       HGA2      CG321     CG2DC1     CG2DC1
  108    75    76    81	 9 ;       HGA2      CG321     CG2DC1      CG301
   75    76    77    78	 9 ;      CG321     CG2DC1     CG2DC1      CG2O5
   75    76    77   109	 9 ;      CG321     CG2DC1     CG2DC1       HGA4
   81    76    77    78	 9 ;      CG301     CG2DC1     CG2DC1      CG2O5
   81    76    77   109	 9 ;      CG301     CG2DC1     CG2DC1       HGA4
   75    76    81    80	 9 ;      CG321     CG2DC1      CG301     CG2DC1
   75    76    81    82	 9 ;      CG321     CG2DC1      CG301      CG331
   75    76    81    83	 9 ;      CG321     CG2DC1      CG301      CG322
   77    76    81    80	 9 ;     CG2DC1     CG2DC1      CG301     CG2DC1
   77    76    81    82	 9 ;     CG2DC1     CG2DC1      CG301      CG331
   77    76    81    83	 9 ;     CG2DC1     CG2DC1      CG301      CG322
   76    77    78    79	 9 ;     CG2DC1     CG2DC1      CG2O5     CG2DC1
   76    77    78    91	 9 ;     CG2DC1     CG2DC1      CG2O5      OG2D3
  109    77    78    79	 9 ;       HGA4     CG2DC1      CG2O5     CG2DC1
  109    77    78    91	 9 ;       HGA4     CG2DC1      CG2O5      OG2D3
   77    78    79    80	 9 ;     CG2DC1      CG2O5     CG2DC1     CG2DC1
   77    78    79   110	 9 ;     CG2DC1      CG2O5     CG2DC1       HGA4
   91    78    79    80	 9 ;      OG2D3      CG2O5     CG2DC1     CG2DC1
   91    78    79   110	 9 ;      OG2D3      CG2O5     CG2DC1       HGA4
   78    79    80    81	 9 ;      CG2O5     CG2DC1     CG2DC1      CG301
   78    79    80   111	 9 ;      CG2O5     CG2DC1     CG2DC1       HGA4
  110    79    80    81	 9 ;       HGA4     CG2DC1     CG2DC1      CG301
  110    79    80   111	 9 ;       HGA4     CG2DC1     CG2DC1       HGA4
   79    80    81    76	 9 ;     CG2DC1     CG2DC1      CG301     CG2DC1
   79    80    81    82	 9 ;     CG2DC1     CG2DC1      CG301      CG331
   79    80    81    83	 9 ;     CG2DC1     CG2DC1      CG301      CG322
  111    80    81    76	 9 ;       HGA4     CG2DC1      CG301     CG2DC1
  111    80    81    82	 9 ;       HGA4     CG2DC1      CG301      CG331
  111    80    81    83	 9 ;       HGA4     CG2DC1      CG301      CG322
   76    81    82   112	 9 ;     CG2DC1      CG301      CG331       HGA3
   76    81    82   113	 9 ;     CG2DC1      CG301      CG331       HGA3
   76    81    82   114	 9 ;     CG2DC1      CG301      CG331       HGA3
   80    81    82   112	 9 ;     CG2DC1      CG301      CG331       HGA3
   80    81    82   113	 9 ;     CG2DC1      CG301      CG331       HGA3
   80    81    82   114	 9 ;     CG2DC1      CG301      CG331       HGA3
   83    81    82   112	 9 ;      CG322      CG301      CG331       HGA3
   83    81    82   113	 9 ;      CG322      CG301      CG331       HGA3
   83    81    82   114	 9 ;      CG322      CG301      CG331       HGA3
   76    81    83    73	 9 ;     CG2DC1      CG301      CG322      CG311
   76    81    83    84	 9 ;     CG2DC1      CG301      CG322      CG311
   76    81    83    93	 9 ;     CG2DC1      CG301      CG322       FGA1
   80    81    83    73	 9 ;     CG2DC1      CG301      CG322      CG311
   80    81    83    84	 9 ;     CG2DC1      CG301      CG322      CG311
   80    81    83    93	 9 ;     CG2DC1      CG301      CG322       FGA1
   82    81    83    73	 9 ;      CG331      CG301      CG322      CG311
   82    81    83    84	 9 ;      CG331      CG301      CG322      CG311
   82    81    83    93	 9 ;      CG331      CG301      CG322       FGA1
   73    83    84    85	 9 ;      CG311      CG322      CG311      CG321
   73    83    84    92	 9 ;      CG311      CG322      CG311      OG311
   73    83    84   115	 9 ;      CG311      CG322      CG311       HGA1
   81    83    84    85	 9 ;      CG301      CG322      CG311      CG321
   81    83    84    92	 9 ;      CG301      CG322      CG311      OG311
   81    83    84   115	 9 ;      CG301      CG322      CG311       HGA1
   93    83    84    85	 9 ;       FGA1      CG322      CG311      CG321
   93    83    84    92	 9 ;       FGA1      CG322      CG311      OG311
   93    83    84   115	 9 ;       FGA1      CG322      CG311       HGA1
   83    84    85    86	 9 ;      CG322      CG311      CG321     CG3RC1
   83    84    85   117	 9 ;      CG322      CG311      CG321       HGA2
   83    84    85   118	 9 ;      CG322      CG311      CG321       HGA2
   92    84    85    86	 9 ;      OG311      CG311      CG321     CG3RC1
   92    84    85   117	 9 ;      OG311      CG311      CG321       HGA2
   92    84    85   118	 9 ;      OG311      CG311      CG321       HGA2
  115    84    85    86	 9 ;       HGA1      CG311      CG321     CG3RC1
  115    84    85   117	 9 ;       HGA1      CG311      CG321       HGA2
  115    84    85   118	 9 ;       HGA1      CG311      CG321       HGA2
   83    84    92   116	 9 ;      CG322      CG311      OG311       HGP1
   85    84    92   116	 9 ;      CG321      CG311      OG311       HGP1
  115    84    92   116	 9 ;       HGA1      CG311      OG311       HGP1
   84    85    86    68	 9 ;      CG311      CG321     CG3RC1     CG3C50
   84    85    86    72	 9 ;      CG311      CG321     CG3RC1     CG3RC1
   84    85    86    87	 9 ;      CG311      CG321     CG3RC1      CG331
  117    85    86    68	 9 ;       HGA2      CG321     CG3RC1     CG3C50
  117    85    86    72	 9 ;       HGA2      CG321     CG3RC1     CG3RC1
  117    85    86    87	 9 ;       HGA2      CG321     CG3RC1      CG331
  118    85    86    68	 9 ;       HGA2      CG321     CG3RC1     CG3C50
  118    85    86    72	 9 ;       HGA2      CG321     CG3RC1     CG3RC1
  118    85    86    87	 9 ;       HGA2      CG321     CG3RC1      CG331
   68    86    87   119	 9 ;     CG3C50     CG3RC1      CG331       HGA3
   68    86    87   120	 9 ;     CG3C50     CG3RC1      CG331       HGA3
   68    86    87   121	 9 ;     CG3C50     CG3RC1      CG331       HGA3
   72    86    87   119	 9 ;     CG3RC1     CG3RC1      CG331       HGA3
   72    86    87   120	 9 ;     CG3RC1     CG3RC1      CG331       HGA3
   72    86    87   121	 9 ;     CG3RC1     CG3RC1      CG331       HGA3
   85    86    87   119	 9 ;      CG321     CG3RC1      CG331       HGA3
   85    86    87   120	 9 ;      CG321     CG3RC1      CG331       HGA3
   85    86    87   121	 9 ;      CG321     CG3RC1      CG331       HGA3

[ dihedrals ]
;	ai	  aj	ak	  al funct			  c0			c1			  c2			c3
   67    66    68    89	 2
   78    77    79    91	 2

