; Created by cgenff_charmm2gmx.py

[ moleculetype ]
; Name			   nrexcl
ABI				 3

[ atoms ]
;	 nr		  type	resnr residue  atom   cgnr	   charge		mass  typeB    chargeB		massB
; residue	 1 ABI rtp ABI q	qsum
     1     NG2R60      1    ABI      N      1     -0.599     14.007   ;
     2      CG311      1    ABI     C1      2      0.187     12.011   ;
     3      CG321      1    ABI     C2      3     -0.196     12.011   ;
     4      CG321      1    ABI     C3      4     -0.174     12.011   ;
     5      CG301      1    ABI     C4      5     -0.001     12.011   ;
     6      CG331      1    ABI     C5      6     -0.272     12.011   ;
     7      CG2D1      1    ABI     C6      7      0.003     12.011   ;
     8      CG2D1      1    ABI     C7      8     -0.153     12.011   ;
     9      CG321      1    ABI     C8      9     -0.178     12.011   ;
    10      CG311      1    ABI     C9     10     -0.078     12.011   ;
    11     CG3RC1      1    ABI    C10     11     -0.136     12.011   ;
    12     CG3C52      1    ABI    C11     12     -0.157     12.011   ;
    13     CG2R51      1    ABI    C12     13     -0.066     12.011   ;
    14     CG2R51      1    ABI    C13     14     -0.007     12.011   ;
    15     CG2R61      1    ABI    C14     15      0.106     12.011   ;
    16     CG2R61      1    ABI    C15     16     -0.113     12.011   ;
    17     CG2R61      1    ABI    C16     17     -0.123     12.011   ;
    18     CG2R61      1    ABI    C17     18      0.182     12.011   ;
    19     CG2R61      1    ABI    C18     19      0.168     12.011   ;
    20     CG3RC1      1    ABI    C19     20     -0.171     12.011   ;
    21      CG331      1    ABI    C20     21     -0.271     12.011   ;
    22      CG321      1    ABI    C21     22     -0.186     12.011   ;
    23      CG321      1    ABI    C22     23     -0.177     12.011   ;
    24      CG311      1    ABI    C23     24     -0.098     12.011   ;
    25      CG321      1    ABI    C24     25     -0.185     12.011   ;
    26      OG301      1    ABI     O1     26     -0.459     15.999   ;
    27       HGA1      1    ABI     H1     27      0.090      1.008   ;
    28       HGA2      1    ABI     H2     28      0.090      1.008   ;
    29       HGA2      1    ABI     H3     29      0.090      1.008   ;
    30       HGA2      1    ABI     H4     30      0.090      1.008   ;
    31       HGA2      1    ABI     H5     31      0.090      1.008   ;
    32       HGA3      1    ABI     H6     32      0.090      1.008   ;
    33       HGA3      1    ABI     H7     33      0.090      1.008   ;
    34       HGA3      1    ABI     H8     34      0.090      1.008   ;
    35       HGA4      1    ABI     H9     35      0.150      1.008   ;
    36       HGA2      1    ABI    H10     36      0.090      1.008   ;
    37       HGA2      1    ABI    H11     37      0.090      1.008   ;
    38       HGA1      1    ABI    H12     38      0.090      1.008   ;
    39       HGA1      1    ABI    H13     39      0.090      1.008   ;
    40       HGA2      1    ABI    H14     40      0.090      1.008   ;
    41       HGA2      1    ABI    H15     41      0.090      1.008   ;
    42      HGR51      1    ABI    H16     42      0.175      1.008   ;
    43      HGR61      1    ABI    H17     43      0.115      1.008   ;
    44      HGR61      1    ABI    H18     44      0.115      1.008   ;
    45      HGR62      1    ABI    H19     45      0.122      1.008   ;
    46      HGR62      1    ABI    H20     46      0.122      1.008   ;
    47       HGA3      1    ABI    H21     47      0.090      1.008   ;
    48       HGA3      1    ABI    H22     48      0.090      1.008   ;
    49       HGA3      1    ABI    H23     49      0.090      1.008   ;
    50       HGA2      1    ABI    H24     50      0.090      1.008   ;
    51       HGA2      1    ABI    H25     51      0.090      1.008   ;
    52       HGA2      1    ABI    H26     52      0.090      1.008   ;
    53       HGA2      1    ABI    H27     53      0.090      1.008   ;
    54       HGA1      1    ABI    H28     54      0.090      1.008   ;
    55       HGA2      1    ABI    H29     55      0.090      1.008   ;
    56       HGA2      1    ABI    H30     56      0.090      1.008   ;
    57      CG331      1    ABL    C25     57     -0.273     12.011   ;
    58      CG321      1    ABL    C26     58     -0.177     12.011   ;
    59      CG321      1    ABL    C27     59     -0.181     12.011   ;
    60      CG321      1    ABL    C28     60     -0.179     12.011   ;
    61      CG321      1    ABL    C29     61     -0.180     12.011   ;
    62      CG321      1    ABL    C30     62     -0.180     12.011   ;
    63      CG321      1    ABL    C31     63     -0.180     12.011   ;
    64      CG321      1    ABL    C32     64      0.036     12.011   ;
    65      CG301      1    ABL    C33     65      0.379     12.011   ;
    66      CG331      1    ABL    C34     66     -0.269     12.011   ;
    67      CG331      1    ABL    C35     67     -0.269     12.011   ;
    68      OG301      1    ABL     O2     68     -0.402     15.999   ;
    69       HGA3      1    ABL    H31     69      0.090      1.008   ;
    70       HGA3      1    ABL    H32     70      0.090      1.008   ;
    71       HGA3      1    ABL    H33     71      0.090      1.008   ;
    72       HGA2      1    ABL    H34     72      0.090      1.008   ;
    73       HGA2      1    ABL    H35     73      0.090      1.008   ;
    74       HGA2      1    ABL    H36     74      0.090      1.008   ;
    75       HGA2      1    ABL    H37     75      0.090      1.008   ;
    76       HGA2      1    ABL    H38     76      0.090      1.008   ;
    77       HGA2      1    ABL    H39     77      0.090      1.008   ;
    78       HGA2      1    ABL    H40     78      0.090      1.008   ;
    79       HGA2      1    ABL    H41     79      0.090      1.008   ;
    80       HGA2      1    ABL    H42     80      0.090      1.008   ;
    81       HGA2      1    ABL    H43     81      0.090      1.008   ;
    82       HGA2      1    ABL    H44     82      0.090      1.008   ;
    83       HGA2      1    ABL    H45     83      0.090      1.008   ;
    84       HGA2      1    ABL    H46     84      0.090      1.008   ;
    85       HGA2      1    ABL    H47     85      0.090      1.008   ;
    86       HGA3      1    ABL    H48     86      0.090      1.008   ;
    87       HGA3      1    ABL    H49     87      0.090      1.008   ;
    88       HGA3      1    ABL    H50     88      0.090      1.008   ;
    89       HGA3      1    ABL    H51     89      0.090      1.008   ;
    90       HGA3      1    ABL    H52     90      0.090      1.008   ;
    91       HGA3      1    ABL    H53     91      0.090      1.008   ;

[ bonds ]
;	ai	  aj funct			  c0			c1			  c2			c3
    1    19	 1 ;      NG2R60     CG2R61
    1    18	 1 ;      NG2R60     CG2R61
    2     3	 1 ;       CG311      CG321
    2    25	 1 ;       CG311      CG321
    2    27	 1 ;       CG311       HGA1
    2    26	 1 ;       CG311      OG301
    3     4	 1 ;       CG321      CG321
    3    28	 1 ;       CG321       HGA2
    3    29	 1 ;       CG321       HGA2
    4     5	 1 ;       CG321      CG301
    4    30	 1 ;       CG321       HGA2
    4    31	 1 ;       CG321       HGA2
    5     6	 1 ;       CG301      CG331
    5     7	 1 ;       CG301      CG2D1
    5    24	 1 ;       CG301      CG311
    6    32	 1 ;       CG331       HGA3
    6    33	 1 ;       CG331       HGA3
    6    34	 1 ;       CG331       HGA3
    7     8	 1 ;       CG2D1      CG2D1
    7    25	 1 ;       CG2D1      CG321
    8     9	 1 ;       CG2D1      CG321
    8    35	 1 ;       CG2D1       HGA4
    9    10	 1 ;       CG321      CG311
    9    36	 1 ;       CG321       HGA2
    9    37	 1 ;       CG321       HGA2
   10    11	 1 ;       CG311     CG3RC1
   10    24	 1 ;       CG311      CG311
   10    38	 1 ;       CG311       HGA1
   11    12	 1 ;      CG3RC1     CG3C52
   11    20	 1 ;      CG3RC1     CG3RC1
   11    39	 1 ;      CG3RC1       HGA1
   12    13	 1 ;      CG3C52     CG2R51
   12    40	 1 ;      CG3C52       HGA2
   12    41	 1 ;      CG3C52       HGA2
   13    14	 1 ;      CG2R51     CG2R51
   13    42	 1 ;      CG2R51      HGR51
   14    15	 1 ;      CG2R51     CG2R61
   14    20	 1 ;      CG2R51     CG3RC1
   15    16	 1 ;      CG2R61     CG2R61
   15    19	 1 ;      CG2R61     CG2R61
   16    17	 1 ;      CG2R61     CG2R61
   16    43	 1 ;      CG2R61      HGR61
   17    18	 1 ;      CG2R61     CG2R61
   17    44	 1 ;      CG2R61      HGR61
   18    45	 1 ;      CG2R61      HGR62
   19    46	 1 ;      CG2R61      HGR62
   20    21	 1 ;      CG3RC1      CG331
   20    22	 1 ;      CG3RC1      CG321
   21    47	 1 ;       CG331       HGA3
   21    48	 1 ;       CG331       HGA3
   21    49	 1 ;       CG331       HGA3
   22    23	 1 ;       CG321      CG321
   22    50	 1 ;       CG321       HGA2
   22    51	 1 ;       CG321       HGA2
   23    24	 1 ;       CG321      CG311
   23    52	 1 ;       CG321       HGA2
   23    53	 1 ;       CG321       HGA2
   24    54	 1 ;       CG311       HGA1
   25    55	 1 ;       CG321       HGA2
   25    56	 1 ;       CG321       HGA2
   26    65	 1 ;       OG301      CG301
   57    58	 1 ;       CG331      CG321
   57    69	 1 ;       CG331       HGA3
   57    70	 1 ;       CG331       HGA3
   57    71	 1 ;       CG331       HGA3
   58    59	 1 ;       CG321      CG321
   58    72	 1 ;       CG321       HGA2
   58    73	 1 ;       CG321       HGA2
   59    60	 1 ;       CG321      CG321
   59    74	 1 ;       CG321       HGA2
   59    75	 1 ;       CG321       HGA2
   60    61	 1 ;       CG321      CG321
   60    76	 1 ;       CG321       HGA2
   60    77	 1 ;       CG321       HGA2
   61    62	 1 ;       CG321      CG321
   61    78	 1 ;       CG321       HGA2
   61    79	 1 ;       CG321       HGA2
   62    63	 1 ;       CG321      CG321
   62    80	 1 ;       CG321       HGA2
   62    81	 1 ;       CG321       HGA2
   63    64	 1 ;       CG321      CG321
   63    82	 1 ;       CG321       HGA2
   63    83	 1 ;       CG321       HGA2
   64    68	 1 ;       CG321      OG301
   64    84	 1 ;       CG321       HGA2
   64    85	 1 ;       CG321       HGA2
   65    66	 1 ;       CG301      CG331
   65    67	 1 ;       CG301      CG331
   65    68	 1 ;       CG301      OG301
   66    86	 1 ;       CG331       HGA3
   66    87	 1 ;       CG331       HGA3
   66    88	 1 ;       CG331       HGA3
   67    89	 1 ;       CG331       HGA3
   67    90	 1 ;       CG331       HGA3
   67    91	 1 ;       CG331       HGA3

[ pairs ]
;	ai	  aj funct			  c0			c1			  c2			c3
    1    14	 1
    1    16	 1
    1    44	 1
    2     5	 1
    2    30	 1
    2    31	 1
    2     8	 1
    2    66	 1
    2    67	 1
    2    68	 1
    3     7	 1
    3    55	 1
    3    56	 1
    3    65	 1
    3     6	 1
    3    24	 1
    4    25	 1
    4    27	 1
    4    26	 1
    4    32	 1
    4    33	 1
    4    34	 1
    4     8	 1
    4    10	 1
    4    23	 1
    4    54	 1
    5    28	 1
    5    29	 1
    5     9	 1
    5    35	 1
    5    55	 1
    5    56	 1
    5    11	 1
    5    38	 1
    5    22	 1
    5    52	 1
    5    53	 1
    6    30	 1
    6    31	 1
    6     8	 1
    6    25	 1
    6    10	 1
    6    23	 1
    6    54	 1
    7    27	 1
    7    26	 1
    7    30	 1
    7    31	 1
    7    32	 1
    7    33	 1
    7    34	 1
    7    10	 1
    7    23	 1
    7    54	 1
    7    36	 1
    7    37	 1
    8    24	 1
    8    55	 1
    8    56	 1
    8    11	 1
    8    38	 1
    9    25	 1
    9    12	 1
    9    20	 1
    9    39	 1
    9    23	 1
    9    54	 1
   10    35	 1
   10    13	 1
   10    40	 1
   10    41	 1
   10    14	 1
   10    21	 1
   10    22	 1
   10    52	 1
   10    53	 1
   11    36	 1
   11    37	 1
   11    23	 1
   11    54	 1
   11    42	 1
   11    15	 1
   11    47	 1
   11    48	 1
   11    49	 1
   11    50	 1
   11    51	 1
   12    24	 1
   12    38	 1
   12    21	 1
   12    22	 1
   12    15	 1
   13    39	 1
   13    16	 1
   13    19	 1
   13    21	 1
   13    22	 1
   14    39	 1
   14    40	 1
   14    41	 1
   14    17	 1
   14    43	 1
   14    46	 1
   14    47	 1
   14    48	 1
   14    49	 1
   14    23	 1
   14    50	 1
   14    51	 1
   15    18	 1
   15    42	 1
   15    21	 1
   15    22	 1
   15    44	 1
   16    20	 1
   16    46	 1
   16    45	 1
   17    19	 1
   18    46	 1
   18    43	 1
   19    45	 1
   19    20	 1
   19    43	 1
   20    24	 1
   20    38	 1
   20    40	 1
   20    41	 1
   20    42	 1
   20    52	 1
   20    53	 1
   21    39	 1
   21    23	 1
   21    50	 1
   21    51	 1
   22    39	 1
   22    47	 1
   22    48	 1
   22    49	 1
   22    54	 1
   23    38	 1
   24    30	 1
   24    31	 1
   24    32	 1
   24    33	 1
   24    34	 1
   24    25	 1
   24    36	 1
   24    37	 1
   24    39	 1
   24    50	 1
   24    51	 1
   25    28	 1
   25    29	 1
   25    65	 1
   25    35	 1
   26    28	 1
   26    29	 1
   26    55	 1
   26    56	 1
   26    86	 1
   26    87	 1
   26    88	 1
   26    89	 1
   26    90	 1
   26    91	 1
   26    64	 1
   27    28	 1
   27    29	 1
   27    55	 1
   27    56	 1
   27    65	 1
   28    30	 1
   28    31	 1
   29    30	 1
   29    31	 1
   35    36	 1
   35    37	 1
   36    38	 1
   37    38	 1
   38    39	 1
   38    54	 1
   39    40	 1
   39    41	 1
   40    42	 1
   41    42	 1
   43    44	 1
   44    45	 1
   50    52	 1
   50    53	 1
   51    52	 1
   51    53	 1
   52    54	 1
   53    54	 1
   57    60	 1
   57    74	 1
   57    75	 1
   58    61	 1
   58    76	 1
   58    77	 1
   59    69	 1
   59    70	 1
   59    71	 1
   59    62	 1
   59    78	 1
   59    79	 1
   60    72	 1
   60    73	 1
   60    63	 1
   60    80	 1
   60    81	 1
   61    74	 1
   61    75	 1
   61    64	 1
   61    82	 1
   61    83	 1
   62    76	 1
   62    77	 1
   62    68	 1
   62    84	 1
   62    85	 1
   63    78	 1
   63    79	 1
   63    65	 1
   64    80	 1
   64    81	 1
   64    66	 1
   64    67	 1
   65    84	 1
   65    85	 1
   66    89	 1
   66    90	 1
   66    91	 1
   67    86	 1
   67    87	 1
   67    88	 1
   68    82	 1
   68    83	 1
   68    86	 1
   68    87	 1
   68    88	 1
   68    89	 1
   68    90	 1
   68    91	 1
   69    72	 1
   69    73	 1
   70    72	 1
   70    73	 1
   71    72	 1
   71    73	 1
   72    74	 1
   72    75	 1
   73    74	 1
   73    75	 1
   74    76	 1
   74    77	 1
   75    76	 1
   75    77	 1
   76    78	 1
   76    79	 1
   77    78	 1
   77    79	 1
   78    80	 1
   78    81	 1
   79    80	 1
   79    81	 1
   80    82	 1
   80    83	 1
   81    82	 1
   81    83	 1
   82    84	 1
   82    85	 1
   83    84	 1
   83    85	 1

[ angles ]
;	ai	  aj	ak funct			c0			  c1			c2			  c3
   19     1    18	5 ;     CG2R61     NG2R60     CG2R61
    3     2    25	5 ;      CG321      CG311      CG321
    3     2    27	5 ;      CG321      CG311       HGA1
    3     2    26	5 ;      CG321      CG311      OG301
   25     2    27	5 ;      CG321      CG311       HGA1
   25     2    26	5 ;      CG321      CG311      OG301
   27     2    26	5 ;       HGA1      CG311      OG301
    2     3     4	5 ;      CG311      CG321      CG321
    2     3    28	5 ;      CG311      CG321       HGA2
    2     3    29	5 ;      CG311      CG321       HGA2
    4     3    28	5 ;      CG321      CG321       HGA2
    4     3    29	5 ;      CG321      CG321       HGA2
   28     3    29	5 ;       HGA2      CG321       HGA2
    3     4     5	5 ;      CG321      CG321      CG301
    3     4    30	5 ;      CG321      CG321       HGA2
    3     4    31	5 ;      CG321      CG321       HGA2
    5     4    30	5 ;      CG301      CG321       HGA2
    5     4    31	5 ;      CG301      CG321       HGA2
   30     4    31	5 ;       HGA2      CG321       HGA2
    4     5     6	5 ;      CG321      CG301      CG331
    4     5     7	5 ;      CG321      CG301      CG2D1
    4     5    24	5 ;      CG321      CG301      CG311
    6     5     7	5 ;      CG331      CG301      CG2D1
    6     5    24	5 ;      CG331      CG301      CG311
    7     5    24	5 ;      CG2D1      CG301      CG311
    5     6    32	5 ;      CG301      CG331       HGA3
    5     6    33	5 ;      CG301      CG331       HGA3
    5     6    34	5 ;      CG301      CG331       HGA3
   32     6    33	5 ;       HGA3      CG331       HGA3
   32     6    34	5 ;       HGA3      CG331       HGA3
   33     6    34	5 ;       HGA3      CG331       HGA3
    5     7     8	5 ;      CG301      CG2D1      CG2D1
    5     7    25	5 ;      CG301      CG2D1      CG321
    8     7    25	5 ;      CG2D1      CG2D1      CG321
    7     8     9	5 ;      CG2D1      CG2D1      CG321
    7     8    35	5 ;      CG2D1      CG2D1       HGA4
    9     8    35	5 ;      CG321      CG2D1       HGA4
    8     9    10	5 ;      CG2D1      CG321      CG311
    8     9    36	5 ;      CG2D1      CG321       HGA2
    8     9    37	5 ;      CG2D1      CG321       HGA2
   10     9    36	5 ;      CG311      CG321       HGA2
   10     9    37	5 ;      CG311      CG321       HGA2
   36     9    37	5 ;       HGA2      CG321       HGA2
    9    10    11	5 ;      CG321      CG311     CG3RC1
    9    10    24	5 ;      CG321      CG311      CG311
    9    10    38	5 ;      CG321      CG311       HGA1
   11    10    24	5 ;     CG3RC1      CG311      CG311
   11    10    38	5 ;     CG3RC1      CG311       HGA1
   24    10    38	5 ;      CG311      CG311       HGA1
   10    11    12	5 ;      CG311     CG3RC1     CG3C52
   10    11    20	5 ;      CG311     CG3RC1     CG3RC1
   10    11    39	5 ;      CG311     CG3RC1       HGA1
   12    11    20	5 ;     CG3C52     CG3RC1     CG3RC1
   12    11    39	5 ;     CG3C52     CG3RC1       HGA1
   20    11    39	5 ;     CG3RC1     CG3RC1       HGA1
   11    12    13	5 ;     CG3RC1     CG3C52     CG2R51
   11    12    40	5 ;     CG3RC1     CG3C52       HGA2
   11    12    41	5 ;     CG3RC1     CG3C52       HGA2
   13    12    40	5 ;     CG2R51     CG3C52       HGA2
   13    12    41	5 ;     CG2R51     CG3C52       HGA2
   40    12    41	5 ;       HGA2     CG3C52       HGA2
   12    13    14	5 ;     CG3C52     CG2R51     CG2R51
   12    13    42	5 ;     CG3C52     CG2R51      HGR51
   14    13    42	5 ;     CG2R51     CG2R51      HGR51
   13    14    15	5 ;     CG2R51     CG2R51     CG2R61
   13    14    20	5 ;     CG2R51     CG2R51     CG3RC1
   15    14    20	5 ;     CG2R61     CG2R51     CG3RC1
   14    15    16	5 ;     CG2R51     CG2R61     CG2R61
   14    15    19	5 ;     CG2R51     CG2R61     CG2R61
   16    15    19	5 ;     CG2R61     CG2R61     CG2R61
   15    16    17	5 ;     CG2R61     CG2R61     CG2R61
   15    16    43	5 ;     CG2R61     CG2R61      HGR61
   17    16    43	5 ;     CG2R61     CG2R61      HGR61
   16    17    18	5 ;     CG2R61     CG2R61     CG2R61
   16    17    44	5 ;     CG2R61     CG2R61      HGR61
   18    17    44	5 ;     CG2R61     CG2R61      HGR61
   17    18     1	5 ;     CG2R61     CG2R61     NG2R60
   17    18    45	5 ;     CG2R61     CG2R61      HGR62
    1    18    45	5 ;     NG2R60     CG2R61      HGR62
    1    19    15	5 ;     NG2R60     CG2R61     CG2R61
    1    19    46	5 ;     NG2R60     CG2R61      HGR62
   15    19    46	5 ;     CG2R61     CG2R61      HGR62
   11    20    14	5 ;     CG3RC1     CG3RC1     CG2R51
   11    20    21	5 ;     CG3RC1     CG3RC1      CG331
   11    20    22	5 ;     CG3RC1     CG3RC1      CG321
   14    20    21	5 ;     CG2R51     CG3RC1      CG331
   14    20    22	5 ;     CG2R51     CG3RC1      CG321
   21    20    22	5 ;      CG331     CG3RC1      CG321
   20    21    47	5 ;     CG3RC1      CG331       HGA3
   20    21    48	5 ;     CG3RC1      CG331       HGA3
   20    21    49	5 ;     CG3RC1      CG331       HGA3
   47    21    48	5 ;       HGA3      CG331       HGA3
   47    21    49	5 ;       HGA3      CG331       HGA3
   48    21    49	5 ;       HGA3      CG331       HGA3
   20    22    23	5 ;     CG3RC1      CG321      CG321
   20    22    50	5 ;     CG3RC1      CG321       HGA2
   20    22    51	5 ;     CG3RC1      CG321       HGA2
   23    22    50	5 ;      CG321      CG321       HGA2
   23    22    51	5 ;      CG321      CG321       HGA2
   50    22    51	5 ;       HGA2      CG321       HGA2
   22    23    24	5 ;      CG321      CG321      CG311
   22    23    52	5 ;      CG321      CG321       HGA2
   22    23    53	5 ;      CG321      CG321       HGA2
   24    23    52	5 ;      CG311      CG321       HGA2
   24    23    53	5 ;      CG311      CG321       HGA2
   52    23    53	5 ;       HGA2      CG321       HGA2
    5    24    10	5 ;      CG301      CG311      CG311
    5    24    23	5 ;      CG301      CG311      CG321
    5    24    54	5 ;      CG301      CG311       HGA1
   10    24    23	5 ;      CG311      CG311      CG321
   10    24    54	5 ;      CG311      CG311       HGA1
   23    24    54	5 ;      CG321      CG311       HGA1
    2    25     7	5 ;      CG311      CG321      CG2D1
    2    25    55	5 ;      CG311      CG321       HGA2
    2    25    56	5 ;      CG311      CG321       HGA2
    7    25    55	5 ;      CG2D1      CG321       HGA2
    7    25    56	5 ;      CG2D1      CG321       HGA2
   55    25    56	5 ;       HGA2      CG321       HGA2
    2    26    65	5 ;      CG311      OG301      CG301
   58    57    69	5 ;      CG321      CG331       HGA3
   58    57    70	5 ;      CG321      CG331       HGA3
   58    57    71	5 ;      CG321      CG331       HGA3
   69    57    70	5 ;       HGA3      CG331       HGA3
   69    57    71	5 ;       HGA3      CG331       HGA3
   70    57    71	5 ;       HGA3      CG331       HGA3
   57    58    59	5 ;      CG331      CG321      CG321
   57    58    72	5 ;      CG331      CG321       HGA2
   57    58    73	5 ;      CG331      CG321       HGA2
   59    58    72	5 ;      CG321      CG321       HGA2
   59    58    73	5 ;      CG321      CG321       HGA2
   72    58    73	5 ;       HGA2      CG321       HGA2
   58    59    60	5 ;      CG321      CG321      CG321
   58    59    74	5 ;      CG321      CG321       HGA2
   58    59    75	5 ;      CG321      CG321       HGA2
   60    59    74	5 ;      CG321      CG321       HGA2
   60    59    75	5 ;      CG321      CG321       HGA2
   74    59    75	5 ;       HGA2      CG321       HGA2
   59    60    61	5 ;      CG321      CG321      CG321
   59    60    76	5 ;      CG321      CG321       HGA2
   59    60    77	5 ;      CG321      CG321       HGA2
   61    60    76	5 ;      CG321      CG321       HGA2
   61    60    77	5 ;      CG321      CG321       HGA2
   76    60    77	5 ;       HGA2      CG321       HGA2
   60    61    62	5 ;      CG321      CG321      CG321
   60    61    78	5 ;      CG321      CG321       HGA2
   60    61    79	5 ;      CG321      CG321       HGA2
   62    61    78	5 ;      CG321      CG321       HGA2
   62    61    79	5 ;      CG321      CG321       HGA2
   78    61    79	5 ;       HGA2      CG321       HGA2
   61    62    63	5 ;      CG321      CG321      CG321
   61    62    80	5 ;      CG321      CG321       HGA2
   61    62    81	5 ;      CG321      CG321       HGA2
   63    62    80	5 ;      CG321      CG321       HGA2
   63    62    81	5 ;      CG321      CG321       HGA2
   80    62    81	5 ;       HGA2      CG321       HGA2
   62    63    64	5 ;      CG321      CG321      CG321
   62    63    82	5 ;      CG321      CG321       HGA2
   62    63    83	5 ;      CG321      CG321       HGA2
   64    63    82	5 ;      CG321      CG321       HGA2
   64    63    83	5 ;      CG321      CG321       HGA2
   82    63    83	5 ;       HGA2      CG321       HGA2
   63    64    68	5 ;      CG321      CG321      OG301
   63    64    84	5 ;      CG321      CG321       HGA2
   63    64    85	5 ;      CG321      CG321       HGA2
   68    64    84	5 ;      OG301      CG321       HGA2
   68    64    85	5 ;      OG301      CG321       HGA2
   84    64    85	5 ;       HGA2      CG321       HGA2
   26    65    66	5 ;      OG301      CG301      CG331
   26    65    67	5 ;      OG301      CG301      CG331
   26    65    68	5 ;      OG301      CG301      OG301
   66    65    67	5 ;      CG331      CG301      CG331
   66    65    68	5 ;      CG331      CG301      OG301
   67    65    68	5 ;      CG331      CG301      OG301
   65    66    86	5 ;      CG301      CG331       HGA3
   65    66    87	5 ;      CG301      CG331       HGA3
   65    66    88	5 ;      CG301      CG331       HGA3
   86    66    87	5 ;       HGA3      CG331       HGA3
   86    66    88	5 ;       HGA3      CG331       HGA3
   87    66    88	5 ;       HGA3      CG331       HGA3
   65    67    89	5 ;      CG301      CG331       HGA3
   65    67    90	5 ;      CG301      CG331       HGA3
   65    67    91	5 ;      CG301      CG331       HGA3
   89    67    90	5 ;       HGA3      CG331       HGA3
   89    67    91	5 ;       HGA3      CG331       HGA3
   90    67    91	5 ;       HGA3      CG331       HGA3
   64    68    65	5 ;      CG321      OG301      CG301

[ dihedrals ]
;	ai	  aj	ak	  al funct			  c0			c1			  c2			c3			  c4			c5
   18     1    19    15	 9 ;     CG2R61     NG2R60     CG2R61     CG2R61
   18     1    19    46	 9 ;     CG2R61     NG2R60     CG2R61      HGR62
   19     1    18    17	 9 ;     CG2R61     NG2R60     CG2R61     CG2R61
   19     1    18    45	 9 ;     CG2R61     NG2R60     CG2R61      HGR62
   25     2     3     4	 9 ;      CG321      CG311      CG321      CG321
   25     2     3    28	 9 ;      CG321      CG311      CG321       HGA2
   25     2     3    29	 9 ;      CG321      CG311      CG321       HGA2
   27     2     3     4	 9 ;       HGA1      CG311      CG321      CG321
   27     2     3    28	 9 ;       HGA1      CG311      CG321       HGA2
   27     2     3    29	 9 ;       HGA1      CG311      CG321       HGA2
   26     2     3     4	 9 ;      OG301      CG311      CG321      CG321
   26     2     3    28	 9 ;      OG301      CG311      CG321       HGA2
   26     2     3    29	 9 ;      OG301      CG311      CG321       HGA2
    3     2    25     7	 9 ;      CG321      CG311      CG321      CG2D1
    3     2    25    55	 9 ;      CG321      CG311      CG321       HGA2
    3     2    25    56	 9 ;      CG321      CG311      CG321       HGA2
   27     2    25     7	 9 ;       HGA1      CG311      CG321      CG2D1
   27     2    25    55	 9 ;       HGA1      CG311      CG321       HGA2
   27     2    25    56	 9 ;       HGA1      CG311      CG321       HGA2
   26     2    25     7	 9 ;      OG301      CG311      CG321      CG2D1
   26     2    25    55	 9 ;      OG301      CG311      CG321       HGA2
   26     2    25    56	 9 ;      OG301      CG311      CG321       HGA2
    3     2    26    65	 9 ;      CG321      CG311      OG301      CG301
   25     2    26    65	 9 ;      CG321      CG311      OG301      CG301
   27     2    26    65	 9 ;       HGA1      CG311      OG301      CG301
    2     3     4     5	 9 ;      CG311      CG321      CG321      CG301
    2     3     4    30	 9 ;      CG311      CG321      CG321       HGA2
    2     3     4    31	 9 ;      CG311      CG321      CG321       HGA2
   28     3     4     5	 9 ;       HGA2      CG321      CG321      CG301
   28     3     4    30	 9 ;       HGA2      CG321      CG321       HGA2
   28     3     4    31	 9 ;       HGA2      CG321      CG321       HGA2
   29     3     4     5	 9 ;       HGA2      CG321      CG321      CG301
   29     3     4    30	 9 ;       HGA2      CG321      CG321       HGA2
   29     3     4    31	 9 ;       HGA2      CG321      CG321       HGA2
    3     4     5     6	 9 ;      CG321      CG321      CG301      CG331
    3     4     5     7	 9 ;      CG321      CG321      CG301      CG2D1
    3     4     5    24	 9 ;      CG321      CG321      CG301      CG311
   30     4     5     6	 9 ;       HGA2      CG321      CG301      CG331
   30     4     5     7	 9 ;       HGA2      CG321      CG301      CG2D1
   30     4     5    24	 9 ;       HGA2      CG321      CG301      CG311
   31     4     5     6	 9 ;       HGA2      CG321      CG301      CG331
   31     4     5     7	 9 ;       HGA2      CG321      CG301      CG2D1
   31     4     5    24	 9 ;       HGA2      CG321      CG301      CG311
    4     5     6    32	 9 ;      CG321      CG301      CG331       HGA3
    4     5     6    33	 9 ;      CG321      CG301      CG331       HGA3
    4     5     6    34	 9 ;      CG321      CG301      CG331       HGA3
    7     5     6    32	 9 ;      CG2D1      CG301      CG331       HGA3
    7     5     6    33	 9 ;      CG2D1      CG301      CG331       HGA3
    7     5     6    34	 9 ;      CG2D1      CG301      CG331       HGA3
   24     5     6    32	 9 ;      CG311      CG301      CG331       HGA3
   24     5     6    33	 9 ;      CG311      CG301      CG331       HGA3
   24     5     6    34	 9 ;      CG311      CG301      CG331       HGA3
    4     5     7     8	 9 ;      CG321      CG301      CG2D1      CG2D1
    4     5     7    25	 9 ;      CG321      CG301      CG2D1      CG321
    6     5     7     8	 9 ;      CG331      CG301      CG2D1      CG2D1
    6     5     7    25	 9 ;      CG331      CG301      CG2D1      CG321
   24     5     7     8	 9 ;      CG311      CG301      CG2D1      CG2D1
   24     5     7    25	 9 ;      CG311      CG301      CG2D1      CG321
    4     5    24    10	 9 ;      CG321      CG301      CG311      CG311
    4     5    24    23	 9 ;      CG321      CG301      CG311      CG321
    4     5    24    54	 9 ;      CG321      CG301      CG311       HGA1
    6     5    24    10	 9 ;      CG331      CG301      CG311      CG311
    6     5    24    23	 9 ;      CG331      CG301      CG311      CG321
    6     5    24    54	 9 ;      CG331      CG301      CG311       HGA1
    7     5    24    10	 9 ;      CG2D1      CG301      CG311      CG311
    7     5    24    23	 9 ;      CG2D1      CG301      CG311      CG321
    7     5    24    54	 9 ;      CG2D1      CG301      CG311       HGA1
    5     7     8     9	 9 ;      CG301      CG2D1      CG2D1      CG321
    5     7     8    35	 9 ;      CG301      CG2D1      CG2D1       HGA4
   25     7     8     9	 9 ;      CG321      CG2D1      CG2D1      CG321
   25     7     8    35	 9 ;      CG321      CG2D1      CG2D1       HGA4
    5     7    25     2	 9 ;      CG301      CG2D1      CG321      CG311
    5     7    25    55	 9 ;      CG301      CG2D1      CG321       HGA2
    5     7    25    56	 9 ;      CG301      CG2D1      CG321       HGA2
    8     7    25     2	 9 ;      CG2D1      CG2D1      CG321      CG311
    8     7    25    55	 9 ;      CG2D1      CG2D1      CG321       HGA2
    8     7    25    56	 9 ;      CG2D1      CG2D1      CG321       HGA2
    7     8     9    10	 9 ;      CG2D1      CG2D1      CG321      CG311
    7     8     9    36	 9 ;      CG2D1      CG2D1      CG321       HGA2
    7     8     9    37	 9 ;      CG2D1      CG2D1      CG321       HGA2
   35     8     9    10	 9 ;       HGA4      CG2D1      CG321      CG311
   35     8     9    36	 9 ;       HGA4      CG2D1      CG321       HGA2
   35     8     9    37	 9 ;       HGA4      CG2D1      CG321       HGA2
    8     9    10    11	 9 ;      CG2D1      CG321      CG311     CG3RC1
    8     9    10    24	 9 ;      CG2D1      CG321      CG311      CG311
    8     9    10    38	 9 ;      CG2D1      CG321      CG311       HGA1
   36     9    10    11	 9 ;       HGA2      CG321      CG311     CG3RC1
   36     9    10    24	 9 ;       HGA2      CG321      CG311      CG311
   36     9    10    38	 9 ;       HGA2      CG321      CG311       HGA1
   37     9    10    11	 9 ;       HGA2      CG321      CG311     CG3RC1
   37     9    10    24	 9 ;       HGA2      CG321      CG311      CG311
   37     9    10    38	 9 ;       HGA2      CG321      CG311       HGA1
    9    10    11    12	 9 ;      CG321      CG311     CG3RC1     CG3C52
    9    10    11    20	 9 ;      CG321      CG311     CG3RC1     CG3RC1
    9    10    11    39	 9 ;      CG321      CG311     CG3RC1       HGA1
   24    10    11    12	 9 ;      CG311      CG311     CG3RC1     CG3C52
   24    10    11    20	 9 ;      CG311      CG311     CG3RC1     CG3RC1
   24    10    11    39	 9 ;      CG311      CG311     CG3RC1       HGA1
   38    10    11    12	 9 ;       HGA1      CG311     CG3RC1     CG3C52
   38    10    11    20	 9 ;       HGA1      CG311     CG3RC1     CG3RC1
   38    10    11    39	 9 ;       HGA1      CG311     CG3RC1       HGA1
    9    10    24     5	 9 ;      CG321      CG311      CG311      CG301
    9    10    24    23	 9 ;      CG321      CG311      CG311      CG321
    9    10    24    54	 9 ;      CG321      CG311      CG311       HGA1
   11    10    24     5	 9 ;     CG3RC1      CG311      CG311      CG301
   11    10    24    23	 9 ;     CG3RC1      CG311      CG311      CG321
   11    10    24    54	 9 ;     CG3RC1      CG311      CG311       HGA1
   38    10    24     5	 9 ;       HGA1      CG311      CG311      CG301
   38    10    24    23	 9 ;       HGA1      CG311      CG311      CG321
   38    10    24    54	 9 ;       HGA1      CG311      CG311       HGA1
   10    11    12    13	 9 ;      CG311     CG3RC1     CG3C52     CG2R51
   10    11    12    40	 9 ;      CG311     CG3RC1     CG3C52       HGA2
   10    11    12    41	 9 ;      CG311     CG3RC1     CG3C52       HGA2
   20    11    12    13	 9 ;     CG3RC1     CG3RC1     CG3C52     CG2R51
   20    11    12    40	 9 ;     CG3RC1     CG3RC1     CG3C52       HGA2
   20    11    12    41	 9 ;     CG3RC1     CG3RC1     CG3C52       HGA2
   39    11    12    13	 9 ;       HGA1     CG3RC1     CG3C52     CG2R51
   39    11    12    40	 9 ;       HGA1     CG3RC1     CG3C52       HGA2
   39    11    12    41	 9 ;       HGA1     CG3RC1     CG3C52       HGA2
   10    11    20    14	 9 ;      CG311     CG3RC1     CG3RC1     CG2R51
   10    11    20    21	 9 ;      CG311     CG3RC1     CG3RC1      CG331
   10    11    20    22	 9 ;      CG311     CG3RC1     CG3RC1      CG321
   12    11    20    14	 9 ;     CG3C52     CG3RC1     CG3RC1     CG2R51
   12    11    20    21	 9 ;     CG3C52     CG3RC1     CG3RC1      CG331
   12    11    20    22	 9 ;     CG3C52     CG3RC1     CG3RC1      CG321
   39    11    20    14	 9 ;       HGA1     CG3RC1     CG3RC1     CG2R51
   39    11    20    21	 9 ;       HGA1     CG3RC1     CG3RC1      CG331
   39    11    20    22	 9 ;       HGA1     CG3RC1     CG3RC1      CG321
   11    12    13    14	 9 ;     CG3RC1     CG3C52     CG2R51     CG2R51
   11    12    13    42	 9 ;     CG3RC1     CG3C52     CG2R51      HGR51
   40    12    13    14	 9 ;       HGA2     CG3C52     CG2R51     CG2R51
   40    12    13    42	 9 ;       HGA2     CG3C52     CG2R51      HGR51
   41    12    13    14	 9 ;       HGA2     CG3C52     CG2R51     CG2R51
   41    12    13    42	 9 ;       HGA2     CG3C52     CG2R51      HGR51
   12    13    14    15	 9 ;     CG3C52     CG2R51     CG2R51     CG2R61
   12    13    14    20	 9 ;     CG3C52     CG2R51     CG2R51     CG3RC1
   42    13    14    15	 9 ;      HGR51     CG2R51     CG2R51     CG2R61
   42    13    14    20	 9 ;      HGR51     CG2R51     CG2R51     CG3RC1
   13    14    15    16	 9 ;     CG2R51     CG2R51     CG2R61     CG2R61
   13    14    15    19	 9 ;     CG2R51     CG2R51     CG2R61     CG2R61
   20    14    15    16	 9 ;     CG3RC1     CG2R51     CG2R61     CG2R61
   20    14    15    19	 9 ;     CG3RC1     CG2R51     CG2R61     CG2R61
   13    14    20    11	 9 ;     CG2R51     CG2R51     CG3RC1     CG3RC1
   13    14    20    21	 9 ;     CG2R51     CG2R51     CG3RC1      CG331
   13    14    20    22	 9 ;     CG2R51     CG2R51     CG3RC1      CG321
   15    14    20    11	 9 ;     CG2R61     CG2R51     CG3RC1     CG3RC1
   15    14    20    21	 9 ;     CG2R61     CG2R51     CG3RC1      CG331
   15    14    20    22	 9 ;     CG2R61     CG2R51     CG3RC1      CG321
   14    15    16    17	 9 ;     CG2R51     CG2R61     CG2R61     CG2R61
   14    15    16    43	 9 ;     CG2R51     CG2R61     CG2R61      HGR61
   19    15    16    17	 9 ;     CG2R61     CG2R61     CG2R61     CG2R61
   19    15    16    43	 9 ;     CG2R61     CG2R61     CG2R61      HGR61
   14    15    19     1	 9 ;     CG2R51     CG2R61     CG2R61     NG2R60
   14    15    19    46	 9 ;     CG2R51     CG2R61     CG2R61      HGR62
   16    15    19     1	 9 ;     CG2R61     CG2R61     CG2R61     NG2R60
   16    15    19    46	 9 ;     CG2R61     CG2R61     CG2R61      HGR62
   15    16    17    18	 9 ;     CG2R61     CG2R61     CG2R61     CG2R61
   15    16    17    44	 9 ;     CG2R61     CG2R61     CG2R61      HGR61
   43    16    17    18	 9 ;      HGR61     CG2R61     CG2R61     CG2R61
   43    16    17    44	 9 ;      HGR61     CG2R61     CG2R61      HGR61
   16    17    18     1	 9 ;     CG2R61     CG2R61     CG2R61     NG2R60
   16    17    18    45	 9 ;     CG2R61     CG2R61     CG2R61      HGR62
   44    17    18     1	 9 ;      HGR61     CG2R61     CG2R61     NG2R60
   44    17    18    45	 9 ;      HGR61     CG2R61     CG2R61      HGR62
   11    20    21    47	 9 ;     CG3RC1     CG3RC1      CG331       HGA3
   11    20    21    48	 9 ;     CG3RC1     CG3RC1      CG331       HGA3
   11    20    21    49	 9 ;     CG3RC1     CG3RC1      CG331       HGA3
   14    20    21    47	 9 ;     CG2R51     CG3RC1      CG331       HGA3
   14    20    21    48	 9 ;     CG2R51     CG3RC1      CG331       HGA3
   14    20    21    49	 9 ;     CG2R51     CG3RC1      CG331       HGA3
   22    20    21    47	 9 ;      CG321     CG3RC1      CG331       HGA3
   22    20    21    48	 9 ;      CG321     CG3RC1      CG331       HGA3
   22    20    21    49	 9 ;      CG321     CG3RC1      CG331       HGA3
   11    20    22    23	 9 ;     CG3RC1     CG3RC1      CG321      CG321
   11    20    22    50	 9 ;     CG3RC1     CG3RC1      CG321       HGA2
   11    20    22    51	 9 ;     CG3RC1     CG3RC1      CG321       HGA2
   14    20    22    23	 9 ;     CG2R51     CG3RC1      CG321      CG321
   14    20    22    50	 9 ;     CG2R51     CG3RC1      CG321       HGA2
   14    20    22    51	 9 ;     CG2R51     CG3RC1      CG321       HGA2
   21    20    22    23	 9 ;      CG331     CG3RC1      CG321      CG321
   21    20    22    50	 9 ;      CG331     CG3RC1      CG321       HGA2
   21    20    22    51	 9 ;      CG331     CG3RC1      CG321       HGA2
   20    22    23    24	 9 ;     CG3RC1      CG321      CG321      CG311
   20    22    23    52	 9 ;     CG3RC1      CG321      CG321       HGA2
   20    22    23    53	 9 ;     CG3RC1      CG321      CG321       HGA2
   50    22    23    24	 9 ;       HGA2      CG321      CG321      CG311
   50    22    23    52	 9 ;       HGA2      CG321      CG321       HGA2
   50    22    23    53	 9 ;       HGA2      CG321      CG321       HGA2
   51    22    23    24	 9 ;       HGA2      CG321      CG321      CG311
   51    22    23    52	 9 ;       HGA2      CG321      CG321       HGA2
   51    22    23    53	 9 ;       HGA2      CG321      CG321       HGA2
   22    23    24     5	 9 ;      CG321      CG321      CG311      CG301
   22    23    24    10	 9 ;      CG321      CG321      CG311      CG311
   22    23    24    54	 9 ;      CG321      CG321      CG311       HGA1
   52    23    24     5	 9 ;       HGA2      CG321      CG311      CG301
   52    23    24    10	 9 ;       HGA2      CG321      CG311      CG311
   52    23    24    54	 9 ;       HGA2      CG321      CG311       HGA1
   53    23    24     5	 9 ;       HGA2      CG321      CG311      CG301
   53    23    24    10	 9 ;       HGA2      CG321      CG311      CG311
   53    23    24    54	 9 ;       HGA2      CG321      CG311       HGA1
    2    26    65    66	 9 ;      CG311      OG301      CG301      CG331
    2    26    65    67	 9 ;      CG311      OG301      CG301      CG331
    2    26    65    68	 9 ;      CG311      OG301      CG301      OG301
   69    57    58    59	 9 ;       HGA3      CG331      CG321      CG321
   69    57    58    72	 9 ;       HGA3      CG331      CG321       HGA2
   69    57    58    73	 9 ;       HGA3      CG331      CG321       HGA2
   70    57    58    59	 9 ;       HGA3      CG331      CG321      CG321
   70    57    58    72	 9 ;       HGA3      CG331      CG321       HGA2
   70    57    58    73	 9 ;       HGA3      CG331      CG321       HGA2
   71    57    58    59	 9 ;       HGA3      CG331      CG321      CG321
   71    57    58    72	 9 ;       HGA3      CG331      CG321       HGA2
   71    57    58    73	 9 ;       HGA3      CG331      CG321       HGA2
   57    58    59    60	 9 ;      CG331      CG321      CG321      CG321
   57    58    59    74	 9 ;      CG331      CG321      CG321       HGA2
   57    58    59    75	 9 ;      CG331      CG321      CG321       HGA2
   72    58    59    60	 9 ;       HGA2      CG321      CG321      CG321
   72    58    59    74	 9 ;       HGA2      CG321      CG321       HGA2
   72    58    59    75	 9 ;       HGA2      CG321      CG321       HGA2
   73    58    59    60	 9 ;       HGA2      CG321      CG321      CG321
   73    58    59    74	 9 ;       HGA2      CG321      CG321       HGA2
   73    58    59    75	 9 ;       HGA2      CG321      CG321       HGA2
   58    59    60    61	 9 ;      CG321      CG321      CG321      CG321
   58    59    60    76	 9 ;      CG321      CG321      CG321       HGA2
   58    59    60    77	 9 ;      CG321      CG321      CG321       HGA2
   74    59    60    61	 9 ;       HGA2      CG321      CG321      CG321
   74    59    60    76	 9 ;       HGA2      CG321      CG321       HGA2
   74    59    60    77	 9 ;       HGA2      CG321      CG321       HGA2
   75    59    60    61	 9 ;       HGA2      CG321      CG321      CG321
   75    59    60    76	 9 ;       HGA2      CG321      CG321       HGA2
   75    59    60    77	 9 ;       HGA2      CG321      CG321       HGA2
   59    60    61    62	 9 ;      CG321      CG321      CG321      CG321
   59    60    61    78	 9 ;      CG321      CG321      CG321       HGA2
   59    60    61    79	 9 ;      CG321      CG321      CG321       HGA2
   76    60    61    62	 9 ;       HGA2      CG321      CG321      CG321
   76    60    61    78	 9 ;       HGA2      CG321      CG321       HGA2
   76    60    61    79	 9 ;       HGA2      CG321      CG321       HGA2
   77    60    61    62	 9 ;       HGA2      CG321      CG321      CG321
   77    60    61    78	 9 ;       HGA2      CG321      CG321       HGA2
   77    60    61    79	 9 ;       HGA2      CG321      CG321       HGA2
   60    61    62    63	 9 ;      CG321      CG321      CG321      CG321
   60    61    62    80	 9 ;      CG321      CG321      CG321       HGA2
   60    61    62    81	 9 ;      CG321      CG321      CG321       HGA2
   78    61    62    63	 9 ;       HGA2      CG321      CG321      CG321
   78    61    62    80	 9 ;       HGA2      CG321      CG321       HGA2
   78    61    62    81	 9 ;       HGA2      CG321      CG321       HGA2
   79    61    62    63	 9 ;       HGA2      CG321      CG321      CG321
   79    61    62    80	 9 ;       HGA2      CG321      CG321       HGA2
   79    61    62    81	 9 ;       HGA2      CG321      CG321       HGA2
   61    62    63    64	 9 ;      CG321      CG321      CG321      CG321
   61    62    63    82	 9 ;      CG321      CG321      CG321       HGA2
   61    62    63    83	 9 ;      CG321      CG321      CG321       HGA2
   80    62    63    64	 9 ;       HGA2      CG321      CG321      CG321
   80    62    63    82	 9 ;       HGA2      CG321      CG321       HGA2
   80    62    63    83	 9 ;       HGA2      CG321      CG321       HGA2
   81    62    63    64	 9 ;       HGA2      CG321      CG321      CG321
   81    62    63    82	 9 ;       HGA2      CG321      CG321       HGA2
   81    62    63    83	 9 ;       HGA2      CG321      CG321       HGA2
   62    63    64    68	 9 ;      CG321      CG321      CG321      OG301
   62    63    64    84	 9 ;      CG321      CG321      CG321       HGA2
   62    63    64    85	 9 ;      CG321      CG321      CG321       HGA2
   82    63    64    68	 9 ;       HGA2      CG321      CG321      OG301
   82    63    64    84	 9 ;       HGA2      CG321      CG321       HGA2
   82    63    64    85	 9 ;       HGA2      CG321      CG321       HGA2
   83    63    64    68	 9 ;       HGA2      CG321      CG321      OG301
   83    63    64    84	 9 ;       HGA2      CG321      CG321       HGA2
   83    63    64    85	 9 ;       HGA2      CG321      CG321       HGA2
   63    64    68    65	 9 ;      CG321      CG321      OG301      CG301
   84    64    68    65	 9 ;       HGA2      CG321      OG301      CG301
   85    64    68    65	 9 ;       HGA2      CG321      OG301      CG301
   26    65    66    86	 9 ;      OG301      CG301      CG331       HGA3
   26    65    66    87	 9 ;      OG301      CG301      CG331       HGA3
   26    65    66    88	 9 ;      OG301      CG301      CG331       HGA3
   67    65    66    86	 9 ;      CG331      CG301      CG331       HGA3
   67    65    66    87	 9 ;      CG331      CG301      CG331       HGA3
   67    65    66    88	 9 ;      CG331      CG301      CG331       HGA3
   68    65    66    86	 9 ;      OG301      CG301      CG331       HGA3
   68    65    66    87	 9 ;      OG301      CG301      CG331       HGA3
   68    65    66    88	 9 ;      OG301      CG301      CG331       HGA3
   26    65    67    89	 9 ;      OG301      CG301      CG331       HGA3
   26    65    67    90	 9 ;      OG301      CG301      CG331       HGA3
   26    65    67    91	 9 ;      OG301      CG301      CG331       HGA3
   66    65    67    89	 9 ;      CG331      CG301      CG331       HGA3
   66    65    67    90	 9 ;      CG331      CG301      CG331       HGA3
   66    65    67    91	 9 ;      CG331      CG301      CG331       HGA3
   68    65    67    89	 9 ;      OG301      CG301      CG331       HGA3
   68    65    67    90	 9 ;      OG301      CG301      CG331       HGA3
   68    65    67    91	 9 ;      OG301      CG301      CG331       HGA3
   26    65    68    64	 9 ;      OG301      CG301      OG301      CG321
   66    65    68    64	 9 ;      CG331      CG301      OG301      CG321
   67    65    68    64	 9 ;      CG331      CG301      OG301      CG321

