; Created by cgenff_charmm2gmx.py

[ moleculetype ]
; Name			   nrexcl
DEX				 3

[ atoms ]
;	 nr		  type	resnr residue  atom   cgnr	   charge		mass  typeB    chargeB		massB
; residue	 1 DEX rtp DEX q	qsum
     1      CG2O6      1    DEL     C1      1     -0.019     12.011   ;
     2      CG321      1    DEL     C2      2      0.140     12.011   ;
     3     CG2R61      1    DEL     C3      3      0.013     12.011   ;
     4     CG2R61      1    DEL     C4      4     -0.118     12.011   ;
     5     CG2R61      1    DEL     C5      5     -0.108     12.011   ;
     6     CG2R61      1    DEL     C6      6      0.238     12.011   ;
     7      CG301      1    DEL     C7      7      0.383     12.011   ;
     8      CG321      1    DEL     C8      8      0.036     12.011   ;
     9      CG321      1    DEL     C9      9     -0.009     12.011   ;
    10      CG321      1    DEL    C10     10     -0.009     12.011   ;
    11      CG321      1    DEL    C11     11     -0.180     12.011   ;
    12      CG321      1    DEL    C12     12     -0.180     12.011   ;
    13      CG321      1    DEL    C13     13     -0.180     12.011   ;
    14      CG321      1    DEL    C14     14     -0.180     12.011   ;
    15      CG321      1    DEL    C15     15     -0.180     12.011   ;
    16      CG321      1    DEL    C16     16     -0.180     12.011   ;
    17      CG321      1    DEL    C17     17     -0.180     12.011   ;
    18      CG321      1    DEL    C18     18     -0.180     12.011   ;
    19      CG321      1    DEL    C19     19     -0.180     12.011   ;
    20      CG321      1    DEL    C20     20     -0.180     12.011   ;
    21      CG321      1    DEL    C21     21     -0.180     12.011   ;
    22      CG321      1    DEL    C22     22     -0.180     12.011   ;
    23      CG321      1    DEL    C23     23     -0.180     12.011   ;
    24      CG321      1    DEL    C24     24     -0.179     12.011   ;
    25      CG321      1    DEL    C25     25     -0.181     12.011   ;
    26      CG321      1    DEL    C26     26     -0.177     12.011   ;
    27      CG331      1    DEL    C27     27     -0.273     12.011   ;
    28      CG331      1    DEL    C28     28     -0.274     12.011   ;
    29      CG331      1    DEL    C29     29     -0.274     12.011   ;
    30     CG2R61      1    DEL    C30     30     -0.108     12.011   ;
    31     CG2R61      1    DEL    C31     31     -0.118     12.011   ;
    32      OG2D1      1    DEL     O1     32     -0.395     15.999   ;
    33      OG302      1    DEL     O2     33     -0.134     15.999   ;
    34      OG301      1    DEL     O3     34     -0.426     15.999   ;
    35      OG301      1    DEL     O4     35     -0.403     15.999   ;
    36      OG301      1    DEL     O5     36     -0.342     15.999   ;
    37       HGA2      1    DEL     H1     37      0.090      1.008   ;
    38       HGA2      1    DEL     H2     38      0.090      1.008   ;
    39      HGR61      1    DEL     H3     39      0.115      1.008   ;
    40      HGR61      1    DEL     H4     40      0.115      1.008   ;
    41       HGA2      1    DEL     H5     41      0.090      1.008   ;
    42       HGA2      1    DEL     H6     42      0.090      1.008   ;
    43       HGA2      1    DEL     H7     43      0.090      1.008   ;
    44       HGA2      1    DEL     H8     44      0.090      1.008   ;
    45       HGA2      1    DEL     H9     45      0.090      1.008   ;
    46       HGA2      1    DEL    H10     46      0.090      1.008   ;
    47       HGA2      1    DEL    H11     47      0.090      1.008   ;
    48       HGA2      1    DEL    H12     48      0.090      1.008   ;
    49       HGA2      1    DEL    H13     49      0.090      1.008   ;
    50       HGA2      1    DEL    H14     50      0.090      1.008   ;
    51       HGA2      1    DEL    H15     51      0.090      1.008   ;
    52       HGA2      1    DEL    H16     52      0.090      1.008   ;
    53       HGA2      1    DEL    H17     53      0.090      1.008   ;
    54       HGA2      1    DEL    H18     54      0.090      1.008   ;
    55       HGA2      1    DEL    H19     55      0.090      1.008   ;
    56       HGA2      1    DEL    H20     56      0.090      1.008   ;
    57       HGA2      1    DEL    H21     57      0.090      1.008   ;
    58       HGA2      1    DEL    H22     58      0.090      1.008   ;
    59       HGA2      1    DEL    H23     59      0.090      1.008   ;
    60       HGA2      1    DEL    H24     60      0.090      1.008   ;
    61       HGA2      1    DEL    H25     61      0.090      1.008   ;
    62       HGA2      1    DEL    H26     62      0.090      1.008   ;
    63       HGA2      1    DEL    H27     63      0.090      1.008   ;
    64       HGA2      1    DEL    H28     64      0.090      1.008   ;
    65       HGA2      1    DEL    H29     65      0.090      1.008   ;
    66       HGA2      1    DEL    H30     66      0.090      1.008   ;
    67       HGA2      1    DEL    H31     67      0.090      1.008   ;
    68       HGA2      1    DEL    H32     68      0.090      1.008   ;
    69       HGA2      1    DEL    H33     69      0.090      1.008   ;
    70       HGA2      1    DEL    H34     70      0.090      1.008   ;
    71       HGA2      1    DEL    H35     71      0.090      1.008   ;
    72       HGA2      1    DEL    H36     72      0.090      1.008   ;
    73       HGA2      1    DEL    H37     73      0.090      1.008   ;
    74       HGA2      1    DEL    H38     74      0.090      1.008   ;
    75       HGA2      1    DEL    H39     75      0.090      1.008   ;
    76       HGA2      1    DEL    H40     76      0.090      1.008   ;
    77       HGA2      1    DEL    H41     77      0.090      1.008   ;
    78       HGA2      1    DEL    H42     78      0.090      1.008   ;
    79       HGA3      1    DEL    H43     79      0.090      1.008   ;
    80       HGA3      1    DEL    H44     80      0.090      1.008   ;
    81       HGA3      1    DEL    H45     81      0.090      1.008   ;
    82       HGA3      1    DEL    H46     82      0.090      1.008   ;
    83       HGA3      1    DEL    H47     83      0.090      1.008   ;
    84       HGA3      1    DEL    H48     84      0.090      1.008   ;
    85       HGA3      1    DEL    H49     85      0.090      1.008   ;
    86       HGA3      1    DEL    H50     86      0.090      1.008   ;
    87       HGA3      1    DEL    H51     87      0.090      1.008   ;
    88      HGR61      1    DEL    H52     88      0.115      1.008   ;
    89      HGR61      1    DEL    H53     89      0.115      1.008   ;
    90      CG2O5      1    DEX    C32     90      0.125     12.011   ;
    91     CG2DC1      1    DEX    C33     91     -0.217     12.011   ;
    92     CG2DC1      1    DEX    C34     92      0.311     12.011   ;
    93      CG301      1    DEX    C35     93      0.108     12.011   ;
    94      CG322      1    DEX    C36     94     -0.157     12.011   ;
    95      CG311      1    DEX    C37     95      0.063     12.011   ;
    96      CG321      1    DEX    C38     96     -0.144     12.011   ;
    97      CG321      1    DEX    C39     97     -0.283     12.011   ;
    98     CG3RC1      1    DEX    C40     98     -0.090     12.011   ;
    99     CG3RC1      1    DEX    C41     99      0.074     12.011   ;
   100     CG3C50      1    DEX    C42    100      0.352     12.011   ;
   101     CG3C51      1    DEX    C43    101     -0.138     12.011   ;
   102     CG3C52      1    DEX    C44    102     -0.186     12.011   ;
   103      CG331      1    DEX    C45    103     -0.265     12.011   ;
   104      CG2O5      1    DEX    C46    104      0.194     12.011   ;
   105      CG321      1    DEX    C47    105      0.266     12.011   ;
   106      CG331      1    DEX    C48    106     -0.271     12.011   ;
   107      CG321      1    DEX    C49    107     -0.196     12.011   ;
   108      CG311      1    DEX    C50    108      0.212     12.011   ;
   109      CG331      1    DEX    C51    109     -0.269     12.011   ;
   110     CG2DC1      1    DEX    C52    110      0.029     12.011   ;
   111     CG2DC1      1    DEX    C53    111     -0.202     12.011   ;
   112      OG2D3      1    DEX     O6    112     -0.405     15.999   ;
   113      OG2D3      1    DEX     O7    113     -0.407     15.999   ;
   114      OG302      1    DEX     O8    114     -0.148     15.999   ;
   115      OG311      1    DEX     O9    115     -0.617     15.999   ;
   116      OG311      1    DEX    O10    116     -0.578     15.999   ;
   117       FGA1      1    DEX      F    117     -0.231     18.998   ;
   118       HGA1      1    DEX    H54    118      0.090      1.008   ;
   119       HGA1      1    DEX    H55    119      0.090      1.008   ;
   120       HGA4      1    DEX    H56    120      0.150      1.008   ;
   121       HGA2      1    DEX    H57    121      0.090      1.008   ;
   122       HGA2      1    DEX    H58    122      0.090      1.008   ;
   123       HGA2      1    DEX    H59    123      0.090      1.008   ;
   124       HGA2      1    DEX    H60    124      0.090      1.008   ;
   125       HGA1      1    DEX    H61    125      0.090      1.008   ;
   126       HGA2      1    DEX    H62    126      0.090      1.008   ;
   127       HGA2      1    DEX    H63    127      0.090      1.008   ;
   128       HGA3      1    DEX    H64    128      0.090      1.008   ;
   129       HGA3      1    DEX    H65    129      0.090      1.008   ;
   130       HGA3      1    DEX    H66    130      0.090      1.008   ;
   131       HGA2      1    DEX    H67    131      0.090      1.008   ;
   132       HGA2      1    DEX    H68    132      0.090      1.008   ;
   133       HGP1      1    DEX    H69    133      0.379      1.008   ;
   134       HGA3      1    DEX    H70    134      0.090      1.008   ;
   135       HGA3      1    DEX    H71    135      0.090      1.008   ;
   136       HGA3      1    DEX    H72    136      0.090      1.008   ;
   137       HGA2      1    DEX    H73    137      0.090      1.008   ;
   138       HGA2      1    DEX    H74    138      0.090      1.008   ;
   139       HGA1      1    DEX    H75    139      0.090      1.008   ;
   140       HGP1      1    DEX    H76    140      0.404      1.008   ;
   141       HGA3      1    DEX    H77    141      0.090      1.008   ;
   142       HGA3      1    DEX    H78    142      0.090      1.008   ;
   143       HGA3      1    DEX    H79    143      0.090      1.008   ;
   144       HGA4      1    DEX    H80    144      0.124      1.008   ;
   145       HGA4      1    DEX    H81    145      0.150      1.008   ;

[ bonds ]
;	ai	  aj funct			  c0			c1			  c2			c3
    1    32	 1 ;       CG2O6      OG2D1
    1    33	 1 ;       CG2O6      OG302
    1   114	 1 ;       CG2O6      OG302
    2     3	 1 ;       CG321     CG2R61
    2    37	 1 ;       CG321       HGA2
    2    38	 1 ;       CG321       HGA2
    2    33	 1 ;       CG321      OG302
    3     4	 1 ;      CG2R61     CG2R61
    3    31	 1 ;      CG2R61     CG2R61
    4     5	 1 ;      CG2R61     CG2R61
    4    39	 1 ;      CG2R61      HGR61
    5     6	 1 ;      CG2R61     CG2R61
    5    40	 1 ;      CG2R61      HGR61
    6    30	 1 ;      CG2R61     CG2R61
    6    34	 1 ;      CG2R61      OG301
    7    28	 1 ;       CG301      CG331
    7    29	 1 ;       CG301      CG331
    7    35	 1 ;       CG301      OG301
    7    34	 1 ;       CG301      OG301
    8     9	 1 ;       CG321      CG321
    8    41	 1 ;       CG321       HGA2
    8    42	 1 ;       CG321       HGA2
    8    35	 1 ;       CG321      OG301
    9    36	 1 ;       CG321      OG301
    9    43	 1 ;       CG321       HGA2
    9    44	 1 ;       CG321       HGA2
   10    11	 1 ;       CG321      CG321
   10    45	 1 ;       CG321       HGA2
   10    46	 1 ;       CG321       HGA2
   10    36	 1 ;       CG321      OG301
   11    12	 1 ;       CG321      CG321
   11    47	 1 ;       CG321       HGA2
   11    48	 1 ;       CG321       HGA2
   12    13	 1 ;       CG321      CG321
   12    49	 1 ;       CG321       HGA2
   12    50	 1 ;       CG321       HGA2
   13    14	 1 ;       CG321      CG321
   13    51	 1 ;       CG321       HGA2
   13    52	 1 ;       CG321       HGA2
   14    15	 1 ;       CG321      CG321
   14    53	 1 ;       CG321       HGA2
   14    54	 1 ;       CG321       HGA2
   15    16	 1 ;       CG321      CG321
   15    55	 1 ;       CG321       HGA2
   15    56	 1 ;       CG321       HGA2
   16    17	 1 ;       CG321      CG321
   16    57	 1 ;       CG321       HGA2
   16    58	 1 ;       CG321       HGA2
   17    18	 1 ;       CG321      CG321
   17    59	 1 ;       CG321       HGA2
   17    60	 1 ;       CG321       HGA2
   18    19	 1 ;       CG321      CG321
   18    61	 1 ;       CG321       HGA2
   18    62	 1 ;       CG321       HGA2
   19    20	 1 ;       CG321      CG321
   19    63	 1 ;       CG321       HGA2
   19    64	 1 ;       CG321       HGA2
   20    21	 1 ;       CG321      CG321
   20    65	 1 ;       CG321       HGA2
   20    66	 1 ;       CG321       HGA2
   21    22	 1 ;       CG321      CG321
   21    67	 1 ;       CG321       HGA2
   21    68	 1 ;       CG321       HGA2
   22    23	 1 ;       CG321      CG321
   22    69	 1 ;       CG321       HGA2
   22    70	 1 ;       CG321       HGA2
   23    24	 1 ;       CG321      CG321
   23    71	 1 ;       CG321       HGA2
   23    72	 1 ;       CG321       HGA2
   24    25	 1 ;       CG321      CG321
   24    73	 1 ;       CG321       HGA2
   24    74	 1 ;       CG321       HGA2
   25    26	 1 ;       CG321      CG321
   25    75	 1 ;       CG321       HGA2
   25    76	 1 ;       CG321       HGA2
   26    27	 1 ;       CG321      CG331
   26    77	 1 ;       CG321       HGA2
   26    78	 1 ;       CG321       HGA2
   27    79	 1 ;       CG331       HGA3
   27    80	 1 ;       CG331       HGA3
   27    81	 1 ;       CG331       HGA3
   28    82	 1 ;       CG331       HGA3
   28    83	 1 ;       CG331       HGA3
   28    84	 1 ;       CG331       HGA3
   29    85	 1 ;       CG331       HGA3
   29    86	 1 ;       CG331       HGA3
   29    87	 1 ;       CG331       HGA3
   30    31	 1 ;      CG2R61     CG2R61
   30    88	 1 ;      CG2R61      HGR61
   31    89	 1 ;      CG2R61      HGR61
   90    91	 1 ;       CG2O5     CG2DC1
   90   111	 1 ;       CG2O5     CG2DC1
   90   112	 1 ;       CG2O5      OG2D3
   91    92	 1 ;      CG2DC1     CG2DC1
   91   120	 1 ;      CG2DC1       HGA4
   92    93	 1 ;      CG2DC1      CG301
   92    97	 1 ;      CG2DC1      CG321
   93    94	 1 ;       CG301      CG322
   93   109	 1 ;       CG301      CG331
   93   110	 1 ;       CG301     CG2DC1
   94    95	 1 ;       CG322      CG311
   94   108	 1 ;       CG322      CG311
   94   117	 1 ;       CG322       FGA1
   95    96	 1 ;       CG311      CG321
   95    98	 1 ;       CG311     CG3RC1
   95   118	 1 ;       CG311       HGA1
   96    97	 1 ;       CG321      CG321
   96   121	 1 ;       CG321       HGA2
   96   122	 1 ;       CG321       HGA2
   97   123	 1 ;       CG321       HGA2
   97   124	 1 ;       CG321       HGA2
   98    99	 1 ;      CG3RC1     CG3RC1
   98   102	 1 ;      CG3RC1     CG3C52
   98   119	 1 ;      CG3RC1       HGA1
   99   100	 1 ;      CG3RC1     CG3C50
   99   106	 1 ;      CG3RC1      CG331
   99   107	 1 ;      CG3RC1      CG321
  100   101	 1 ;      CG3C50     CG3C51
  100   104	 1 ;      CG3C50      CG2O5
  100   115	 1 ;      CG3C50      OG311
  101   102	 1 ;      CG3C51     CG3C52
  101   103	 1 ;      CG3C51      CG331
  101   125	 1 ;      CG3C51       HGA1
  102   126	 1 ;      CG3C52       HGA2
  102   127	 1 ;      CG3C52       HGA2
  103   128	 1 ;       CG331       HGA3
  103   129	 1 ;       CG331       HGA3
  103   130	 1 ;       CG331       HGA3
  104   105	 1 ;       CG2O5      CG321
  104   113	 1 ;       CG2O5      OG2D3
  105   114	 1 ;       CG321      OG302
  105   131	 1 ;       CG321       HGA2
  105   132	 1 ;       CG321       HGA2
  106   134	 1 ;       CG331       HGA3
  106   135	 1 ;       CG331       HGA3
  106   136	 1 ;       CG331       HGA3
  107   108	 1 ;       CG321      CG311
  107   137	 1 ;       CG321       HGA2
  107   138	 1 ;       CG321       HGA2
  108   116	 1 ;       CG311      OG311
  108   139	 1 ;       CG311       HGA1
  109   141	 1 ;       CG331       HGA3
  109   142	 1 ;       CG331       HGA3
  109   143	 1 ;       CG331       HGA3
  110   111	 1 ;      CG2DC1     CG2DC1
  110   144	 1 ;      CG2DC1       HGA4
  111   145	 1 ;      CG2DC1       HGA4
  115   133	 1 ;       OG311       HGP1
  116   140	 1 ;       OG311       HGP1

[ pairs ]
;	ai	  aj funct			  c0			c1			  c2			c3
    1     3	 1
    1    37	 1
    1    38	 1
    1   104	 1
    1   131	 1
    1   132	 1
    2    32	 1
    2   114	 1
    2     5	 1
    2    39	 1
    2    30	 1
    2    89	 1
    3     6	 1
    3    40	 1
    3    88	 1
    4    37	 1
    4    38	 1
    4    33	 1
    4    30	 1
    4    89	 1
    4    34	 1
    5    31	 1
    5    88	 1
    5     7	 1
    6    39	 1
    6    28	 1
    6    29	 1
    6    35	 1
    6    89	 1
    7    30	 1
    7     9	 1
    7    41	 1
    7    42	 1
    8    28	 1
    8    29	 1
    8    34	 1
    8    10	 1
    9    11	 1
    9    45	 1
    9    46	 1
   10    43	 1
   10    44	 1
   10    13	 1
   10    49	 1
   10    50	 1
   11    14	 1
   11    51	 1
   11    52	 1
   12    45	 1
   12    46	 1
   12    36	 1
   12    15	 1
   12    53	 1
   12    54	 1
   13    47	 1
   13    48	 1
   13    16	 1
   13    55	 1
   13    56	 1
   14    49	 1
   14    50	 1
   14    17	 1
   14    57	 1
   14    58	 1
   15    51	 1
   15    52	 1
   15    18	 1
   15    59	 1
   15    60	 1
   16    53	 1
   16    54	 1
   16    19	 1
   16    61	 1
   16    62	 1
   17    55	 1
   17    56	 1
   17    20	 1
   17    63	 1
   17    64	 1
   18    57	 1
   18    58	 1
   18    21	 1
   18    65	 1
   18    66	 1
   19    59	 1
   19    60	 1
   19    22	 1
   19    67	 1
   19    68	 1
   20    61	 1
   20    62	 1
   20    23	 1
   20    69	 1
   20    70	 1
   21    63	 1
   21    64	 1
   21    24	 1
   21    71	 1
   21    72	 1
   22    65	 1
   22    66	 1
   22    25	 1
   22    73	 1
   22    74	 1
   23    67	 1
   23    68	 1
   23    26	 1
   23    75	 1
   23    76	 1
   24    69	 1
   24    70	 1
   24    27	 1
   24    77	 1
   24    78	 1
   25    71	 1
   25    72	 1
   25    79	 1
   25    80	 1
   25    81	 1
   26    73	 1
   26    74	 1
   27    75	 1
   27    76	 1
   28    85	 1
   28    86	 1
   28    87	 1
   29    82	 1
   29    83	 1
   29    84	 1
   30    40	 1
   31    37	 1
   31    38	 1
   31    33	 1
   31    39	 1
   31    34	 1
   32   105	 1
   33   105	 1
   34    40	 1
   34    88	 1
   34    82	 1
   34    83	 1
   34    84	 1
   34    85	 1
   34    86	 1
   34    87	 1
   35    82	 1
   35    83	 1
   35    84	 1
   35    85	 1
   35    86	 1
   35    87	 1
   35    36	 1
   35    43	 1
   35    44	 1
   36    41	 1
   36    42	 1
   36    47	 1
   36    48	 1
   39    40	 1
   41    43	 1
   41    44	 1
   42    43	 1
   42    44	 1
   45    47	 1
   45    48	 1
   46    47	 1
   46    48	 1
   47    49	 1
   47    50	 1
   48    49	 1
   48    50	 1
   49    51	 1
   49    52	 1
   50    51	 1
   50    52	 1
   51    53	 1
   51    54	 1
   52    53	 1
   52    54	 1
   53    55	 1
   53    56	 1
   54    55	 1
   54    56	 1
   55    57	 1
   55    58	 1
   56    57	 1
   56    58	 1
   57    59	 1
   57    60	 1
   58    59	 1
   58    60	 1
   59    61	 1
   59    62	 1
   60    61	 1
   60    62	 1
   61    63	 1
   61    64	 1
   62    63	 1
   62    64	 1
   63    65	 1
   63    66	 1
   64    65	 1
   64    66	 1
   65    67	 1
   65    68	 1
   66    67	 1
   66    68	 1
   67    69	 1
   67    70	 1
   68    69	 1
   68    70	 1
   69    71	 1
   69    72	 1
   70    71	 1
   70    72	 1
   71    73	 1
   71    74	 1
   72    73	 1
   72    74	 1
   73    75	 1
   73    76	 1
   74    75	 1
   74    76	 1
   75    77	 1
   75    78	 1
   76    77	 1
   76    78	 1
   77    79	 1
   77    80	 1
   77    81	 1
   78    79	 1
   78    80	 1
   78    81	 1
   88    89	 1
   90    93	 1
   90    97	 1
   90   144	 1
   91   110	 1
   91   145	 1
   91    94	 1
   91   109	 1
   91    96	 1
   91   123	 1
   91   124	 1
   92   111	 1
   92   112	 1
   92    95	 1
   92   108	 1
   92   117	 1
   92   141	 1
   92   142	 1
   92   143	 1
   92   144	 1
   92   121	 1
   92   122	 1
   93   120	 1
   93    96	 1
   93   123	 1
   93   124	 1
   93    98	 1
   93   118	 1
   93   107	 1
   93   116	 1
   93   139	 1
   93   145	 1
   94    97	 1
   94   141	 1
   94   142	 1
   94   143	 1
   94   111	 1
   94   144	 1
   94   121	 1
   94   122	 1
   94    99	 1
   94   102	 1
   94   119	 1
   94   137	 1
   94   138	 1
   94   140	 1
   95   109	 1
   95   110	 1
   95   107	 1
   95   116	 1
   95   139	 1
   95   123	 1
   95   124	 1
   95   100	 1
   95   106	 1
   95   101	 1
   95   126	 1
   95   127	 1
   96   108	 1
   96   117	 1
   96    99	 1
   96   102	 1
   96   119	 1
   97   120	 1
   97   109	 1
   97   110	 1
   97    98	 1
   97   118	 1
   98   108	 1
   98   117	 1
   98   121	 1
   98   122	 1
   98   104	 1
   98   115	 1
   98   134	 1
   98   135	 1
   98   136	 1
   98   137	 1
   98   138	 1
   98   103	 1
   98   125	 1
   99   118	 1
   99   126	 1
   99   127	 1
   99   103	 1
   99   125	 1
   99   105	 1
   99   113	 1
   99   133	 1
   99   116	 1
   99   139	 1
  100   119	 1
  100   134	 1
  100   135	 1
  100   136	 1
  100   108	 1
  100   137	 1
  100   138	 1
  100   126	 1
  100   127	 1
  100   128	 1
  100   129	 1
  100   130	 1
  100   114	 1
  100   131	 1
  100   132	 1
  101   119	 1
  101   106	 1
  101   107	 1
  101   105	 1
  101   113	 1
  101   133	 1
  102   118	 1
  102   106	 1
  102   107	 1
  102   104	 1
  102   115	 1
  102   128	 1
  102   129	 1
  102   130	 1
  103   104	 1
  103   115	 1
  103   126	 1
  103   127	 1
  104   106	 1
  104   107	 1
  104   125	 1
  104   133	 1
  105   115	 1
  106   119	 1
  106   115	 1
  106   108	 1
  106   137	 1
  106   138	 1
  107   117	 1
  107   119	 1
  107   115	 1
  107   134	 1
  107   135	 1
  107   136	 1
  107   140	 1
  108   109	 1
  108   110	 1
  108   118	 1
  109   117	 1
  109   111	 1
  109   144	 1
  110   112	 1
  110   117	 1
  110   141	 1
  110   142	 1
  110   143	 1
  111   120	 1
  112   120	 1
  112   145	 1
  113   115	 1
  113   114	 1
  113   131	 1
  113   132	 1
  115   125	 1
  116   117	 1
  116   137	 1
  116   138	 1
  117   118	 1
  117   139	 1
  118   121	 1
  118   122	 1
  118   119	 1
  119   126	 1
  119   127	 1
  121   123	 1
  121   124	 1
  122   123	 1
  122   124	 1
  125   126	 1
  125   127	 1
  125   128	 1
  125   129	 1
  125   130	 1
  137   139	 1
  138   139	 1
  139   140	 1
  144   145	 1

[ angles ]
;	ai	  aj	ak funct			c0			  c1			c2			  c3
   32     1    33	5 ;      OG2D1      CG2O6      OG302
   32     1   114	5 ;      OG2D1      CG2O6      OG302
   33     1   114	5 ;      OG302      CG2O6      OG302
    3     2    37	5 ;     CG2R61      CG321       HGA2
    3     2    38	5 ;     CG2R61      CG321       HGA2
    3     2    33	5 ;     CG2R61      CG321      OG302
   37     2    38	5 ;       HGA2      CG321       HGA2
   37     2    33	5 ;       HGA2      CG321      OG302
   38     2    33	5 ;       HGA2      CG321      OG302
    2     3     4	5 ;      CG321     CG2R61     CG2R61
    2     3    31	5 ;      CG321     CG2R61     CG2R61
    4     3    31	5 ;     CG2R61     CG2R61     CG2R61
    3     4     5	5 ;     CG2R61     CG2R61     CG2R61
    3     4    39	5 ;     CG2R61     CG2R61      HGR61
    5     4    39	5 ;     CG2R61     CG2R61      HGR61
    4     5     6	5 ;     CG2R61     CG2R61     CG2R61
    4     5    40	5 ;     CG2R61     CG2R61      HGR61
    6     5    40	5 ;     CG2R61     CG2R61      HGR61
    5     6    30	5 ;     CG2R61     CG2R61     CG2R61
    5     6    34	5 ;     CG2R61     CG2R61      OG301
   30     6    34	5 ;     CG2R61     CG2R61      OG301
   28     7    29	5 ;      CG331      CG301      CG331
   28     7    35	5 ;      CG331      CG301      OG301
   28     7    34	5 ;      CG331      CG301      OG301
   29     7    35	5 ;      CG331      CG301      OG301
   29     7    34	5 ;      CG331      CG301      OG301
   35     7    34	5 ;      OG301      CG301      OG301
    9     8    41	5 ;      CG321      CG321       HGA2
    9     8    42	5 ;      CG321      CG321       HGA2
    9     8    35	5 ;      CG321      CG321      OG301
   41     8    42	5 ;       HGA2      CG321       HGA2
   41     8    35	5 ;       HGA2      CG321      OG301
   42     8    35	5 ;       HGA2      CG321      OG301
    8     9    36	5 ;      CG321      CG321      OG301
    8     9    43	5 ;      CG321      CG321       HGA2
    8     9    44	5 ;      CG321      CG321       HGA2
   36     9    43	5 ;      OG301      CG321       HGA2
   36     9    44	5 ;      OG301      CG321       HGA2
   43     9    44	5 ;       HGA2      CG321       HGA2
   11    10    45	5 ;      CG321      CG321       HGA2
   11    10    46	5 ;      CG321      CG321       HGA2
   11    10    36	5 ;      CG321      CG321      OG301
   45    10    46	5 ;       HGA2      CG321       HGA2
   45    10    36	5 ;       HGA2      CG321      OG301
   46    10    36	5 ;       HGA2      CG321      OG301
   10    11    12	5 ;      CG321      CG321      CG321
   10    11    47	5 ;      CG321      CG321       HGA2
   10    11    48	5 ;      CG321      CG321       HGA2
   12    11    47	5 ;      CG321      CG321       HGA2
   12    11    48	5 ;      CG321      CG321       HGA2
   47    11    48	5 ;       HGA2      CG321       HGA2
   11    12    13	5 ;      CG321      CG321      CG321
   11    12    49	5 ;      CG321      CG321       HGA2
   11    12    50	5 ;      CG321      CG321       HGA2
   13    12    49	5 ;      CG321      CG321       HGA2
   13    12    50	5 ;      CG321      CG321       HGA2
   49    12    50	5 ;       HGA2      CG321       HGA2
   12    13    14	5 ;      CG321      CG321      CG321
   12    13    51	5 ;      CG321      CG321       HGA2
   12    13    52	5 ;      CG321      CG321       HGA2
   14    13    51	5 ;      CG321      CG321       HGA2
   14    13    52	5 ;      CG321      CG321       HGA2
   51    13    52	5 ;       HGA2      CG321       HGA2
   13    14    15	5 ;      CG321      CG321      CG321
   13    14    53	5 ;      CG321      CG321       HGA2
   13    14    54	5 ;      CG321      CG321       HGA2
   15    14    53	5 ;      CG321      CG321       HGA2
   15    14    54	5 ;      CG321      CG321       HGA2
   53    14    54	5 ;       HGA2      CG321       HGA2
   14    15    16	5 ;      CG321      CG321      CG321
   14    15    55	5 ;      CG321      CG321       HGA2
   14    15    56	5 ;      CG321      CG321       HGA2
   16    15    55	5 ;      CG321      CG321       HGA2
   16    15    56	5 ;      CG321      CG321       HGA2
   55    15    56	5 ;       HGA2      CG321       HGA2
   15    16    17	5 ;      CG321      CG321      CG321
   15    16    57	5 ;      CG321      CG321       HGA2
   15    16    58	5 ;      CG321      CG321       HGA2
   17    16    57	5 ;      CG321      CG321       HGA2
   17    16    58	5 ;      CG321      CG321       HGA2
   57    16    58	5 ;       HGA2      CG321       HGA2
   16    17    18	5 ;      CG321      CG321      CG321
   16    17    59	5 ;      CG321      CG321       HGA2
   16    17    60	5 ;      CG321      CG321       HGA2
   18    17    59	5 ;      CG321      CG321       HGA2
   18    17    60	5 ;      CG321      CG321       HGA2
   59    17    60	5 ;       HGA2      CG321       HGA2
   17    18    19	5 ;      CG321      CG321      CG321
   17    18    61	5 ;      CG321      CG321       HGA2
   17    18    62	5 ;      CG321      CG321       HGA2
   19    18    61	5 ;      CG321      CG321       HGA2
   19    18    62	5 ;      CG321      CG321       HGA2
   61    18    62	5 ;       HGA2      CG321       HGA2
   18    19    20	5 ;      CG321      CG321      CG321
   18    19    63	5 ;      CG321      CG321       HGA2
   18    19    64	5 ;      CG321      CG321       HGA2
   20    19    63	5 ;      CG321      CG321       HGA2
   20    19    64	5 ;      CG321      CG321       HGA2
   63    19    64	5 ;       HGA2      CG321       HGA2
   19    20    21	5 ;      CG321      CG321      CG321
   19    20    65	5 ;      CG321      CG321       HGA2
   19    20    66	5 ;      CG321      CG321       HGA2
   21    20    65	5 ;      CG321      CG321       HGA2
   21    20    66	5 ;      CG321      CG321       HGA2
   65    20    66	5 ;       HGA2      CG321       HGA2
   20    21    22	5 ;      CG321      CG321      CG321
   20    21    67	5 ;      CG321      CG321       HGA2
   20    21    68	5 ;      CG321      CG321       HGA2
   22    21    67	5 ;      CG321      CG321       HGA2
   22    21    68	5 ;      CG321      CG321       HGA2
   67    21    68	5 ;       HGA2      CG321       HGA2
   21    22    23	5 ;      CG321      CG321      CG321
   21    22    69	5 ;      CG321      CG321       HGA2
   21    22    70	5 ;      CG321      CG321       HGA2
   23    22    69	5 ;      CG321      CG321       HGA2
   23    22    70	5 ;      CG321      CG321       HGA2
   69    22    70	5 ;       HGA2      CG321       HGA2
   22    23    24	5 ;      CG321      CG321      CG321
   22    23    71	5 ;      CG321      CG321       HGA2
   22    23    72	5 ;      CG321      CG321       HGA2
   24    23    71	5 ;      CG321      CG321       HGA2
   24    23    72	5 ;      CG321      CG321       HGA2
   71    23    72	5 ;       HGA2      CG321       HGA2
   23    24    25	5 ;      CG321      CG321      CG321
   23    24    73	5 ;      CG321      CG321       HGA2
   23    24    74	5 ;      CG321      CG321       HGA2
   25    24    73	5 ;      CG321      CG321       HGA2
   25    24    74	5 ;      CG321      CG321       HGA2
   73    24    74	5 ;       HGA2      CG321       HGA2
   24    25    26	5 ;      CG321      CG321      CG321
   24    25    75	5 ;      CG321      CG321       HGA2
   24    25    76	5 ;      CG321      CG321       HGA2
   26    25    75	5 ;      CG321      CG321       HGA2
   26    25    76	5 ;      CG321      CG321       HGA2
   75    25    76	5 ;       HGA2      CG321       HGA2
   25    26    27	5 ;      CG321      CG321      CG331
   25    26    77	5 ;      CG321      CG321       HGA2
   25    26    78	5 ;      CG321      CG321       HGA2
   27    26    77	5 ;      CG331      CG321       HGA2
   27    26    78	5 ;      CG331      CG321       HGA2
   77    26    78	5 ;       HGA2      CG321       HGA2
   26    27    79	5 ;      CG321      CG331       HGA3
   26    27    80	5 ;      CG321      CG331       HGA3
   26    27    81	5 ;      CG321      CG331       HGA3
   79    27    80	5 ;       HGA3      CG331       HGA3
   79    27    81	5 ;       HGA3      CG331       HGA3
   80    27    81	5 ;       HGA3      CG331       HGA3
    7    28    82	5 ;      CG301      CG331       HGA3
    7    28    83	5 ;      CG301      CG331       HGA3
    7    28    84	5 ;      CG301      CG331       HGA3
   82    28    83	5 ;       HGA3      CG331       HGA3
   82    28    84	5 ;       HGA3      CG331       HGA3
   83    28    84	5 ;       HGA3      CG331       HGA3
    7    29    85	5 ;      CG301      CG331       HGA3
    7    29    86	5 ;      CG301      CG331       HGA3
    7    29    87	5 ;      CG301      CG331       HGA3
   85    29    86	5 ;       HGA3      CG331       HGA3
   85    29    87	5 ;       HGA3      CG331       HGA3
   86    29    87	5 ;       HGA3      CG331       HGA3
    6    30    31	5 ;     CG2R61     CG2R61     CG2R61
    6    30    88	5 ;     CG2R61     CG2R61      HGR61
   31    30    88	5 ;     CG2R61     CG2R61      HGR61
    3    31    30	5 ;     CG2R61     CG2R61     CG2R61
    3    31    89	5 ;     CG2R61     CG2R61      HGR61
   30    31    89	5 ;     CG2R61     CG2R61      HGR61
    1    33     2	5 ;      CG2O6      OG302      CG321
    6    34     7	5 ;     CG2R61      OG301      CG301
    7    35     8	5 ;      CG301      OG301      CG321
    9    36    10	5 ;      CG321      OG301      CG321
   91    90   111	5 ;     CG2DC1      CG2O5     CG2DC1
   91    90   112	5 ;     CG2DC1      CG2O5      OG2D3
  111    90   112	5 ;     CG2DC1      CG2O5      OG2D3
   90    91    92	5 ;      CG2O5     CG2DC1     CG2DC1
   90    91   120	5 ;      CG2O5     CG2DC1       HGA4
   92    91   120	5 ;     CG2DC1     CG2DC1       HGA4
   91    92    93	5 ;     CG2DC1     CG2DC1      CG301
   91    92    97	5 ;     CG2DC1     CG2DC1      CG321
   93    92    97	5 ;      CG301     CG2DC1      CG321
   92    93    94	5 ;     CG2DC1      CG301      CG322
   92    93   109	5 ;     CG2DC1      CG301      CG331
   92    93   110	5 ;     CG2DC1      CG301     CG2DC1
   94    93   109	5 ;      CG322      CG301      CG331
   94    93   110	5 ;      CG322      CG301     CG2DC1
  109    93   110	5 ;      CG331      CG301     CG2DC1
   93    94    95	5 ;      CG301      CG322      CG311
   93    94   108	5 ;      CG301      CG322      CG311
   93    94   117	5 ;      CG301      CG322       FGA1
   95    94   108	5 ;      CG311      CG322      CG311
   95    94   117	5 ;      CG311      CG322       FGA1
  108    94   117	5 ;      CG311      CG322       FGA1
   94    95    96	5 ;      CG322      CG311      CG321
   94    95    98	5 ;      CG322      CG311     CG3RC1
   94    95   118	5 ;      CG322      CG311       HGA1
   96    95    98	5 ;      CG321      CG311     CG3RC1
   96    95   118	5 ;      CG321      CG311       HGA1
   98    95   118	5 ;     CG3RC1      CG311       HGA1
   95    96    97	5 ;      CG311      CG321      CG321
   95    96   121	5 ;      CG311      CG321       HGA2
   95    96   122	5 ;      CG311      CG321       HGA2
   97    96   121	5 ;      CG321      CG321       HGA2
   97    96   122	5 ;      CG321      CG321       HGA2
  121    96   122	5 ;       HGA2      CG321       HGA2
   92    97    96	5 ;     CG2DC1      CG321      CG321
   92    97   123	5 ;     CG2DC1      CG321       HGA2
   92    97   124	5 ;     CG2DC1      CG321       HGA2
   96    97   123	5 ;      CG321      CG321       HGA2
   96    97   124	5 ;      CG321      CG321       HGA2
  123    97   124	5 ;       HGA2      CG321       HGA2
   95    98    99	5 ;      CG311     CG3RC1     CG3RC1
   95    98   102	5 ;      CG311     CG3RC1     CG3C52
   95    98   119	5 ;      CG311     CG3RC1       HGA1
   99    98   102	5 ;     CG3RC1     CG3RC1     CG3C52
   99    98   119	5 ;     CG3RC1     CG3RC1       HGA1
  102    98   119	5 ;     CG3C52     CG3RC1       HGA1
   98    99   100	5 ;     CG3RC1     CG3RC1     CG3C50
   98    99   106	5 ;     CG3RC1     CG3RC1      CG331
   98    99   107	5 ;     CG3RC1     CG3RC1      CG321
  100    99   106	5 ;     CG3C50     CG3RC1      CG331
  100    99   107	5 ;     CG3C50     CG3RC1      CG321
  106    99   107	5 ;      CG331     CG3RC1      CG321
   99   100   101	5 ;     CG3RC1     CG3C50     CG3C51
   99   100   104	5 ;     CG3RC1     CG3C50      CG2O5
   99   100   115	5 ;     CG3RC1     CG3C50      OG311
  101   100   104	5 ;     CG3C51     CG3C50      CG2O5
  101   100   115	5 ;     CG3C51     CG3C50      OG311
  104   100   115	5 ;      CG2O5     CG3C50      OG311
  100   101   102	5 ;     CG3C50     CG3C51     CG3C52
  100   101   103	5 ;     CG3C50     CG3C51      CG331
  100   101   125	5 ;     CG3C50     CG3C51       HGA1
  102   101   103	5 ;     CG3C52     CG3C51      CG331
  102   101   125	5 ;     CG3C52     CG3C51       HGA1
  103   101   125	5 ;      CG331     CG3C51       HGA1
   98   102   101	5 ;     CG3RC1     CG3C52     CG3C51
   98   102   126	5 ;     CG3RC1     CG3C52       HGA2
   98   102   127	5 ;     CG3RC1     CG3C52       HGA2
  101   102   126	5 ;     CG3C51     CG3C52       HGA2
  101   102   127	5 ;     CG3C51     CG3C52       HGA2
  126   102   127	5 ;       HGA2     CG3C52       HGA2
  101   103   128	5 ;     CG3C51      CG331       HGA3
  101   103   129	5 ;     CG3C51      CG331       HGA3
  101   103   130	5 ;     CG3C51      CG331       HGA3
  128   103   129	5 ;       HGA3      CG331       HGA3
  128   103   130	5 ;       HGA3      CG331       HGA3
  129   103   130	5 ;       HGA3      CG331       HGA3
  100   104   105	5 ;     CG3C50      CG2O5      CG321
  100   104   113	5 ;     CG3C50      CG2O5      OG2D3
  105   104   113	5 ;      CG321      CG2O5      OG2D3
  104   105   114	5 ;      CG2O5      CG321      OG302
  104   105   131	5 ;      CG2O5      CG321       HGA2
  104   105   132	5 ;      CG2O5      CG321       HGA2
  114   105   131	5 ;      OG302      CG321       HGA2
  114   105   132	5 ;      OG302      CG321       HGA2
  131   105   132	5 ;       HGA2      CG321       HGA2
   99   106   134	5 ;     CG3RC1      CG331       HGA3
   99   106   135	5 ;     CG3RC1      CG331       HGA3
   99   106   136	5 ;     CG3RC1      CG331       HGA3
  134   106   135	5 ;       HGA3      CG331       HGA3
  134   106   136	5 ;       HGA3      CG331       HGA3
  135   106   136	5 ;       HGA3      CG331       HGA3
   99   107   108	5 ;     CG3RC1      CG321      CG311
   99   107   137	5 ;     CG3RC1      CG321       HGA2
   99   107   138	5 ;     CG3RC1      CG321       HGA2
  108   107   137	5 ;      CG311      CG321       HGA2
  108   107   138	5 ;      CG311      CG321       HGA2
  137   107   138	5 ;       HGA2      CG321       HGA2
   94   108   107	5 ;      CG322      CG311      CG321
   94   108   116	5 ;      CG322      CG311      OG311
   94   108   139	5 ;      CG322      CG311       HGA1
  107   108   116	5 ;      CG321      CG311      OG311
  107   108   139	5 ;      CG321      CG311       HGA1
  116   108   139	5 ;      OG311      CG311       HGA1
   93   109   141	5 ;      CG301      CG331       HGA3
   93   109   142	5 ;      CG301      CG331       HGA3
   93   109   143	5 ;      CG301      CG331       HGA3
  141   109   142	5 ;       HGA3      CG331       HGA3
  141   109   143	5 ;       HGA3      CG331       HGA3
  142   109   143	5 ;       HGA3      CG331       HGA3
   93   110   111	5 ;      CG301     CG2DC1     CG2DC1
   93   110   144	5 ;      CG301     CG2DC1       HGA4
  111   110   144	5 ;     CG2DC1     CG2DC1       HGA4
   90   111   110	5 ;      CG2O5     CG2DC1     CG2DC1
   90   111   145	5 ;      CG2O5     CG2DC1       HGA4
  110   111   145	5 ;     CG2DC1     CG2DC1       HGA4
  105   114     1	5 ;      CG321      OG302      CG2O6
  100   115   133	5 ;     CG3C50      OG311       HGP1
  108   116   140	5 ;      CG311      OG311       HGP1

[ dihedrals ]
;	ai	  aj	ak	  al funct			  c0			c1			  c2			c3			  c4			c5
   32     1    33     2	 9 ;      OG2D1      CG2O6      OG302      CG321
  114     1    33     2	 9 ;      OG302      CG2O6      OG302      CG321
   32     1   114   105	 9 ;      OG2D1      CG2O6      OG302      CG321
   33     1   114   105	 9 ;      OG302      CG2O6      OG302      CG321
   37     2     3     4	 9 ;       HGA2      CG321     CG2R61     CG2R61
   37     2     3    31	 9 ;       HGA2      CG321     CG2R61     CG2R61
   38     2     3     4	 9 ;       HGA2      CG321     CG2R61     CG2R61
   38     2     3    31	 9 ;       HGA2      CG321     CG2R61     CG2R61
   33     2     3     4	 9 ;      OG302      CG321     CG2R61     CG2R61
   33     2     3    31	 9 ;      OG302      CG321     CG2R61     CG2R61
    3     2    33     1	 9 ;     CG2R61      CG321      OG302      CG2O6
   37     2    33     1	 9 ;       HGA2      CG321      OG302      CG2O6
   38     2    33     1	 9 ;       HGA2      CG321      OG302      CG2O6
    2     3     4     5	 9 ;      CG321     CG2R61     CG2R61     CG2R61
    2     3     4    39	 9 ;      CG321     CG2R61     CG2R61      HGR61
   31     3     4     5	 9 ;     CG2R61     CG2R61     CG2R61     CG2R61
   31     3     4    39	 9 ;     CG2R61     CG2R61     CG2R61      HGR61
    2     3    31    30	 9 ;      CG321     CG2R61     CG2R61     CG2R61
    2     3    31    89	 9 ;      CG321     CG2R61     CG2R61      HGR61
    4     3    31    30	 9 ;     CG2R61     CG2R61     CG2R61     CG2R61
    4     3    31    89	 9 ;     CG2R61     CG2R61     CG2R61      HGR61
    3     4     5     6	 9 ;     CG2R61     CG2R61     CG2R61     CG2R61
    3     4     5    40	 9 ;     CG2R61     CG2R61     CG2R61      HGR61
   39     4     5     6	 9 ;      HGR61     CG2R61     CG2R61     CG2R61
   39     4     5    40	 9 ;      HGR61     CG2R61     CG2R61      HGR61
    4     5     6    30	 9 ;     CG2R61     CG2R61     CG2R61     CG2R61
    4     5     6    34	 9 ;     CG2R61     CG2R61     CG2R61      OG301
   40     5     6    30	 9 ;      HGR61     CG2R61     CG2R61     CG2R61
   40     5     6    34	 9 ;      HGR61     CG2R61     CG2R61      OG301
    5     6    30    31	 9 ;     CG2R61     CG2R61     CG2R61     CG2R61
    5     6    30    88	 9 ;     CG2R61     CG2R61     CG2R61      HGR61
   34     6    30    31	 9 ;      OG301     CG2R61     CG2R61     CG2R61
   34     6    30    88	 9 ;      OG301     CG2R61     CG2R61      HGR61
    5     6    34     7	 9 ;     CG2R61     CG2R61      OG301      CG301
   30     6    34     7	 9 ;     CG2R61     CG2R61      OG301      CG301
   29     7    28    82	 9 ;      CG331      CG301      CG331       HGA3
   29     7    28    83	 9 ;      CG331      CG301      CG331       HGA3
   29     7    28    84	 9 ;      CG331      CG301      CG331       HGA3
   35     7    28    82	 9 ;      OG301      CG301      CG331       HGA3
   35     7    28    83	 9 ;      OG301      CG301      CG331       HGA3
   35     7    28    84	 9 ;      OG301      CG301      CG331       HGA3
   34     7    28    82	 9 ;      OG301      CG301      CG331       HGA3
   34     7    28    83	 9 ;      OG301      CG301      CG331       HGA3
   34     7    28    84	 9 ;      OG301      CG301      CG331       HGA3
   28     7    29    85	 9 ;      CG331      CG301      CG331       HGA3
   28     7    29    86	 9 ;      CG331      CG301      CG331       HGA3
   28     7    29    87	 9 ;      CG331      CG301      CG331       HGA3
   35     7    29    85	 9 ;      OG301      CG301      CG331       HGA3
   35     7    29    86	 9 ;      OG301      CG301      CG331       HGA3
   35     7    29    87	 9 ;      OG301      CG301      CG331       HGA3
   34     7    29    85	 9 ;      OG301      CG301      CG331       HGA3
   34     7    29    86	 9 ;      OG301      CG301      CG331       HGA3
   34     7    29    87	 9 ;      OG301      CG301      CG331       HGA3
   28     7    35     8	 9 ;      CG331      CG301      OG301      CG321
   29     7    35     8	 9 ;      CG331      CG301      OG301      CG321
   34     7    35     8	 9 ;      OG301      CG301      OG301      CG321
   28     7    34     6	 9 ;      CG331      CG301      OG301     CG2R61
   29     7    34     6	 9 ;      CG331      CG301      OG301     CG2R61
   35     7    34     6	 9 ;      OG301      CG301      OG301     CG2R61
   41     8     9    36	 9 ;       HGA2      CG321      CG321      OG301
   41     8     9    43	 9 ;       HGA2      CG321      CG321       HGA2
   41     8     9    44	 9 ;       HGA2      CG321      CG321       HGA2
   42     8     9    36	 9 ;       HGA2      CG321      CG321      OG301
   42     8     9    43	 9 ;       HGA2      CG321      CG321       HGA2
   42     8     9    44	 9 ;       HGA2      CG321      CG321       HGA2
   35     8     9    36	 9 ;      OG301      CG321      CG321      OG301
   35     8     9    43	 9 ;      OG301      CG321      CG321       HGA2
   35     8     9    44	 9 ;      OG301      CG321      CG321       HGA2
    9     8    35     7	 9 ;      CG321      CG321      OG301      CG301
   41     8    35     7	 9 ;       HGA2      CG321      OG301      CG301
   42     8    35     7	 9 ;       HGA2      CG321      OG301      CG301
    8     9    36    10	 9 ;      CG321      CG321      OG301      CG321
   43     9    36    10	 9 ;       HGA2      CG321      OG301      CG321
   44     9    36    10	 9 ;       HGA2      CG321      OG301      CG321
   45    10    11    12	 9 ;       HGA2      CG321      CG321      CG321
   45    10    11    47	 9 ;       HGA2      CG321      CG321       HGA2
   45    10    11    48	 9 ;       HGA2      CG321      CG321       HGA2
   46    10    11    12	 9 ;       HGA2      CG321      CG321      CG321
   46    10    11    47	 9 ;       HGA2      CG321      CG321       HGA2
   46    10    11    48	 9 ;       HGA2      CG321      CG321       HGA2
   36    10    11    12	 9 ;      OG301      CG321      CG321      CG321
   36    10    11    47	 9 ;      OG301      CG321      CG321       HGA2
   36    10    11    48	 9 ;      OG301      CG321      CG321       HGA2
   11    10    36     9	 9 ;      CG321      CG321      OG301      CG321
   45    10    36     9	 9 ;       HGA2      CG321      OG301      CG321
   46    10    36     9	 9 ;       HGA2      CG321      OG301      CG321
   10    11    12    13	 9 ;      CG321      CG321      CG321      CG321
   10    11    12    49	 9 ;      CG321      CG321      CG321       HGA2
   10    11    12    50	 9 ;      CG321      CG321      CG321       HGA2
   47    11    12    13	 9 ;       HGA2      CG321      CG321      CG321
   47    11    12    49	 9 ;       HGA2      CG321      CG321       HGA2
   47    11    12    50	 9 ;       HGA2      CG321      CG321       HGA2
   48    11    12    13	 9 ;       HGA2      CG321      CG321      CG321
   48    11    12    49	 9 ;       HGA2      CG321      CG321       HGA2
   48    11    12    50	 9 ;       HGA2      CG321      CG321       HGA2
   11    12    13    14	 9 ;      CG321      CG321      CG321      CG321
   11    12    13    51	 9 ;      CG321      CG321      CG321       HGA2
   11    12    13    52	 9 ;      CG321      CG321      CG321       HGA2
   49    12    13    14	 9 ;       HGA2      CG321      CG321      CG321
   49    12    13    51	 9 ;       HGA2      CG321      CG321       HGA2
   49    12    13    52	 9 ;       HGA2      CG321      CG321       HGA2
   50    12    13    14	 9 ;       HGA2      CG321      CG321      CG321
   50    12    13    51	 9 ;       HGA2      CG321      CG321       HGA2
   50    12    13    52	 9 ;       HGA2      CG321      CG321       HGA2
   12    13    14    15	 9 ;      CG321      CG321      CG321      CG321
   12    13    14    53	 9 ;      CG321      CG321      CG321       HGA2
   12    13    14    54	 9 ;      CG321      CG321      CG321       HGA2
   51    13    14    15	 9 ;       HGA2      CG321      CG321      CG321
   51    13    14    53	 9 ;       HGA2      CG321      CG321       HGA2
   51    13    14    54	 9 ;       HGA2      CG321      CG321       HGA2
   52    13    14    15	 9 ;       HGA2      CG321      CG321      CG321
   52    13    14    53	 9 ;       HGA2      CG321      CG321       HGA2
   52    13    14    54	 9 ;       HGA2      CG321      CG321       HGA2
   13    14    15    16	 9 ;      CG321      CG321      CG321      CG321
   13    14    15    55	 9 ;      CG321      CG321      CG321       HGA2
   13    14    15    56	 9 ;      CG321      CG321      CG321       HGA2
   53    14    15    16	 9 ;       HGA2      CG321      CG321      CG321
   53    14    15    55	 9 ;       HGA2      CG321      CG321       HGA2
   53    14    15    56	 9 ;       HGA2      CG321      CG321       HGA2
   54    14    15    16	 9 ;       HGA2      CG321      CG321      CG321
   54    14    15    55	 9 ;       HGA2      CG321      CG321       HGA2
   54    14    15    56	 9 ;       HGA2      CG321      CG321       HGA2
   14    15    16    17	 9 ;      CG321      CG321      CG321      CG321
   14    15    16    57	 9 ;      CG321      CG321      CG321       HGA2
   14    15    16    58	 9 ;      CG321      CG321      CG321       HGA2
   55    15    16    17	 9 ;       HGA2      CG321      CG321      CG321
   55    15    16    57	 9 ;       HGA2      CG321      CG321       HGA2
   55    15    16    58	 9 ;       HGA2      CG321      CG321       HGA2
   56    15    16    17	 9 ;       HGA2      CG321      CG321      CG321
   56    15    16    57	 9 ;       HGA2      CG321      CG321       HGA2
   56    15    16    58	 9 ;       HGA2      CG321      CG321       HGA2
   15    16    17    18	 9 ;      CG321      CG321      CG321      CG321
   15    16    17    59	 9 ;      CG321      CG321      CG321       HGA2
   15    16    17    60	 9 ;      CG321      CG321      CG321       HGA2
   57    16    17    18	 9 ;       HGA2      CG321      CG321      CG321
   57    16    17    59	 9 ;       HGA2      CG321      CG321       HGA2
   57    16    17    60	 9 ;       HGA2      CG321      CG321       HGA2
   58    16    17    18	 9 ;       HGA2      CG321      CG321      CG321
   58    16    17    59	 9 ;       HGA2      CG321      CG321       HGA2
   58    16    17    60	 9 ;       HGA2      CG321      CG321       HGA2
   16    17    18    19	 9 ;      CG321      CG321      CG321      CG321
   16    17    18    61	 9 ;      CG321      CG321      CG321       HGA2
   16    17    18    62	 9 ;      CG321      CG321      CG321       HGA2
   59    17    18    19	 9 ;       HGA2      CG321      CG321      CG321
   59    17    18    61	 9 ;       HGA2      CG321      CG321       HGA2
   59    17    18    62	 9 ;       HGA2      CG321      CG321       HGA2
   60    17    18    19	 9 ;       HGA2      CG321      CG321      CG321
   60    17    18    61	 9 ;       HGA2      CG321      CG321       HGA2
   60    17    18    62	 9 ;       HGA2      CG321      CG321       HGA2
   17    18    19    20	 9 ;      CG321      CG321      CG321      CG321
   17    18    19    63	 9 ;      CG321      CG321      CG321       HGA2
   17    18    19    64	 9 ;      CG321      CG321      CG321       HGA2
   61    18    19    20	 9 ;       HGA2      CG321      CG321      CG321
   61    18    19    63	 9 ;       HGA2      CG321      CG321       HGA2
   61    18    19    64	 9 ;       HGA2      CG321      CG321       HGA2
   62    18    19    20	 9 ;       HGA2      CG321      CG321      CG321
   62    18    19    63	 9 ;       HGA2      CG321      CG321       HGA2
   62    18    19    64	 9 ;       HGA2      CG321      CG321       HGA2
   18    19    20    21	 9 ;      CG321      CG321      CG321      CG321
   18    19    20    65	 9 ;      CG321      CG321      CG321       HGA2
   18    19    20    66	 9 ;      CG321      CG321      CG321       HGA2
   63    19    20    21	 9 ;       HGA2      CG321      CG321      CG321
   63    19    20    65	 9 ;       HGA2      CG321      CG321       HGA2
   63    19    20    66	 9 ;       HGA2      CG321      CG321       HGA2
   64    19    20    21	 9 ;       HGA2      CG321      CG321      CG321
   64    19    20    65	 9 ;       HGA2      CG321      CG321       HGA2
   64    19    20    66	 9 ;       HGA2      CG321      CG321       HGA2
   19    20    21    22	 9 ;      CG321      CG321      CG321      CG321
   19    20    21    67	 9 ;      CG321      CG321      CG321       HGA2
   19    20    21    68	 9 ;      CG321      CG321      CG321       HGA2
   65    20    21    22	 9 ;       HGA2      CG321      CG321      CG321
   65    20    21    67	 9 ;       HGA2      CG321      CG321       HGA2
   65    20    21    68	 9 ;       HGA2      CG321      CG321       HGA2
   66    20    21    22	 9 ;       HGA2      CG321      CG321      CG321
   66    20    21    67	 9 ;       HGA2      CG321      CG321       HGA2
   66    20    21    68	 9 ;       HGA2      CG321      CG321       HGA2
   20    21    22    23	 9 ;      CG321      CG321      CG321      CG321
   20    21    22    69	 9 ;      CG321      CG321      CG321       HGA2
   20    21    22    70	 9 ;      CG321      CG321      CG321       HGA2
   67    21    22    23	 9 ;       HGA2      CG321      CG321      CG321
   67    21    22    69	 9 ;       HGA2      CG321      CG321       HGA2
   67    21    22    70	 9 ;       HGA2      CG321      CG321       HGA2
   68    21    22    23	 9 ;       HGA2      CG321      CG321      CG321
   68    21    22    69	 9 ;       HGA2      CG321      CG321       HGA2
   68    21    22    70	 9 ;       HGA2      CG321      CG321       HGA2
   21    22    23    24	 9 ;      CG321      CG321      CG321      CG321
   21    22    23    71	 9 ;      CG321      CG321      CG321       HGA2
   21    22    23    72	 9 ;      CG321      CG321      CG321       HGA2
   69    22    23    24	 9 ;       HGA2      CG321      CG321      CG321
   69    22    23    71	 9 ;       HGA2      CG321      CG321       HGA2
   69    22    23    72	 9 ;       HGA2      CG321      CG321       HGA2
   70    22    23    24	 9 ;       HGA2      CG321      CG321      CG321
   70    22    23    71	 9 ;       HGA2      CG321      CG321       HGA2
   70    22    23    72	 9 ;       HGA2      CG321      CG321       HGA2
   22    23    24    25	 9 ;      CG321      CG321      CG321      CG321
   22    23    24    73	 9 ;      CG321      CG321      CG321       HGA2
   22    23    24    74	 9 ;      CG321      CG321      CG321       HGA2
   71    23    24    25	 9 ;       HGA2      CG321      CG321      CG321
   71    23    24    73	 9 ;       HGA2      CG321      CG321       HGA2
   71    23    24    74	 9 ;       HGA2      CG321      CG321       HGA2
   72    23    24    25	 9 ;       HGA2      CG321      CG321      CG321
   72    23    24    73	 9 ;       HGA2      CG321      CG321       HGA2
   72    23    24    74	 9 ;       HGA2      CG321      CG321       HGA2
   23    24    25    26	 9 ;      CG321      CG321      CG321      CG321
   23    24    25    75	 9 ;      CG321      CG321      CG321       HGA2
   23    24    25    76	 9 ;      CG321      CG321      CG321       HGA2
   73    24    25    26	 9 ;       HGA2      CG321      CG321      CG321
   73    24    25    75	 9 ;       HGA2      CG321      CG321       HGA2
   73    24    25    76	 9 ;       HGA2      CG321      CG321       HGA2
   74    24    25    26	 9 ;       HGA2      CG321      CG321      CG321
   74    24    25    75	 9 ;       HGA2      CG321      CG321       HGA2
   74    24    25    76	 9 ;       HGA2      CG321      CG321       HGA2
   24    25    26    27	 9 ;      CG321      CG321      CG321      CG331
   24    25    26    77	 9 ;      CG321      CG321      CG321       HGA2
   24    25    26    78	 9 ;      CG321      CG321      CG321       HGA2
   75    25    26    27	 9 ;       HGA2      CG321      CG321      CG331
   75    25    26    77	 9 ;       HGA2      CG321      CG321       HGA2
   75    25    26    78	 9 ;       HGA2      CG321      CG321       HGA2
   76    25    26    27	 9 ;       HGA2      CG321      CG321      CG331
   76    25    26    77	 9 ;       HGA2      CG321      CG321       HGA2
   76    25    26    78	 9 ;       HGA2      CG321      CG321       HGA2
   25    26    27    79	 9 ;      CG321      CG321      CG331       HGA3
   25    26    27    80	 9 ;      CG321      CG321      CG331       HGA3
   25    26    27    81	 9 ;      CG321      CG321      CG331       HGA3
   77    26    27    79	 9 ;       HGA2      CG321      CG331       HGA3
   77    26    27    80	 9 ;       HGA2      CG321      CG331       HGA3
   77    26    27    81	 9 ;       HGA2      CG321      CG331       HGA3
   78    26    27    79	 9 ;       HGA2      CG321      CG331       HGA3
   78    26    27    80	 9 ;       HGA2      CG321      CG331       HGA3
   78    26    27    81	 9 ;       HGA2      CG321      CG331       HGA3
    6    30    31     3	 9 ;     CG2R61     CG2R61     CG2R61     CG2R61
    6    30    31    89	 9 ;     CG2R61     CG2R61     CG2R61      HGR61
   88    30    31     3	 9 ;      HGR61     CG2R61     CG2R61     CG2R61
   88    30    31    89	 9 ;      HGR61     CG2R61     CG2R61      HGR61
  111    90    91    92	 9 ;     CG2DC1      CG2O5     CG2DC1     CG2DC1
  111    90    91   120	 9 ;     CG2DC1      CG2O5     CG2DC1       HGA4
  112    90    91    92	 9 ;      OG2D3      CG2O5     CG2DC1     CG2DC1
  112    90    91   120	 9 ;      OG2D3      CG2O5     CG2DC1       HGA4
   91    90   111   110	 9 ;     CG2DC1      CG2O5     CG2DC1     CG2DC1
   91    90   111   145	 9 ;     CG2DC1      CG2O5     CG2DC1       HGA4
  112    90   111   110	 9 ;      OG2D3      CG2O5     CG2DC1     CG2DC1
  112    90   111   145	 9 ;      OG2D3      CG2O5     CG2DC1       HGA4
   90    91    92    93	 9 ;      CG2O5     CG2DC1     CG2DC1      CG301
   90    91    92    97	 9 ;      CG2O5     CG2DC1     CG2DC1      CG321
  120    91    92    93	 9 ;       HGA4     CG2DC1     CG2DC1      CG301
  120    91    92    97	 9 ;       HGA4     CG2DC1     CG2DC1      CG321
   91    92    93    94	 9 ;     CG2DC1     CG2DC1      CG301      CG322
   91    92    93   109	 9 ;     CG2DC1     CG2DC1      CG301      CG331
   91    92    93   110	 9 ;     CG2DC1     CG2DC1      CG301     CG2DC1
   97    92    93    94	 9 ;      CG321     CG2DC1      CG301      CG322
   97    92    93   109	 9 ;      CG321     CG2DC1      CG301      CG331
   97    92    93   110	 9 ;      CG321     CG2DC1      CG301     CG2DC1
   91    92    97    96	 9 ;     CG2DC1     CG2DC1      CG321      CG321
   91    92    97   123	 9 ;     CG2DC1     CG2DC1      CG321       HGA2
   91    92    97   124	 9 ;     CG2DC1     CG2DC1      CG321       HGA2
   93    92    97    96	 9 ;      CG301     CG2DC1      CG321      CG321
   93    92    97   123	 9 ;      CG301     CG2DC1      CG321       HGA2
   93    92    97   124	 9 ;      CG301     CG2DC1      CG321       HGA2
   92    93    94    95	 9 ;     CG2DC1      CG301      CG322      CG311
   92    93    94   108	 9 ;     CG2DC1      CG301      CG322      CG311
   92    93    94   117	 9 ;     CG2DC1      CG301      CG322       FGA1
  109    93    94    95	 9 ;      CG331      CG301      CG322      CG311
  109    93    94   108	 9 ;      CG331      CG301      CG322      CG311
  109    93    94   117	 9 ;      CG331      CG301      CG322       FGA1
  110    93    94    95	 9 ;     CG2DC1      CG301      CG322      CG311
  110    93    94   108	 9 ;     CG2DC1      CG301      CG322      CG311
  110    93    94   117	 9 ;     CG2DC1      CG301      CG322       FGA1
   92    93   109   141	 9 ;     CG2DC1      CG301      CG331       HGA3
   92    93   109   142	 9 ;     CG2DC1      CG301      CG331       HGA3
   92    93   109   143	 9 ;     CG2DC1      CG301      CG331       HGA3
   94    93   109   141	 9 ;      CG322      CG301      CG331       HGA3
   94    93   109   142	 9 ;      CG322      CG301      CG331       HGA3
   94    93   109   143	 9 ;      CG322      CG301      CG331       HGA3
  110    93   109   141	 9 ;     CG2DC1      CG301      CG331       HGA3
  110    93   109   142	 9 ;     CG2DC1      CG301      CG331       HGA3
  110    93   109   143	 9 ;     CG2DC1      CG301      CG331       HGA3
   92    93   110   111	 9 ;     CG2DC1      CG301     CG2DC1     CG2DC1
   92    93   110   144	 9 ;     CG2DC1      CG301     CG2DC1       HGA4
   94    93   110   111	 9 ;      CG322      CG301     CG2DC1     CG2DC1
   94    93   110   144	 9 ;      CG322      CG301     CG2DC1       HGA4
  109    93   110   111	 9 ;      CG331      CG301     CG2DC1     CG2DC1
  109    93   110   144	 9 ;      CG331      CG301     CG2DC1       HGA4
   93    94    95    96	 9 ;      CG301      CG322      CG311      CG321
   93    94    95    98	 9 ;      CG301      CG322      CG311     CG3RC1
   93    94    95   118	 9 ;      CG301      CG322      CG311       HGA1
  108    94    95    96	 9 ;      CG311      CG322      CG311      CG321
  108    94    95    98	 9 ;      CG311      CG322      CG311     CG3RC1
  108    94    95   118	 9 ;      CG311      CG322      CG311       HGA1
  117    94    95    96	 9 ;       FGA1      CG322      CG311      CG321
  117    94    95    98	 9 ;       FGA1      CG322      CG311     CG3RC1
  117    94    95   118	 9 ;       FGA1      CG322      CG311       HGA1
   93    94   108   107	 9 ;      CG301      CG322      CG311      CG321
   93    94   108   116	 9 ;      CG301      CG322      CG311      OG311
   93    94   108   139	 9 ;      CG301      CG322      CG311       HGA1
   95    94   108   107	 9 ;      CG311      CG322      CG311      CG321
   95    94   108   116	 9 ;      CG311      CG322      CG311      OG311
   95    94   108   139	 9 ;      CG311      CG322      CG311       HGA1
  117    94   108   107	 9 ;       FGA1      CG322      CG311      CG321
  117    94   108   116	 9 ;       FGA1      CG322      CG311      OG311
  117    94   108   139	 9 ;       FGA1      CG322      CG311       HGA1
   94    95    96    97	 9 ;      CG322      CG311      CG321      CG321
   94    95    96   121	 9 ;      CG322      CG311      CG321       HGA2
   94    95    96   122	 9 ;      CG322      CG311      CG321       HGA2
   98    95    96    97	 9 ;     CG3RC1      CG311      CG321      CG321
   98    95    96   121	 9 ;     CG3RC1      CG311      CG321       HGA2
   98    95    96   122	 9 ;     CG3RC1      CG311      CG321       HGA2
  118    95    96    97	 9 ;       HGA1      CG311      CG321      CG321
  118    95    96   121	 9 ;       HGA1      CG311      CG321       HGA2
  118    95    96   122	 9 ;       HGA1      CG311      CG321       HGA2
   94    95    98    99	 9 ;      CG322      CG311     CG3RC1     CG3RC1
   94    95    98   102	 9 ;      CG322      CG311     CG3RC1     CG3C52
   94    95    98   119	 9 ;      CG322      CG311     CG3RC1       HGA1
   96    95    98    99	 9 ;      CG321      CG311     CG3RC1     CG3RC1
   96    95    98   102	 9 ;      CG321      CG311     CG3RC1     CG3C52
   96    95    98   119	 9 ;      CG321      CG311     CG3RC1       HGA1
  118    95    98    99	 9 ;       HGA1      CG311     CG3RC1     CG3RC1
  118    95    98   102	 9 ;       HGA1      CG311     CG3RC1     CG3C52
  118    95    98   119	 9 ;       HGA1      CG311     CG3RC1       HGA1
   95    96    97    92	 9 ;      CG311      CG321      CG321     CG2DC1
   95    96    97   123	 9 ;      CG311      CG321      CG321       HGA2
   95    96    97   124	 9 ;      CG311      CG321      CG321       HGA2
  121    96    97    92	 9 ;       HGA2      CG321      CG321     CG2DC1
  121    96    97   123	 9 ;       HGA2      CG321      CG321       HGA2
  121    96    97   124	 9 ;       HGA2      CG321      CG321       HGA2
  122    96    97    92	 9 ;       HGA2      CG321      CG321     CG2DC1
  122    96    97   123	 9 ;       HGA2      CG321      CG321       HGA2
  122    96    97   124	 9 ;       HGA2      CG321      CG321       HGA2
   95    98    99   100	 9 ;      CG311     CG3RC1     CG3RC1     CG3C50
   95    98    99   106	 9 ;      CG311     CG3RC1     CG3RC1      CG331
   95    98    99   107	 9 ;      CG311     CG3RC1     CG3RC1      CG321
  102    98    99   100	 9 ;     CG3C52     CG3RC1     CG3RC1     CG3C50
  102    98    99   106	 9 ;     CG3C52     CG3RC1     CG3RC1      CG331
  102    98    99   107	 9 ;     CG3C52     CG3RC1     CG3RC1      CG321
  119    98    99   100	 9 ;       HGA1     CG3RC1     CG3RC1     CG3C50
  119    98    99   106	 9 ;       HGA1     CG3RC1     CG3RC1      CG331
  119    98    99   107	 9 ;       HGA1     CG3RC1     CG3RC1      CG321
   95    98   102   101	 9 ;      CG311     CG3RC1     CG3C52     CG3C51
   95    98   102   126	 9 ;      CG311     CG3RC1     CG3C52       HGA2
   95    98   102   127	 9 ;      CG311     CG3RC1     CG3C52       HGA2
   99    98   102   101	 9 ;     CG3RC1     CG3RC1     CG3C52     CG3C51
   99    98   102   126	 9 ;     CG3RC1     CG3RC1     CG3C52       HGA2
   99    98   102   127	 9 ;     CG3RC1     CG3RC1     CG3C52       HGA2
  119    98   102   101	 9 ;       HGA1     CG3RC1     CG3C52     CG3C51
  119    98   102   126	 9 ;       HGA1     CG3RC1     CG3C52       HGA2
  119    98   102   127	 9 ;       HGA1     CG3RC1     CG3C52       HGA2
   98    99   100   101	 9 ;     CG3RC1     CG3RC1     CG3C50     CG3C51
   98    99   100   104	 9 ;     CG3RC1     CG3RC1     CG3C50      CG2O5
   98    99   100   115	 9 ;     CG3RC1     CG3RC1     CG3C50      OG311
  106    99   100   101	 9 ;      CG331     CG3RC1     CG3C50     CG3C51
  106    99   100   104	 9 ;      CG331     CG3RC1     CG3C50      CG2O5
  106    99   100   115	 9 ;      CG331     CG3RC1     CG3C50      OG311
  107    99   100   101	 9 ;      CG321     CG3RC1     CG3C50     CG3C51
  107    99   100   104	 9 ;      CG321     CG3RC1     CG3C50      CG2O5
  107    99   100   115	 9 ;      CG321     CG3RC1     CG3C50      OG311
   98    99   106   134	 9 ;     CG3RC1     CG3RC1      CG331       HGA3
   98    99   106   135	 9 ;     CG3RC1     CG3RC1      CG331       HGA3
   98    99   106   136	 9 ;     CG3RC1     CG3RC1      CG331       HGA3
  100    99   106   134	 9 ;     CG3C50     CG3RC1      CG331       HGA3
  100    99   106   135	 9 ;     CG3C50     CG3RC1      CG331       HGA3
  100    99   106   136	 9 ;     CG3C50     CG3RC1      CG331       HGA3
  107    99   106   134	 9 ;      CG321     CG3RC1      CG331       HGA3
  107    99   106   135	 9 ;      CG321     CG3RC1      CG331       HGA3
  107    99   106   136	 9 ;      CG321     CG3RC1      CG331       HGA3
   98    99   107   108	 9 ;     CG3RC1     CG3RC1      CG321      CG311
   98    99   107   137	 9 ;     CG3RC1     CG3RC1      CG321       HGA2
   98    99   107   138	 9 ;     CG3RC1     CG3RC1      CG321       HGA2
  100    99   107   108	 9 ;     CG3C50     CG3RC1      CG321      CG311
  100    99   107   137	 9 ;     CG3C50     CG3RC1      CG321       HGA2
  100    99   107   138	 9 ;     CG3C50     CG3RC1      CG321       HGA2
  106    99   107   108	 9 ;      CG331     CG3RC1      CG321      CG311
  106    99   107   137	 9 ;      CG331     CG3RC1      CG321       HGA2
  106    99   107   138	 9 ;      CG331     CG3RC1      CG321       HGA2
   99   100   101   102	 9 ;     CG3RC1     CG3C50     CG3C51     CG3C52
   99   100   101   103	 9 ;     CG3RC1     CG3C50     CG3C51      CG331
   99   100   101   125	 9 ;     CG3RC1     CG3C50     CG3C51       HGA1
  104   100   101   102	 9 ;      CG2O5     CG3C50     CG3C51     CG3C52
  104   100   101   103	 9 ;      CG2O5     CG3C50     CG3C51      CG331
  104   100   101   125	 9 ;      CG2O5     CG3C50     CG3C51       HGA1
  115   100   101   102	 9 ;      OG311     CG3C50     CG3C51     CG3C52
  115   100   101   103	 9 ;      OG311     CG3C50     CG3C51      CG331
  115   100   101   125	 9 ;      OG311     CG3C50     CG3C51       HGA1
   99   100   104   105	 9 ;     CG3RC1     CG3C50      CG2O5      CG321
   99   100   104   113	 9 ;     CG3RC1     CG3C50      CG2O5      OG2D3
  101   100   104   105	 9 ;     CG3C51     CG3C50      CG2O5      CG321
  101   100   104   113	 9 ;     CG3C51     CG3C50      CG2O5      OG2D3
  115   100   104   105	 9 ;      OG311     CG3C50      CG2O5      CG321
  115   100   104   113	 9 ;      OG311     CG3C50      CG2O5      OG2D3
   99   100   115   133	 9 ;     CG3RC1     CG3C50      OG311       HGP1
  101   100   115   133	 9 ;     CG3C51     CG3C50      OG311       HGP1
  104   100   115   133	 9 ;      CG2O5     CG3C50      OG311       HGP1
  100   101   102    98	 9 ;     CG3C50     CG3C51     CG3C52     CG3RC1
  100   101   102   126	 9 ;     CG3C50     CG3C51     CG3C52       HGA2
  100   101   102   127	 9 ;     CG3C50     CG3C51     CG3C52       HGA2
  103   101   102    98	 9 ;      CG331     CG3C51     CG3C52     CG3RC1
  103   101   102   126	 9 ;      CG331     CG3C51     CG3C52       HGA2
  103   101   102   127	 9 ;      CG331     CG3C51     CG3C52       HGA2
  125   101   102    98	 9 ;       HGA1     CG3C51     CG3C52     CG3RC1
  125   101   102   126	 9 ;       HGA1     CG3C51     CG3C52       HGA2
  125   101   102   127	 9 ;       HGA1     CG3C51     CG3C52       HGA2
  100   101   103   128	 9 ;     CG3C50     CG3C51      CG331       HGA3
  100   101   103   129	 9 ;     CG3C50     CG3C51      CG331       HGA3
  100   101   103   130	 9 ;     CG3C50     CG3C51      CG331       HGA3
  102   101   103   128	 9 ;     CG3C52     CG3C51      CG331       HGA3
  102   101   103   129	 9 ;     CG3C52     CG3C51      CG331       HGA3
  102   101   103   130	 9 ;     CG3C52     CG3C51      CG331       HGA3
  125   101   103   128	 9 ;       HGA1     CG3C51      CG331       HGA3
  125   101   103   129	 9 ;       HGA1     CG3C51      CG331       HGA3
  125   101   103   130	 9 ;       HGA1     CG3C51      CG331       HGA3
  100   104   105   114	 9 ;     CG3C50      CG2O5      CG321      OG302
  100   104   105   131	 9 ;     CG3C50      CG2O5      CG321       HGA2
  100   104   105   132	 9 ;     CG3C50      CG2O5      CG321       HGA2
  113   104   105   114	 9 ;      OG2D3      CG2O5      CG321      OG302
  113   104   105   131	 9 ;      OG2D3      CG2O5      CG321       HGA2
  113   104   105   132	 9 ;      OG2D3      CG2O5      CG321       HGA2
  104   105   114     1	 9 ;      CG2O5      CG321      OG302      CG2O6
  131   105   114     1	 9 ;       HGA2      CG321      OG302      CG2O6
  132   105   114     1	 9 ;       HGA2      CG321      OG302      CG2O6
   99   107   108    94	 9 ;     CG3RC1      CG321      CG311      CG322
   99   107   108   116	 9 ;     CG3RC1      CG321      CG311      OG311
   99   107   108   139	 9 ;     CG3RC1      CG321      CG311       HGA1
  137   107   108    94	 9 ;       HGA2      CG321      CG311      CG322
  137   107   108   116	 9 ;       HGA2      CG321      CG311      OG311
  137   107   108   139	 9 ;       HGA2      CG321      CG311       HGA1
  138   107   108    94	 9 ;       HGA2      CG321      CG311      CG322
  138   107   108   116	 9 ;       HGA2      CG321      CG311      OG311
  138   107   108   139	 9 ;       HGA2      CG321      CG311       HGA1
   94   108   116   140	 9 ;      CG322      CG311      OG311       HGP1
  107   108   116   140	 9 ;      CG321      CG311      OG311       HGP1
  139   108   116   140	 9 ;       HGA1      CG311      OG311       HGP1
   93   110   111    90	 9 ;      CG301     CG2DC1     CG2DC1      CG2O5
   93   110   111   145	 9 ;      CG301     CG2DC1     CG2DC1       HGA4
  144   110   111    90	 9 ;       HGA4     CG2DC1     CG2DC1      CG2O5
  144   110   111   145	 9 ;       HGA4     CG2DC1     CG2DC1       HGA4

[ dihedrals ]
;	ai	  aj	ak	  al funct			  c0			c1			  c2			c3
    1   114    33    32	 2
   90    91   111   112	 2
  104   105   100   113	 2

