#include "../../../forcefields/charmm36-jul2022.ff/forcefield.itp"
;#include "mpeg2kpcl2k.prm"
#include "cbzc6.prm"

;#include "mpeg2kpcl2k.itp"
#include "cbzc6.itp"

#include "../../../forcefields/charmm36-jul2022.ff/tip3p.itp"
#ifdef POSRES_WATER
; Position restraint for each water oxygen
[ position_restraints ]
;  i funct		 fcx		fcy		   fcz
   1	1		1000	   1000		  1000
#endif

; Include topology for ions
;#include "../../../forcefields/charmm36-jul2022.ff/ions.itp"

[ system ]
; Name
cbzc6 in water

[ molecules ]
;Compound        #mols

CTX                2


