; Created by cgenff_charmm2gmx.py

[ moleculetype ]
; Name			   nrexcl
SN3				 3

[ atoms ]
;	 nr		  type	resnr residue  atom   cgnr	   charge		mass  typeB    chargeB		massB
; residue	 1 SN3 rtp SN3 q	qsum
     1     NG2R60      1    SN3     N1      1     -0.785     14.007   ;
     2     NG2R61      1    SN3     N2      2      0.060     14.007   ;
     3     CG2R61      1    SN3     C1      3      0.306     12.011   ;
     4     CG2R61      1    SN3     C2      4     -0.111     12.011   ;
     5     CG2R61      1    SN3     C3      5     -0.103     12.011   ;
     6     CG2R61      1    SN3     C4      6     -0.127     12.011   ;
     7     CG2R61      1    SN3     C5      7      0.440     12.011   ;
     8     CG2R67      1    SN3     C6      8      0.093     12.011   ;
     9     CG2RC0      1    SN3     C7      9      0.266     12.011   ;
    10     CG2R61      1    SN3     C8     10     -0.098     12.011   ;
    11     CG2R61      1    SN3     C9     11     -0.096     12.011   ;
    12     CG3C52      1    SN3    C10     12     -0.230     12.011   ;
    13     CG2R67      1    SN3    C11     13      0.077     12.011   ;
    14     CG2R62      1    SN3    C12     14     -0.115     12.011   ;
    15     CG2R62      1    SN3    C13     15      0.089     12.011   ;
    16     CG2R62      1    SN3    C14     16     -0.147     12.011   ;
    17      CG321      1    SN3    C15     17      0.016     12.011   ;
    18      CG2O2      1    SN3    C16     18      0.588     12.011   ;
    19      CG301      1    SN3    C17     19      0.248     12.011   ;
    20      CG321      1    SN3    C18     20     -0.289     12.011   ;
    21      CG331      1    SN3    C19     21     -0.273     12.011   ;
    22     CG2R63      1    SN3    C20     22      0.329     12.011   ;
    23      OG301      1    SN3     O1     23     -0.426     15.999   ;
    24     OG3R60      1    SN3     O2     24     -0.173     15.999   ;
    25      OG2D1      1    SN3     O3     25     -0.641     15.999   ;
    26      OG311      1    SN3     O4     26     -0.562     15.999   ;
    27      OG2D4      1    SN3     O5     27     -0.421     15.999   ;
    28      HGR61      1    SN3     H1     28      0.115      1.008   ;
    29      HGR61      1    SN3     H2     29      0.115      1.008   ;
    30      HGR61      1    SN3     H3     30      0.115      1.008   ;
    31      HGR61      1    SN3     H4     31      0.126      1.008   ;
    32       HGA2      1    SN3     H5     32      0.090      1.008   ;
    33       HGA2      1    SN3     H6     33      0.090      1.008   ;
    34      HGR62      1    SN3     H7     34      0.231      1.008   ;
    35       HGA2      1    SN3     H8     35      0.090      1.008   ;
    36       HGA2      1    SN3     H9     36      0.090      1.008   ;
    37       HGP1      1    SN3    H10     37      0.385      1.008   ;
    38       HGA2      1    SN3    H11     38      0.090      1.008   ;
    39       HGA2      1    SN3    H12     39      0.090      1.008   ;
    40       HGA3      1    SN3    H13     40      0.090      1.008   ;
    41       HGA3      1    SN3    H14     41      0.090      1.008   ;
    42       HGA3      1    SN3    H15     42      0.090      1.008   ;
    43      CG331      1    SNL    C21     43     -0.273     12.011   ;
    44      CG321      1    SNL    C22     44     -0.177     12.011   ;
    45      CG321      1    SNL    C23     45     -0.181     12.011   ;
    46      CG321      1    SNL    C24     46     -0.179     12.011   ;
    47      CG321      1    SNL    C25     47     -0.180     12.011   ;
    48      CG321      1    SNL    C26     48     -0.180     12.011   ;
    49      CG321      1    SNL    C27     49     -0.180     12.011   ;
    50      CG321      1    SNL    C28     50     -0.180     12.011   ;
    51      CG321      1    SNL    C29     51     -0.180     12.011   ;
    52      CG321      1    SNL    C30     52     -0.180     12.011   ;
    53      CG321      1    SNL    C31     53     -0.180     12.011   ;
    54      CG321      1    SNL    C32     54     -0.180     12.011   ;
    55      CG321      1    SNL    C33     55     -0.180     12.011   ;
    56      CG321      1    SNL    C34     56     -0.180     12.011   ;
    57      CG321      1    SNL    C35     57     -0.180     12.011   ;
    58      CG321      1    SNL    C36     58     -0.180     12.011   ;
    59      CG321      1    SNL    C37     59     -0.180     12.011   ;
    60      CG321      1    SNL    C38     60      0.036     12.011   ;
    61      CG301      1    SNL    C39     61      0.383     12.011   ;
    62      CG331      1    SNL    C40     62     -0.274     12.011   ;
    63      CG331      1    SNL    C41     63     -0.274     12.011   ;
    64      OG301      1    SNL     O6     64     -0.403     15.999   ;
    65       HGA3      1    SNL    H16     65      0.090      1.008   ;
    66       HGA3      1    SNL    H17     66      0.090      1.008   ;
    67       HGA3      1    SNL    H18     67      0.090      1.008   ;
    68       HGA2      1    SNL    H19     68      0.090      1.008   ;
    69       HGA2      1    SNL    H20     69      0.090      1.008   ;
    70       HGA2      1    SNL    H21     70      0.090      1.008   ;
    71       HGA2      1    SNL    H22     71      0.090      1.008   ;
    72       HGA2      1    SNL    H23     72      0.090      1.008   ;
    73       HGA2      1    SNL    H24     73      0.090      1.008   ;
    74       HGA2      1    SNL    H25     74      0.090      1.008   ;
    75       HGA2      1    SNL    H26     75      0.090      1.008   ;
    76       HGA2      1    SNL    H27     76      0.090      1.008   ;
    77       HGA2      1    SNL    H28     77      0.090      1.008   ;
    78       HGA2      1    SNL    H29     78      0.090      1.008   ;
    79       HGA2      1    SNL    H30     79      0.090      1.008   ;
    80       HGA2      1    SNL    H31     80      0.090      1.008   ;
    81       HGA2      1    SNL    H32     81      0.090      1.008   ;
    82       HGA2      1    SNL    H33     82      0.090      1.008   ;
    83       HGA2      1    SNL    H34     83      0.090      1.008   ;
    84       HGA2      1    SNL    H35     84      0.090      1.008   ;
    85       HGA2      1    SNL    H36     85      0.090      1.008   ;
    86       HGA2      1    SNL    H37     86      0.090      1.008   ;
    87       HGA2      1    SNL    H38     87      0.090      1.008   ;
    88       HGA2      1    SNL    H39     88      0.090      1.008   ;
    89       HGA2      1    SNL    H40     89      0.090      1.008   ;
    90       HGA2      1    SNL    H41     90      0.090      1.008   ;
    91       HGA2      1    SNL    H42     91      0.090      1.008   ;
    92       HGA2      1    SNL    H43     92      0.090      1.008   ;
    93       HGA2      1    SNL    H44     93      0.090      1.008   ;
    94       HGA2      1    SNL    H45     94      0.090      1.008   ;
    95       HGA2      1    SNL    H46     95      0.090      1.008   ;
    96       HGA2      1    SNL    H47     96      0.090      1.008   ;
    97       HGA2      1    SNL    H48     97      0.090      1.008   ;
    98       HGA2      1    SNL    H49     98      0.090      1.008   ;
    99       HGA2      1    SNL    H50     99      0.090      1.008   ;
   100       HGA2      1    SNL    H51    100      0.090      1.008   ;
   101       HGA2      1    SNL    H52    101      0.090      1.008   ;
   102       HGA3      1    SNL    H53    102      0.090      1.008   ;
   103       HGA3      1    SNL    H54    103      0.090      1.008   ;
   104       HGA3      1    SNL    H55    104      0.090      1.008   ;
   105       HGA3      1    SNL    H56    105      0.090      1.008   ;
   106       HGA3      1    SNL    H57    106      0.090      1.008   ;
   107       HGA3      1    SNL    H58    107      0.090      1.008   ;

[ bonds ]
;	ai	  aj funct			  c0			c1			  c2			c3
    1     8	 1 ;      NG2R60     CG2R67
    1     7	 1 ;      NG2R60     CG2R61
    2    13	 1 ;      NG2R61     CG2R67
    2    22	 1 ;      NG2R61     CG2R63
    2    12	 1 ;      NG2R61     CG3C52
    3     4	 1 ;      CG2R61     CG2R61
    3    11	 1 ;      CG2R61     CG2R61
    3    23	 1 ;      CG2R61      OG301
    4     5	 1 ;      CG2R61     CG2R61
    4    28	 1 ;      CG2R61      HGR61
    5     6	 1 ;      CG2R61     CG2R61
    5    29	 1 ;      CG2R61      HGR61
    6     7	 1 ;      CG2R61     CG2R61
    6    30	 1 ;      CG2R61      HGR61
    7    11	 1 ;      CG2R61     CG2R61
    8     9	 1 ;      CG2R67     CG2RC0
    8    13	 1 ;      CG2R67     CG2R67
    9    10	 1 ;      CG2RC0     CG2R61
    9    12	 1 ;      CG2RC0     CG3C52
   10    11	 1 ;      CG2R61     CG2R61
   10    31	 1 ;      CG2R61      HGR61
   12    32	 1 ;      CG3C52       HGA2
   12    33	 1 ;      CG3C52       HGA2
   13    14	 1 ;      CG2R67     CG2R62
   14    15	 1 ;      CG2R62     CG2R62
   14    34	 1 ;      CG2R62      HGR62
   15    16	 1 ;      CG2R62     CG2R62
   15    19	 1 ;      CG2R62      CG301
   16    17	 1 ;      CG2R62      CG321
   16    22	 1 ;      CG2R62     CG2R63
   17    24	 1 ;       CG321     OG3R60
   17    35	 1 ;       CG321       HGA2
   17    36	 1 ;       CG321       HGA2
   18    19	 1 ;       CG2O2      CG301
   18    25	 1 ;       CG2O2      OG2D1
   18    24	 1 ;       CG2O2     OG3R60
   19    20	 1 ;       CG301      CG321
   19    26	 1 ;       CG301      OG311
   20    21	 1 ;       CG321      CG331
   20    38	 1 ;       CG321       HGA2
   20    39	 1 ;       CG321       HGA2
   21    40	 1 ;       CG331       HGA3
   21    41	 1 ;       CG331       HGA3
   21    42	 1 ;       CG331       HGA3
   22    27	 1 ;      CG2R63      OG2D4
   23    61	 1 ;       OG301      CG301
   26    37	 1 ;       OG311       HGP1
   43    44	 1 ;       CG331      CG321
   43    65	 1 ;       CG331       HGA3
   43    66	 1 ;       CG331       HGA3
   43    67	 1 ;       CG331       HGA3
   44    45	 1 ;       CG321      CG321
   44    68	 1 ;       CG321       HGA2
   44    69	 1 ;       CG321       HGA2
   45    46	 1 ;       CG321      CG321
   45    70	 1 ;       CG321       HGA2
   45    71	 1 ;       CG321       HGA2
   46    47	 1 ;       CG321      CG321
   46    72	 1 ;       CG321       HGA2
   46    73	 1 ;       CG321       HGA2
   47    48	 1 ;       CG321      CG321
   47    74	 1 ;       CG321       HGA2
   47    75	 1 ;       CG321       HGA2
   48    49	 1 ;       CG321      CG321
   48    76	 1 ;       CG321       HGA2
   48    77	 1 ;       CG321       HGA2
   49    50	 1 ;       CG321      CG321
   49    78	 1 ;       CG321       HGA2
   49    79	 1 ;       CG321       HGA2
   50    51	 1 ;       CG321      CG321
   50    80	 1 ;       CG321       HGA2
   50    81	 1 ;       CG321       HGA2
   51    52	 1 ;       CG321      CG321
   51    82	 1 ;       CG321       HGA2
   51    83	 1 ;       CG321       HGA2
   52    53	 1 ;       CG321      CG321
   52    84	 1 ;       CG321       HGA2
   52    85	 1 ;       CG321       HGA2
   53    54	 1 ;       CG321      CG321
   53    86	 1 ;       CG321       HGA2
   53    87	 1 ;       CG321       HGA2
   54    55	 1 ;       CG321      CG321
   54    88	 1 ;       CG321       HGA2
   54    89	 1 ;       CG321       HGA2
   55    56	 1 ;       CG321      CG321
   55    90	 1 ;       CG321       HGA2
   55    91	 1 ;       CG321       HGA2
   56    57	 1 ;       CG321      CG321
   56    92	 1 ;       CG321       HGA2
   56    93	 1 ;       CG321       HGA2
   57    58	 1 ;       CG321      CG321
   57    94	 1 ;       CG321       HGA2
   57    95	 1 ;       CG321       HGA2
   58    59	 1 ;       CG321      CG321
   58    96	 1 ;       CG321       HGA2
   58    97	 1 ;       CG321       HGA2
   59    60	 1 ;       CG321      CG321
   59    98	 1 ;       CG321       HGA2
   59    99	 1 ;       CG321       HGA2
   60    64	 1 ;       CG321      OG301
   60   100	 1 ;       CG321       HGA2
   60   101	 1 ;       CG321       HGA2
   61    62	 1 ;       CG301      CG331
   61    63	 1 ;       CG301      CG331
   61    64	 1 ;       CG301      OG301
   62   102	 1 ;       CG331       HGA3
   62   103	 1 ;       CG331       HGA3
   62   104	 1 ;       CG331       HGA3
   63   105	 1 ;       CG331       HGA3
   63   106	 1 ;       CG331       HGA3
   63   107	 1 ;       CG331       HGA3

[ pairs ]
;	ai	  aj funct			  c0			c1			  c2			c3
    1     5	 1
    1    30	 1
    1     3	 1
    1    10	 1
    1    12	 1
    1     2	 1
    1    14	 1
    2    10	 1
    2    15	 1
    2    34	 1
    2    17	 1
    3     6	 1
    3    29	 1
    3     9	 1
    3    31	 1
    3    62	 1
    3    63	 1
    3    64	 1
    4     7	 1
    4    10	 1
    4    61	 1
    4    30	 1
    5    11	 1
    5    23	 1
    6     8	 1
    6    28	 1
    6    10	 1
    7     9	 1
    7    13	 1
    7    23	 1
    7    29	 1
    7    31	 1
    8    11	 1
    8    22	 1
    8    31	 1
    8    32	 1
    8    33	 1
    8    15	 1
    8    34	 1
    9    22	 1
    9    14	 1
   10    23	 1
   10    13	 1
   10    32	 1
   10    33	 1
   11    28	 1
   11    61	 1
   11    30	 1
   11    12	 1
   12    14	 1
   12    16	 1
   12    27	 1
   12    31	 1
   13    16	 1
   13    27	 1
   13    32	 1
   13    33	 1
   13    19	 1
   14    22	 1
   14    17	 1
   14    18	 1
   14    20	 1
   14    26	 1
   15    24	 1
   15    35	 1
   15    36	 1
   15    27	 1
   15    25	 1
   15    21	 1
   15    38	 1
   15    39	 1
   15    37	 1
   16    34	 1
   16    18	 1
   16    20	 1
   16    26	 1
   17    19	 1
   17    27	 1
   17    25	 1
   18    35	 1
   18    36	 1
   18    21	 1
   18    38	 1
   18    39	 1
   18    37	 1
   19    34	 1
   19    22	 1
   19    40	 1
   19    41	 1
   19    42	 1
   20    25	 1
   20    24	 1
   20    37	 1
   21    26	 1
   22    32	 1
   22    33	 1
   22    24	 1
   22    35	 1
   22    36	 1
   23    28	 1
   23   102	 1
   23   103	 1
   23   104	 1
   23   105	 1
   23   106	 1
   23   107	 1
   23    60	 1
   24    26	 1
   25    26	 1
   26    38	 1
   26    39	 1
   28    29	 1
   29    30	 1
   38    40	 1
   38    41	 1
   38    42	 1
   39    40	 1
   39    41	 1
   39    42	 1
   43    46	 1
   43    70	 1
   43    71	 1
   44    47	 1
   44    72	 1
   44    73	 1
   45    65	 1
   45    66	 1
   45    67	 1
   45    48	 1
   45    74	 1
   45    75	 1
   46    68	 1
   46    69	 1
   46    49	 1
   46    76	 1
   46    77	 1
   47    70	 1
   47    71	 1
   47    50	 1
   47    78	 1
   47    79	 1
   48    72	 1
   48    73	 1
   48    51	 1
   48    80	 1
   48    81	 1
   49    74	 1
   49    75	 1
   49    52	 1
   49    82	 1
   49    83	 1
   50    76	 1
   50    77	 1
   50    53	 1
   50    84	 1
   50    85	 1
   51    78	 1
   51    79	 1
   51    54	 1
   51    86	 1
   51    87	 1
   52    80	 1
   52    81	 1
   52    55	 1
   52    88	 1
   52    89	 1
   53    82	 1
   53    83	 1
   53    56	 1
   53    90	 1
   53    91	 1
   54    84	 1
   54    85	 1
   54    57	 1
   54    92	 1
   54    93	 1
   55    86	 1
   55    87	 1
   55    58	 1
   55    94	 1
   55    95	 1
   56    88	 1
   56    89	 1
   56    59	 1
   56    96	 1
   56    97	 1
   57    90	 1
   57    91	 1
   57    60	 1
   57    98	 1
   57    99	 1
   58    92	 1
   58    93	 1
   58    64	 1
   58   100	 1
   58   101	 1
   59    94	 1
   59    95	 1
   59    61	 1
   60    96	 1
   60    97	 1
   60    62	 1
   60    63	 1
   61   100	 1
   61   101	 1
   62   105	 1
   62   106	 1
   62   107	 1
   63   102	 1
   63   103	 1
   63   104	 1
   64    98	 1
   64    99	 1
   64   102	 1
   64   103	 1
   64   104	 1
   64   105	 1
   64   106	 1
   64   107	 1
   65    68	 1
   65    69	 1
   66    68	 1
   66    69	 1
   67    68	 1
   67    69	 1
   68    70	 1
   68    71	 1
   69    70	 1
   69    71	 1
   70    72	 1
   70    73	 1
   71    72	 1
   71    73	 1
   72    74	 1
   72    75	 1
   73    74	 1
   73    75	 1
   74    76	 1
   74    77	 1
   75    76	 1
   75    77	 1
   76    78	 1
   76    79	 1
   77    78	 1
   77    79	 1
   78    80	 1
   78    81	 1
   79    80	 1
   79    81	 1
   80    82	 1
   80    83	 1
   81    82	 1
   81    83	 1
   82    84	 1
   82    85	 1
   83    84	 1
   83    85	 1
   84    86	 1
   84    87	 1
   85    86	 1
   85    87	 1
   86    88	 1
   86    89	 1
   87    88	 1
   87    89	 1
   88    90	 1
   88    91	 1
   89    90	 1
   89    91	 1
   90    92	 1
   90    93	 1
   91    92	 1
   91    93	 1
   92    94	 1
   92    95	 1
   93    94	 1
   93    95	 1
   94    96	 1
   94    97	 1
   95    96	 1
   95    97	 1
   96    98	 1
   96    99	 1
   97    98	 1
   97    99	 1
   98   100	 1
   98   101	 1
   99   100	 1
   99   101	 1

[ angles ]
;	ai	  aj	ak funct			c0			  c1			c2			  c3
    8     1     7	5 ;     CG2R67     NG2R60     CG2R61
   13     2    22	5 ;     CG2R67     NG2R61     CG2R63
   13     2    12	5 ;     CG2R67     NG2R61     CG3C52
   22     2    12	5 ;     CG2R63     NG2R61     CG3C52
    4     3    11	5 ;     CG2R61     CG2R61     CG2R61
    4     3    23	5 ;     CG2R61     CG2R61      OG301
   11     3    23	5 ;     CG2R61     CG2R61      OG301
    3     4     5	5 ;     CG2R61     CG2R61     CG2R61
    3     4    28	5 ;     CG2R61     CG2R61      HGR61
    5     4    28	5 ;     CG2R61     CG2R61      HGR61
    4     5     6	5 ;     CG2R61     CG2R61     CG2R61
    4     5    29	5 ;     CG2R61     CG2R61      HGR61
    6     5    29	5 ;     CG2R61     CG2R61      HGR61
    5     6     7	5 ;     CG2R61     CG2R61     CG2R61
    5     6    30	5 ;     CG2R61     CG2R61      HGR61
    7     6    30	5 ;     CG2R61     CG2R61      HGR61
    6     7     1	5 ;     CG2R61     CG2R61     NG2R60
    6     7    11	5 ;     CG2R61     CG2R61     CG2R61
    1     7    11	5 ;     NG2R60     CG2R61     CG2R61
    1     8     9	5 ;     NG2R60     CG2R67     CG2RC0
    1     8    13	5 ;     NG2R60     CG2R67     CG2R67
    9     8    13	5 ;     CG2RC0     CG2R67     CG2R67
    8     9    10	5 ;     CG2R67     CG2RC0     CG2R61
    8     9    12	5 ;     CG2R67     CG2RC0     CG3C52
   10     9    12	5 ;     CG2R61     CG2RC0     CG3C52
    9    10    11	5 ;     CG2RC0     CG2R61     CG2R61
    9    10    31	5 ;     CG2RC0     CG2R61      HGR61
   11    10    31	5 ;     CG2R61     CG2R61      HGR61
    3    11     7	5 ;     CG2R61     CG2R61     CG2R61
    3    11    10	5 ;     CG2R61     CG2R61     CG2R61
    7    11    10	5 ;     CG2R61     CG2R61     CG2R61
    9    12     2	5 ;     CG2RC0     CG3C52     NG2R61
    9    12    32	5 ;     CG2RC0     CG3C52       HGA2
    9    12    33	5 ;     CG2RC0     CG3C52       HGA2
    2    12    32	5 ;     NG2R61     CG3C52       HGA2
    2    12    33	5 ;     NG2R61     CG3C52       HGA2
   32    12    33	5 ;       HGA2     CG3C52       HGA2
    2    13     8	5 ;     NG2R61     CG2R67     CG2R67
    2    13    14	5 ;     NG2R61     CG2R67     CG2R62
    8    13    14	5 ;     CG2R67     CG2R67     CG2R62
   13    14    15	5 ;     CG2R67     CG2R62     CG2R62
   13    14    34	5 ;     CG2R67     CG2R62      HGR62
   15    14    34	5 ;     CG2R62     CG2R62      HGR62
   14    15    16	5 ;     CG2R62     CG2R62     CG2R62
   14    15    19	5 ;     CG2R62     CG2R62      CG301
   16    15    19	5 ;     CG2R62     CG2R62      CG301
   15    16    17	5 ;     CG2R62     CG2R62      CG321
   15    16    22	5 ;     CG2R62     CG2R62     CG2R63
   17    16    22	5 ;      CG321     CG2R62     CG2R63
   16    17    24	5 ;     CG2R62      CG321     OG3R60
   16    17    35	5 ;     CG2R62      CG321       HGA2
   16    17    36	5 ;     CG2R62      CG321       HGA2
   24    17    35	5 ;     OG3R60      CG321       HGA2
   24    17    36	5 ;     OG3R60      CG321       HGA2
   35    17    36	5 ;       HGA2      CG321       HGA2
   19    18    25	5 ;      CG301      CG2O2      OG2D1
   19    18    24	5 ;      CG301      CG2O2     OG3R60
   25    18    24	5 ;      OG2D1      CG2O2     OG3R60
   15    19    18	5 ;     CG2R62      CG301      CG2O2
   15    19    20	5 ;     CG2R62      CG301      CG321
   15    19    26	5 ;     CG2R62      CG301      OG311
   18    19    20	5 ;      CG2O2      CG301      CG321
   18    19    26	5 ;      CG2O2      CG301      OG311
   20    19    26	5 ;      CG321      CG301      OG311
   19    20    21	5 ;      CG301      CG321      CG331
   19    20    38	5 ;      CG301      CG321       HGA2
   19    20    39	5 ;      CG301      CG321       HGA2
   21    20    38	5 ;      CG331      CG321       HGA2
   21    20    39	5 ;      CG331      CG321       HGA2
   38    20    39	5 ;       HGA2      CG321       HGA2
   20    21    40	5 ;      CG321      CG331       HGA3
   20    21    41	5 ;      CG321      CG331       HGA3
   20    21    42	5 ;      CG321      CG331       HGA3
   40    21    41	5 ;       HGA3      CG331       HGA3
   40    21    42	5 ;       HGA3      CG331       HGA3
   41    21    42	5 ;       HGA3      CG331       HGA3
    2    22    16	5 ;     NG2R61     CG2R63     CG2R62
    2    22    27	5 ;     NG2R61     CG2R63      OG2D4
   16    22    27	5 ;     CG2R62     CG2R63      OG2D4
    3    23    61	5 ;     CG2R61      OG301      CG301
   17    24    18	5 ;      CG321     OG3R60      CG2O2
   19    26    37	5 ;      CG301      OG311       HGP1
   44    43    65	5 ;      CG321      CG331       HGA3
   44    43    66	5 ;      CG321      CG331       HGA3
   44    43    67	5 ;      CG321      CG331       HGA3
   65    43    66	5 ;       HGA3      CG331       HGA3
   65    43    67	5 ;       HGA3      CG331       HGA3
   66    43    67	5 ;       HGA3      CG331       HGA3
   43    44    45	5 ;      CG331      CG321      CG321
   43    44    68	5 ;      CG331      CG321       HGA2
   43    44    69	5 ;      CG331      CG321       HGA2
   45    44    68	5 ;      CG321      CG321       HGA2
   45    44    69	5 ;      CG321      CG321       HGA2
   68    44    69	5 ;       HGA2      CG321       HGA2
   44    45    46	5 ;      CG321      CG321      CG321
   44    45    70	5 ;      CG321      CG321       HGA2
   44    45    71	5 ;      CG321      CG321       HGA2
   46    45    70	5 ;      CG321      CG321       HGA2
   46    45    71	5 ;      CG321      CG321       HGA2
   70    45    71	5 ;       HGA2      CG321       HGA2
   45    46    47	5 ;      CG321      CG321      CG321
   45    46    72	5 ;      CG321      CG321       HGA2
   45    46    73	5 ;      CG321      CG321       HGA2
   47    46    72	5 ;      CG321      CG321       HGA2
   47    46    73	5 ;      CG321      CG321       HGA2
   72    46    73	5 ;       HGA2      CG321       HGA2
   46    47    48	5 ;      CG321      CG321      CG321
   46    47    74	5 ;      CG321      CG321       HGA2
   46    47    75	5 ;      CG321      CG321       HGA2
   48    47    74	5 ;      CG321      CG321       HGA2
   48    47    75	5 ;      CG321      CG321       HGA2
   74    47    75	5 ;       HGA2      CG321       HGA2
   47    48    49	5 ;      CG321      CG321      CG321
   47    48    76	5 ;      CG321      CG321       HGA2
   47    48    77	5 ;      CG321      CG321       HGA2
   49    48    76	5 ;      CG321      CG321       HGA2
   49    48    77	5 ;      CG321      CG321       HGA2
   76    48    77	5 ;       HGA2      CG321       HGA2
   48    49    50	5 ;      CG321      CG321      CG321
   48    49    78	5 ;      CG321      CG321       HGA2
   48    49    79	5 ;      CG321      CG321       HGA2
   50    49    78	5 ;      CG321      CG321       HGA2
   50    49    79	5 ;      CG321      CG321       HGA2
   78    49    79	5 ;       HGA2      CG321       HGA2
   49    50    51	5 ;      CG321      CG321      CG321
   49    50    80	5 ;      CG321      CG321       HGA2
   49    50    81	5 ;      CG321      CG321       HGA2
   51    50    80	5 ;      CG321      CG321       HGA2
   51    50    81	5 ;      CG321      CG321       HGA2
   80    50    81	5 ;       HGA2      CG321       HGA2
   50    51    52	5 ;      CG321      CG321      CG321
   50    51    82	5 ;      CG321      CG321       HGA2
   50    51    83	5 ;      CG321      CG321       HGA2
   52    51    82	5 ;      CG321      CG321       HGA2
   52    51    83	5 ;      CG321      CG321       HGA2
   82    51    83	5 ;       HGA2      CG321       HGA2
   51    52    53	5 ;      CG321      CG321      CG321
   51    52    84	5 ;      CG321      CG321       HGA2
   51    52    85	5 ;      CG321      CG321       HGA2
   53    52    84	5 ;      CG321      CG321       HGA2
   53    52    85	5 ;      CG321      CG321       HGA2
   84    52    85	5 ;       HGA2      CG321       HGA2
   52    53    54	5 ;      CG321      CG321      CG321
   52    53    86	5 ;      CG321      CG321       HGA2
   52    53    87	5 ;      CG321      CG321       HGA2
   54    53    86	5 ;      CG321      CG321       HGA2
   54    53    87	5 ;      CG321      CG321       HGA2
   86    53    87	5 ;       HGA2      CG321       HGA2
   53    54    55	5 ;      CG321      CG321      CG321
   53    54    88	5 ;      CG321      CG321       HGA2
   53    54    89	5 ;      CG321      CG321       HGA2
   55    54    88	5 ;      CG321      CG321       HGA2
   55    54    89	5 ;      CG321      CG321       HGA2
   88    54    89	5 ;       HGA2      CG321       HGA2
   54    55    56	5 ;      CG321      CG321      CG321
   54    55    90	5 ;      CG321      CG321       HGA2
   54    55    91	5 ;      CG321      CG321       HGA2
   56    55    90	5 ;      CG321      CG321       HGA2
   56    55    91	5 ;      CG321      CG321       HGA2
   90    55    91	5 ;       HGA2      CG321       HGA2
   55    56    57	5 ;      CG321      CG321      CG321
   55    56    92	5 ;      CG321      CG321       HGA2
   55    56    93	5 ;      CG321      CG321       HGA2
   57    56    92	5 ;      CG321      CG321       HGA2
   57    56    93	5 ;      CG321      CG321       HGA2
   92    56    93	5 ;       HGA2      CG321       HGA2
   56    57    58	5 ;      CG321      CG321      CG321
   56    57    94	5 ;      CG321      CG321       HGA2
   56    57    95	5 ;      CG321      CG321       HGA2
   58    57    94	5 ;      CG321      CG321       HGA2
   58    57    95	5 ;      CG321      CG321       HGA2
   94    57    95	5 ;       HGA2      CG321       HGA2
   57    58    59	5 ;      CG321      CG321      CG321
   57    58    96	5 ;      CG321      CG321       HGA2
   57    58    97	5 ;      CG321      CG321       HGA2
   59    58    96	5 ;      CG321      CG321       HGA2
   59    58    97	5 ;      CG321      CG321       HGA2
   96    58    97	5 ;       HGA2      CG321       HGA2
   58    59    60	5 ;      CG321      CG321      CG321
   58    59    98	5 ;      CG321      CG321       HGA2
   58    59    99	5 ;      CG321      CG321       HGA2
   60    59    98	5 ;      CG321      CG321       HGA2
   60    59    99	5 ;      CG321      CG321       HGA2
   98    59    99	5 ;       HGA2      CG321       HGA2
   59    60    64	5 ;      CG321      CG321      OG301
   59    60   100	5 ;      CG321      CG321       HGA2
   59    60   101	5 ;      CG321      CG321       HGA2
   64    60   100	5 ;      OG301      CG321       HGA2
   64    60   101	5 ;      OG301      CG321       HGA2
  100    60   101	5 ;       HGA2      CG321       HGA2
   23    61    62	5 ;      OG301      CG301      CG331
   23    61    63	5 ;      OG301      CG301      CG331
   23    61    64	5 ;      OG301      CG301      OG301
   62    61    63	5 ;      CG331      CG301      CG331
   62    61    64	5 ;      CG331      CG301      OG301
   63    61    64	5 ;      CG331      CG301      OG301
   61    62   102	5 ;      CG301      CG331       HGA3
   61    62   103	5 ;      CG301      CG331       HGA3
   61    62   104	5 ;      CG301      CG331       HGA3
  102    62   103	5 ;       HGA3      CG331       HGA3
  102    62   104	5 ;       HGA3      CG331       HGA3
  103    62   104	5 ;       HGA3      CG331       HGA3
   61    63   105	5 ;      CG301      CG331       HGA3
   61    63   106	5 ;      CG301      CG331       HGA3
   61    63   107	5 ;      CG301      CG331       HGA3
  105    63   106	5 ;       HGA3      CG331       HGA3
  105    63   107	5 ;       HGA3      CG331       HGA3
  106    63   107	5 ;       HGA3      CG331       HGA3
   60    64    61	5 ;      CG321      OG301      CG301

[ dihedrals ]
;	ai	  aj	ak	  al funct			  c0			c1			  c2			c3			  c4			c5
    7     1     8     9	 9 ;     CG2R61     NG2R60     CG2R67     CG2RC0
    7     1     8    13	 9 ;     CG2R61     NG2R60     CG2R67     CG2R67
    8     1     7     6	 9 ;     CG2R67     NG2R60     CG2R61     CG2R61
    8     1     7    11	 9 ;     CG2R67     NG2R60     CG2R61     CG2R61
   22     2    13     8	 9 ;     CG2R63     NG2R61     CG2R67     CG2R67
   22     2    13    14	 9 ;     CG2R63     NG2R61     CG2R67     CG2R62
   12     2    13     8	 9 ;     CG3C52     NG2R61     CG2R67     CG2R67
   12     2    13    14	 9 ;     CG3C52     NG2R61     CG2R67     CG2R62
   13     2    22    16	 9 ;     CG2R67     NG2R61     CG2R63     CG2R62
   13     2    22    27	 9 ;     CG2R67     NG2R61     CG2R63      OG2D4
   12     2    22    16	 9 ;     CG3C52     NG2R61     CG2R63     CG2R62
   12     2    22    27	 9 ;     CG3C52     NG2R61     CG2R63      OG2D4
   13     2    12     9	 9 ;     CG2R67     NG2R61     CG3C52     CG2RC0
   13     2    12    32	 9 ;     CG2R67     NG2R61     CG3C52       HGA2
   13     2    12    33	 9 ;     CG2R67     NG2R61     CG3C52       HGA2
   22     2    12     9	 9 ;     CG2R63     NG2R61     CG3C52     CG2RC0
   22     2    12    32	 9 ;     CG2R63     NG2R61     CG3C52       HGA2
   22     2    12    33	 9 ;     CG2R63     NG2R61     CG3C52       HGA2
   11     3     4     5	 9 ;     CG2R61     CG2R61     CG2R61     CG2R61
   11     3     4    28	 9 ;     CG2R61     CG2R61     CG2R61      HGR61
   23     3     4     5	 9 ;      OG301     CG2R61     CG2R61     CG2R61
   23     3     4    28	 9 ;      OG301     CG2R61     CG2R61      HGR61
    4     3    11     7	 9 ;     CG2R61     CG2R61     CG2R61     CG2R61
    4     3    11    10	 9 ;     CG2R61     CG2R61     CG2R61     CG2R61
   23     3    11     7	 9 ;      OG301     CG2R61     CG2R61     CG2R61
   23     3    11    10	 9 ;      OG301     CG2R61     CG2R61     CG2R61
    4     3    23    61	 9 ;     CG2R61     CG2R61      OG301      CG301
   11     3    23    61	 9 ;     CG2R61     CG2R61      OG301      CG301
    3     4     5     6	 9 ;     CG2R61     CG2R61     CG2R61     CG2R61
    3     4     5    29	 9 ;     CG2R61     CG2R61     CG2R61      HGR61
   28     4     5     6	 9 ;      HGR61     CG2R61     CG2R61     CG2R61
   28     4     5    29	 9 ;      HGR61     CG2R61     CG2R61      HGR61
    4     5     6     7	 9 ;     CG2R61     CG2R61     CG2R61     CG2R61
    4     5     6    30	 9 ;     CG2R61     CG2R61     CG2R61      HGR61
   29     5     6     7	 9 ;      HGR61     CG2R61     CG2R61     CG2R61
   29     5     6    30	 9 ;      HGR61     CG2R61     CG2R61      HGR61
    5     6     7     1	 9 ;     CG2R61     CG2R61     CG2R61     NG2R60
    5     6     7    11	 9 ;     CG2R61     CG2R61     CG2R61     CG2R61
   30     6     7     1	 9 ;      HGR61     CG2R61     CG2R61     NG2R60
   30     6     7    11	 9 ;      HGR61     CG2R61     CG2R61     CG2R61
    6     7    11     3	 9 ;     CG2R61     CG2R61     CG2R61     CG2R61
    6     7    11    10	 9 ;     CG2R61     CG2R61     CG2R61     CG2R61
    1     7    11     3	 9 ;     NG2R60     CG2R61     CG2R61     CG2R61
    1     7    11    10	 9 ;     NG2R60     CG2R61     CG2R61     CG2R61
    1     8     9    10	 9 ;     NG2R60     CG2R67     CG2RC0     CG2R61
    1     8     9    12	 9 ;     NG2R60     CG2R67     CG2RC0     CG3C52
   13     8     9    10	 9 ;     CG2R67     CG2R67     CG2RC0     CG2R61
   13     8     9    12	 9 ;     CG2R67     CG2R67     CG2RC0     CG3C52
    1     8    13     2	 9 ;     NG2R60     CG2R67     CG2R67     NG2R61
    1     8    13    14	 9 ;     NG2R60     CG2R67     CG2R67     CG2R62
    9     8    13     2	 9 ;     CG2RC0     CG2R67     CG2R67     NG2R61
    9     8    13    14	 9 ;     CG2RC0     CG2R67     CG2R67     CG2R62
    8     9    10    11	 9 ;     CG2R67     CG2RC0     CG2R61     CG2R61
    8     9    10    31	 9 ;     CG2R67     CG2RC0     CG2R61      HGR61
   12     9    10    11	 9 ;     CG3C52     CG2RC0     CG2R61     CG2R61
   12     9    10    31	 9 ;     CG3C52     CG2RC0     CG2R61      HGR61
    8     9    12     2	 9 ;     CG2R67     CG2RC0     CG3C52     NG2R61
    8     9    12    32	 9 ;     CG2R67     CG2RC0     CG3C52       HGA2
    8     9    12    33	 9 ;     CG2R67     CG2RC0     CG3C52       HGA2
   10     9    12     2	 9 ;     CG2R61     CG2RC0     CG3C52     NG2R61
   10     9    12    32	 9 ;     CG2R61     CG2RC0     CG3C52       HGA2
   10     9    12    33	 9 ;     CG2R61     CG2RC0     CG3C52       HGA2
    9    10    11     3	 9 ;     CG2RC0     CG2R61     CG2R61     CG2R61
    9    10    11     7	 9 ;     CG2RC0     CG2R61     CG2R61     CG2R61
   31    10    11     3	 9 ;      HGR61     CG2R61     CG2R61     CG2R61
   31    10    11     7	 9 ;      HGR61     CG2R61     CG2R61     CG2R61
    2    13    14    15	 9 ;     NG2R61     CG2R67     CG2R62     CG2R62
    2    13    14    34	 9 ;     NG2R61     CG2R67     CG2R62      HGR62
    8    13    14    15	 9 ;     CG2R67     CG2R67     CG2R62     CG2R62
    8    13    14    34	 9 ;     CG2R67     CG2R67     CG2R62      HGR62
   13    14    15    16	 9 ;     CG2R67     CG2R62     CG2R62     CG2R62
   13    14    15    19	 9 ;     CG2R67     CG2R62     CG2R62      CG301
   34    14    15    16	 9 ;      HGR62     CG2R62     CG2R62     CG2R62
   34    14    15    19	 9 ;      HGR62     CG2R62     CG2R62      CG301
   14    15    16    17	 9 ;     CG2R62     CG2R62     CG2R62      CG321
   14    15    16    22	 9 ;     CG2R62     CG2R62     CG2R62     CG2R63
   19    15    16    17	 9 ;      CG301     CG2R62     CG2R62      CG321
   19    15    16    22	 9 ;      CG301     CG2R62     CG2R62     CG2R63
   14    15    19    18	 9 ;     CG2R62     CG2R62      CG301      CG2O2
   14    15    19    20	 9 ;     CG2R62     CG2R62      CG301      CG321
   14    15    19    26	 9 ;     CG2R62     CG2R62      CG301      OG311
   16    15    19    18	 9 ;     CG2R62     CG2R62      CG301      CG2O2
   16    15    19    20	 9 ;     CG2R62     CG2R62      CG301      CG321
   16    15    19    26	 9 ;     CG2R62     CG2R62      CG301      OG311
   15    16    17    24	 9 ;     CG2R62     CG2R62      CG321     OG3R60
   15    16    17    35	 9 ;     CG2R62     CG2R62      CG321       HGA2
   15    16    17    36	 9 ;     CG2R62     CG2R62      CG321       HGA2
   22    16    17    24	 9 ;     CG2R63     CG2R62      CG321     OG3R60
   22    16    17    35	 9 ;     CG2R63     CG2R62      CG321       HGA2
   22    16    17    36	 9 ;     CG2R63     CG2R62      CG321       HGA2
   15    16    22     2	 9 ;     CG2R62     CG2R62     CG2R63     NG2R61
   15    16    22    27	 9 ;     CG2R62     CG2R62     CG2R63      OG2D4
   17    16    22     2	 9 ;      CG321     CG2R62     CG2R63     NG2R61
   17    16    22    27	 9 ;      CG321     CG2R62     CG2R63      OG2D4
   16    17    24    18	 9 ;     CG2R62      CG321     OG3R60      CG2O2
   35    17    24    18	 9 ;       HGA2      CG321     OG3R60      CG2O2
   36    17    24    18	 9 ;       HGA2      CG321     OG3R60      CG2O2
   25    18    19    15	 9 ;      OG2D1      CG2O2      CG301     CG2R62
   25    18    19    20	 9 ;      OG2D1      CG2O2      CG301      CG321
   25    18    19    26	 9 ;      OG2D1      CG2O2      CG301      OG311
   24    18    19    15	 9 ;     OG3R60      CG2O2      CG301     CG2R62
   24    18    19    20	 9 ;     OG3R60      CG2O2      CG301      CG321
   24    18    19    26	 9 ;     OG3R60      CG2O2      CG301      OG311
   19    18    24    17	 9 ;      CG301      CG2O2     OG3R60      CG321
   25    18    24    17	 9 ;      OG2D1      CG2O2     OG3R60      CG321
   15    19    20    21	 9 ;     CG2R62      CG301      CG321      CG331
   15    19    20    38	 9 ;     CG2R62      CG301      CG321       HGA2
   15    19    20    39	 9 ;     CG2R62      CG301      CG321       HGA2
   18    19    20    21	 9 ;      CG2O2      CG301      CG321      CG331
   18    19    20    38	 9 ;      CG2O2      CG301      CG321       HGA2
   18    19    20    39	 9 ;      CG2O2      CG301      CG321       HGA2
   26    19    20    21	 9 ;      OG311      CG301      CG321      CG331
   26    19    20    38	 9 ;      OG311      CG301      CG321       HGA2
   26    19    20    39	 9 ;      OG311      CG301      CG321       HGA2
   15    19    26    37	 9 ;     CG2R62      CG301      OG311       HGP1
   18    19    26    37	 9 ;      CG2O2      CG301      OG311       HGP1
   20    19    26    37	 9 ;      CG321      CG301      OG311       HGP1
   19    20    21    40	 9 ;      CG301      CG321      CG331       HGA3
   19    20    21    41	 9 ;      CG301      CG321      CG331       HGA3
   19    20    21    42	 9 ;      CG301      CG321      CG331       HGA3
   38    20    21    40	 9 ;       HGA2      CG321      CG331       HGA3
   38    20    21    41	 9 ;       HGA2      CG321      CG331       HGA3
   38    20    21    42	 9 ;       HGA2      CG321      CG331       HGA3
   39    20    21    40	 9 ;       HGA2      CG321      CG331       HGA3
   39    20    21    41	 9 ;       HGA2      CG321      CG331       HGA3
   39    20    21    42	 9 ;       HGA2      CG321      CG331       HGA3
    3    23    61    62	 9 ;     CG2R61      OG301      CG301      CG331
    3    23    61    63	 9 ;     CG2R61      OG301      CG301      CG331
    3    23    61    64	 9 ;     CG2R61      OG301      CG301      OG301
   65    43    44    45	 9 ;       HGA3      CG331      CG321      CG321
   65    43    44    68	 9 ;       HGA3      CG331      CG321       HGA2
   65    43    44    69	 9 ;       HGA3      CG331      CG321       HGA2
   66    43    44    45	 9 ;       HGA3      CG331      CG321      CG321
   66    43    44    68	 9 ;       HGA3      CG331      CG321       HGA2
   66    43    44    69	 9 ;       HGA3      CG331      CG321       HGA2
   67    43    44    45	 9 ;       HGA3      CG331      CG321      CG321
   67    43    44    68	 9 ;       HGA3      CG331      CG321       HGA2
   67    43    44    69	 9 ;       HGA3      CG331      CG321       HGA2
   43    44    45    46	 9 ;      CG331      CG321      CG321      CG321
   43    44    45    70	 9 ;      CG331      CG321      CG321       HGA2
   43    44    45    71	 9 ;      CG331      CG321      CG321       HGA2
   68    44    45    46	 9 ;       HGA2      CG321      CG321      CG321
   68    44    45    70	 9 ;       HGA2      CG321      CG321       HGA2
   68    44    45    71	 9 ;       HGA2      CG321      CG321       HGA2
   69    44    45    46	 9 ;       HGA2      CG321      CG321      CG321
   69    44    45    70	 9 ;       HGA2      CG321      CG321       HGA2
   69    44    45    71	 9 ;       HGA2      CG321      CG321       HGA2
   44    45    46    47	 9 ;      CG321      CG321      CG321      CG321
   44    45    46    72	 9 ;      CG321      CG321      CG321       HGA2
   44    45    46    73	 9 ;      CG321      CG321      CG321       HGA2
   70    45    46    47	 9 ;       HGA2      CG321      CG321      CG321
   70    45    46    72	 9 ;       HGA2      CG321      CG321       HGA2
   70    45    46    73	 9 ;       HGA2      CG321      CG321       HGA2
   71    45    46    47	 9 ;       HGA2      CG321      CG321      CG321
   71    45    46    72	 9 ;       HGA2      CG321      CG321       HGA2
   71    45    46    73	 9 ;       HGA2      CG321      CG321       HGA2
   45    46    47    48	 9 ;      CG321      CG321      CG321      CG321
   45    46    47    74	 9 ;      CG321      CG321      CG321       HGA2
   45    46    47    75	 9 ;      CG321      CG321      CG321       HGA2
   72    46    47    48	 9 ;       HGA2      CG321      CG321      CG321
   72    46    47    74	 9 ;       HGA2      CG321      CG321       HGA2
   72    46    47    75	 9 ;       HGA2      CG321      CG321       HGA2
   73    46    47    48	 9 ;       HGA2      CG321      CG321      CG321
   73    46    47    74	 9 ;       HGA2      CG321      CG321       HGA2
   73    46    47    75	 9 ;       HGA2      CG321      CG321       HGA2
   46    47    48    49	 9 ;      CG321      CG321      CG321      CG321
   46    47    48    76	 9 ;      CG321      CG321      CG321       HGA2
   46    47    48    77	 9 ;      CG321      CG321      CG321       HGA2
   74    47    48    49	 9 ;       HGA2      CG321      CG321      CG321
   74    47    48    76	 9 ;       HGA2      CG321      CG321       HGA2
   74    47    48    77	 9 ;       HGA2      CG321      CG321       HGA2
   75    47    48    49	 9 ;       HGA2      CG321      CG321      CG321
   75    47    48    76	 9 ;       HGA2      CG321      CG321       HGA2
   75    47    48    77	 9 ;       HGA2      CG321      CG321       HGA2
   47    48    49    50	 9 ;      CG321      CG321      CG321      CG321
   47    48    49    78	 9 ;      CG321      CG321      CG321       HGA2
   47    48    49    79	 9 ;      CG321      CG321      CG321       HGA2
   76    48    49    50	 9 ;       HGA2      CG321      CG321      CG321
   76    48    49    78	 9 ;       HGA2      CG321      CG321       HGA2
   76    48    49    79	 9 ;       HGA2      CG321      CG321       HGA2
   77    48    49    50	 9 ;       HGA2      CG321      CG321      CG321
   77    48    49    78	 9 ;       HGA2      CG321      CG321       HGA2
   77    48    49    79	 9 ;       HGA2      CG321      CG321       HGA2
   48    49    50    51	 9 ;      CG321      CG321      CG321      CG321
   48    49    50    80	 9 ;      CG321      CG321      CG321       HGA2
   48    49    50    81	 9 ;      CG321      CG321      CG321       HGA2
   78    49    50    51	 9 ;       HGA2      CG321      CG321      CG321
   78    49    50    80	 9 ;       HGA2      CG321      CG321       HGA2
   78    49    50    81	 9 ;       HGA2      CG321      CG321       HGA2
   79    49    50    51	 9 ;       HGA2      CG321      CG321      CG321
   79    49    50    80	 9 ;       HGA2      CG321      CG321       HGA2
   79    49    50    81	 9 ;       HGA2      CG321      CG321       HGA2
   49    50    51    52	 9 ;      CG321      CG321      CG321      CG321
   49    50    51    82	 9 ;      CG321      CG321      CG321       HGA2
   49    50    51    83	 9 ;      CG321      CG321      CG321       HGA2
   80    50    51    52	 9 ;       HGA2      CG321      CG321      CG321
   80    50    51    82	 9 ;       HGA2      CG321      CG321       HGA2
   80    50    51    83	 9 ;       HGA2      CG321      CG321       HGA2
   81    50    51    52	 9 ;       HGA2      CG321      CG321      CG321
   81    50    51    82	 9 ;       HGA2      CG321      CG321       HGA2
   81    50    51    83	 9 ;       HGA2      CG321      CG321       HGA2
   50    51    52    53	 9 ;      CG321      CG321      CG321      CG321
   50    51    52    84	 9 ;      CG321      CG321      CG321       HGA2
   50    51    52    85	 9 ;      CG321      CG321      CG321       HGA2
   82    51    52    53	 9 ;       HGA2      CG321      CG321      CG321
   82    51    52    84	 9 ;       HGA2      CG321      CG321       HGA2
   82    51    52    85	 9 ;       HGA2      CG321      CG321       HGA2
   83    51    52    53	 9 ;       HGA2      CG321      CG321      CG321
   83    51    52    84	 9 ;       HGA2      CG321      CG321       HGA2
   83    51    52    85	 9 ;       HGA2      CG321      CG321       HGA2
   51    52    53    54	 9 ;      CG321      CG321      CG321      CG321
   51    52    53    86	 9 ;      CG321      CG321      CG321       HGA2
   51    52    53    87	 9 ;      CG321      CG321      CG321       HGA2
   84    52    53    54	 9 ;       HGA2      CG321      CG321      CG321
   84    52    53    86	 9 ;       HGA2      CG321      CG321       HGA2
   84    52    53    87	 9 ;       HGA2      CG321      CG321       HGA2
   85    52    53    54	 9 ;       HGA2      CG321      CG321      CG321
   85    52    53    86	 9 ;       HGA2      CG321      CG321       HGA2
   85    52    53    87	 9 ;       HGA2      CG321      CG321       HGA2
   52    53    54    55	 9 ;      CG321      CG321      CG321      CG321
   52    53    54    88	 9 ;      CG321      CG321      CG321       HGA2
   52    53    54    89	 9 ;      CG321      CG321      CG321       HGA2
   86    53    54    55	 9 ;       HGA2      CG321      CG321      CG321
   86    53    54    88	 9 ;       HGA2      CG321      CG321       HGA2
   86    53    54    89	 9 ;       HGA2      CG321      CG321       HGA2
   87    53    54    55	 9 ;       HGA2      CG321      CG321      CG321
   87    53    54    88	 9 ;       HGA2      CG321      CG321       HGA2
   87    53    54    89	 9 ;       HGA2      CG321      CG321       HGA2
   53    54    55    56	 9 ;      CG321      CG321      CG321      CG321
   53    54    55    90	 9 ;      CG321      CG321      CG321       HGA2
   53    54    55    91	 9 ;      CG321      CG321      CG321       HGA2
   88    54    55    56	 9 ;       HGA2      CG321      CG321      CG321
   88    54    55    90	 9 ;       HGA2      CG321      CG321       HGA2
   88    54    55    91	 9 ;       HGA2      CG321      CG321       HGA2
   89    54    55    56	 9 ;       HGA2      CG321      CG321      CG321
   89    54    55    90	 9 ;       HGA2      CG321      CG321       HGA2
   89    54    55    91	 9 ;       HGA2      CG321      CG321       HGA2
   54    55    56    57	 9 ;      CG321      CG321      CG321      CG321
   54    55    56    92	 9 ;      CG321      CG321      CG321       HGA2
   54    55    56    93	 9 ;      CG321      CG321      CG321       HGA2
   90    55    56    57	 9 ;       HGA2      CG321      CG321      CG321
   90    55    56    92	 9 ;       HGA2      CG321      CG321       HGA2
   90    55    56    93	 9 ;       HGA2      CG321      CG321       HGA2
   91    55    56    57	 9 ;       HGA2      CG321      CG321      CG321
   91    55    56    92	 9 ;       HGA2      CG321      CG321       HGA2
   91    55    56    93	 9 ;       HGA2      CG321      CG321       HGA2
   55    56    57    58	 9 ;      CG321      CG321      CG321      CG321
   55    56    57    94	 9 ;      CG321      CG321      CG321       HGA2
   55    56    57    95	 9 ;      CG321      CG321      CG321       HGA2
   92    56    57    58	 9 ;       HGA2      CG321      CG321      CG321
   92    56    57    94	 9 ;       HGA2      CG321      CG321       HGA2
   92    56    57    95	 9 ;       HGA2      CG321      CG321       HGA2
   93    56    57    58	 9 ;       HGA2      CG321      CG321      CG321
   93    56    57    94	 9 ;       HGA2      CG321      CG321       HGA2
   93    56    57    95	 9 ;       HGA2      CG321      CG321       HGA2
   56    57    58    59	 9 ;      CG321      CG321      CG321      CG321
   56    57    58    96	 9 ;      CG321      CG321      CG321       HGA2
   56    57    58    97	 9 ;      CG321      CG321      CG321       HGA2
   94    57    58    59	 9 ;       HGA2      CG321      CG321      CG321
   94    57    58    96	 9 ;       HGA2      CG321      CG321       HGA2
   94    57    58    97	 9 ;       HGA2      CG321      CG321       HGA2
   95    57    58    59	 9 ;       HGA2      CG321      CG321      CG321
   95    57    58    96	 9 ;       HGA2      CG321      CG321       HGA2
   95    57    58    97	 9 ;       HGA2      CG321      CG321       HGA2
   57    58    59    60	 9 ;      CG321      CG321      CG321      CG321
   57    58    59    98	 9 ;      CG321      CG321      CG321       HGA2
   57    58    59    99	 9 ;      CG321      CG321      CG321       HGA2
   96    58    59    60	 9 ;       HGA2      CG321      CG321      CG321
   96    58    59    98	 9 ;       HGA2      CG321      CG321       HGA2
   96    58    59    99	 9 ;       HGA2      CG321      CG321       HGA2
   97    58    59    60	 9 ;       HGA2      CG321      CG321      CG321
   97    58    59    98	 9 ;       HGA2      CG321      CG321       HGA2
   97    58    59    99	 9 ;       HGA2      CG321      CG321       HGA2
   58    59    60    64	 9 ;      CG321      CG321      CG321      OG301
   58    59    60   100	 9 ;      CG321      CG321      CG321       HGA2
   58    59    60   101	 9 ;      CG321      CG321      CG321       HGA2
   98    59    60    64	 9 ;       HGA2      CG321      CG321      OG301
   98    59    60   100	 9 ;       HGA2      CG321      CG321       HGA2
   98    59    60   101	 9 ;       HGA2      CG321      CG321       HGA2
   99    59    60    64	 9 ;       HGA2      CG321      CG321      OG301
   99    59    60   100	 9 ;       HGA2      CG321      CG321       HGA2
   99    59    60   101	 9 ;       HGA2      CG321      CG321       HGA2
   59    60    64    61	 9 ;      CG321      CG321      OG301      CG301
  100    60    64    61	 9 ;       HGA2      CG321      OG301      CG301
  101    60    64    61	 9 ;       HGA2      CG321      OG301      CG301
   23    61    62   102	 9 ;      OG301      CG301      CG331       HGA3
   23    61    62   103	 9 ;      OG301      CG301      CG331       HGA3
   23    61    62   104	 9 ;      OG301      CG301      CG331       HGA3
   63    61    62   102	 9 ;      CG331      CG301      CG331       HGA3
   63    61    62   103	 9 ;      CG331      CG301      CG331       HGA3
   63    61    62   104	 9 ;      CG331      CG301      CG331       HGA3
   64    61    62   102	 9 ;      OG301      CG301      CG331       HGA3
   64    61    62   103	 9 ;      OG301      CG301      CG331       HGA3
   64    61    62   104	 9 ;      OG301      CG301      CG331       HGA3
   23    61    63   105	 9 ;      OG301      CG301      CG331       HGA3
   23    61    63   106	 9 ;      OG301      CG301      CG331       HGA3
   23    61    63   107	 9 ;      OG301      CG301      CG331       HGA3
   62    61    63   105	 9 ;      CG331      CG301      CG331       HGA3
   62    61    63   106	 9 ;      CG331      CG301      CG331       HGA3
   62    61    63   107	 9 ;      CG331      CG301      CG331       HGA3
   64    61    63   105	 9 ;      OG301      CG301      CG331       HGA3
   64    61    63   106	 9 ;      OG301      CG301      CG331       HGA3
   64    61    63   107	 9 ;      OG301      CG301      CG331       HGA3
   23    61    64    60	 9 ;      OG301      CG301      OG301      CG321
   62    61    64    60	 9 ;      CG331      CG301      OG301      CG321
   63    61    64    60	 9 ;      CG331      CG301      OG301      CG321

[ dihedrals ]
;	ai	  aj	ak	  al funct			  c0			c1			  c2			c3
   18    19    25    24	 2
   22    16     2    27	 2

