; Created by cgenff_charmm2gmx.py

[ moleculetype ]
; Name			   nrexcl
LST				 3

[ atoms ]
;	 nr		  type	resnr residue  atom   cgnr	   charge		mass  typeB    chargeB		massB
; residue	 1 LST rtp LST q	qsum
     1      CG331      1    LST     C1      1     -0.273     12.011   ;
     2      CG321      1    LST     C2      2     -0.173     12.011   ;
     3      CG321      1    LST     C3      3     -0.184     12.011   ;
     4      CG321      1    LST     C4      4     -0.105     12.011   ;
     5     CG2R53      1    LST     C5      5      0.411     12.011   ;
     6     NG2R50      1    LST     N1      6     -0.851     14.007   ;
     7     CG2R51      1    LST     C6      7      0.387     12.011   ;
     8      CLGR1      1    LST     Cl      8     -0.158     35.453   ;
     9     CG2R51      1    LST     C7      9     -0.296     12.011   ;
    10      CG321      1    LST     C8     10      0.248     12.011   ;
    11      OG311      1    LST      O     11     -0.637     15.999   ;
    12     NG2R51      1    LST     N2     12     -0.103     14.007   ;
    13      CG321      1    LST     C9     13      0.105     12.011   ;
    14     CG2R61      1    LST    C10     14     -0.004     12.011   ;
    15     CG2R61      1    LST    C11     15     -0.117     12.011   ;
    16     CG2R61      1    LST    C12     16     -0.107     12.011   ;
    17     CG2R67      1    LST    C13     17     -0.000     12.011   ;
    18     CG2R67      1    LST    C14     18      0.005     12.011   ;
    19     CG2R61      1    LST    C15     19     -0.122     12.011   ;
    20     CG2R61      1    LST    C16     20     -0.115     12.011   ;
    21     CG2R61      1    LST    C17     21     -0.117     12.011   ;
    22     CG2R61      1    LST    C18     22     -0.119     12.011   ;
    23     CG2R61      1    LST    C19     23      0.065     12.011   ;
    24     CG2R53      1    LST    C20     24      0.657     12.011   ;
    25     NG2R50      1    LST     N3     25     -0.520     14.007   ;
    26     NG2R50      1    LST     N4     26     -0.294     14.007   ;
    27     NG2R51      1    LST     N5     27      0.469     14.007   ;
    28     NG2R50      1    LST     N6     28     -0.664     14.007   ;
    29     CG2R61      1    LST    C21     29     -0.107     12.011   ;
    30     CG2R61      1    LST    C22     30     -0.117     12.011   ;
    31       HGA3      1    LST     H1     31      0.090      1.008   ;
    32       HGA3      1    LST     H2     32      0.090      1.008   ;
    33       HGA3      1    LST     H3     33      0.090      1.008   ;
    34       HGA2      1    LST     H4     34      0.090      1.008   ;
    35       HGA2      1    LST     H5     35      0.090      1.008   ;
    36       HGA2      1    LST     H6     36      0.090      1.008   ;
    37       HGA2      1    LST     H7     37      0.090      1.008   ;
    38       HGA2      1    LST     H8     38      0.090      1.008   ;
    39       HGA2      1    LST     H9     39      0.090      1.008   ;
    40       HGA2      1    LST    H10     40      0.090      1.008   ;
    41       HGA2      1    LST    H11     41      0.090      1.008   ;
    42       HGP1      1    LST    H12     42      0.401      1.008   ;
    43       HGA2      1    LST    H13     43      0.090      1.008   ;
    44       HGA2      1    LST    H14     44      0.090      1.008   ;
    45      HGR61      1    LST    H15     45      0.115      1.008   ;
    46      HGR61      1    LST    H16     46      0.115      1.008   ;
    47      HGR61      1    LST    H17     47      0.115      1.008   ;
    48      HGR61      1    LST    H18     48      0.115      1.008   ;
    49      HGR61      1    LST    H19     49      0.115      1.008   ;
    50      HGR61      1    LST    H20     50      0.115      1.008   ;
    51       HGP1      1    LST    H21     51      0.295      1.008   ;
    52      HGR61      1    LST    H22     52      0.115      1.008   ;
    53      HGR61      1    LST    H23     53      0.115      1.008   ;
    54        LPH      1    LST    LP1     54      0.050      0.000   ;

[ bonds ]
;	ai	  aj funct			  c0			c1			  c2			c3
    1    33	 1
    1     2	 1
    1    31	 1
    1    32	 1
    2    34	 1
    2     3	 1
    2    35	 1
    3     4	 1
    3    37	 1
    3    36	 1
    4     5	 1
    4    38	 1
    4    39	 1
    5    12	 1
    5     6	 1
    6     7	 1
    7     9	 1
    7     8	 1
    9    10	 1
    9    12	 1
   10    41	 1
   10    11	 1
   10    40	 1
   11    42	 1
   12    13	 1
   13    44	 1
   13    43	 1
   13    14	 1
   14    30	 1
   14    15	 1
   15    45	 1
   15    16	 1
   16    17	 1
   16    46	 1
   17    18	 1
   17    29	 1
   18    19	 1
   18    23	 1
   19    20	 1
   19    47	 1
   20    21	 1
   20    48	 1
   21    49	 1
   21    22	 1
   22    50	 1
   22    23	 1
   23    24	 1
   24    25	 1
   24    28	 1
   25    26	 1
   26    27	 1
   27    51	 1
   27    28	 1
   29    52	 1
   29    30	 1
   30    53	 1

[ pairs ]
;	ai	  aj funct			  c0			c1			  c2			c3
    1    36	 1
    1     4	 1
    1    37	 1
    2     5	 1
    2    38	 1
    2    39	 1
    3    33	 1
    3    12	 1
    3     6	 1
    3    31	 1
    3    32	 1
    4    34	 1
    4    35	 1
    4     7	 1
    4     9	 1
    4    13	 1
    5    36	 1
    5    37	 1
    5     8	 1
   54     5	 1
    5    10	 1
    5    43	 1
    5    44	 1
    5    14	 1
    6    10	 1
    6    13	 1
    6    38	 1
    6    39	 1
    7    41	 1
    7    11	 1
    7    13	 1
    7    40	 1
    8    10	 1
   54    10	 1
    8    12	 1
   54    12	 1
    9    42	 1
    9    43	 1
    9    14	 1
    9    44	 1
   10    13	 1
   11    12	 1
   12    38	 1
   12    39	 1
   12    41	 1
   12    40	 1
   12    15	 1
   12    30	 1
   13    45	 1
   13    16	 1
   13    53	 1
   13    29	 1
   14    17	 1
   14    52	 1
   14    46	 1
   15    44	 1
   15    43	 1
   15    18	 1
   15    53	 1
   15    29	 1
   16    19	 1
   16    52	 1
   16    30	 1
   16    23	 1
   17    45	 1
   17    47	 1
   17    20	 1
   17    53	 1
   17    22	 1
   17    24	 1
   18    46	 1
   18    48	 1
   18    50	 1
   18    52	 1
   18    21	 1
   18    25	 1
   18    28	 1
   18    30	 1
   19    49	 1
   19    24	 1
   19    29	 1
   19    22	 1
   20    50	 1
   20    23	 1
   21    47	 1
   21    24	 1
   22    25	 1
   22    28	 1
   22    48	 1
   23    47	 1
   23    49	 1
   23    26	 1
   23    27	 1
   23    29	 1
   24    50	 1
   24    51	 1
   25    51	 1
   29    46	 1
   30    44	 1
   30    43	 1
   30    45	 1
   31    34	 1
   31    35	 1
   32    34	 1
   32    35	 1
   33    34	 1
   33    35	 1
   34    36	 1
   34    37	 1
   35    36	 1
   35    37	 1
   36    38	 1
   36    39	 1
   37    38	 1
   37    39	 1
   40    42	 1
   41    42	 1
   45    46	 1
   47    48	 1
   48    49	 1
   49    50	 1
   52    53	 1

[ angles ]
;	ai	  aj	ak funct			c0			  c1			c2			  c3
   33     1     2	5
   33     1    31	5
   33     1    32	5
    2     1    31	5
    2     1    32	5
   31     1    32	5
    1     2    34	5
    1     2     3	5
    1     2    35	5
   34     2     3	5
   34     2    35	5
    3     2    35	5
    2     3     4	5
    2     3    37	5
    2     3    36	5
    4     3    37	5
    4     3    36	5
   37     3    36	5
    3     4     5	5
    3     4    38	5
    3     4    39	5
    5     4    38	5
    5     4    39	5
   38     4    39	5
   12     5     4	5
   12     5     6	5
    4     5     6	5
    5     6     7	5
    9     7     6	5
    9     7     8	5
    6     7     8	5
   10     9    12	5
   10     9     7	5
   12     9     7	5
    9    10    41	5
    9    10    11	5
    9    10    40	5
   41    10    11	5
   41    10    40	5
   11    10    40	5
   10    11    42	5
    9    12    13	5
    9    12     5	5
   13    12     5	5
   44    13    43	5
   44    13    12	5
   44    13    14	5
   43    13    12	5
   43    13    14	5
   12    13    14	5
   13    14    30	5
   13    14    15	5
   30    14    15	5
   45    15    14	5
   45    15    16	5
   14    15    16	5
   17    16    46	5
   17    16    15	5
   46    16    15	5
   18    17    29	5
   18    17    16	5
   29    17    16	5
   17    18    19	5
   17    18    23	5
   19    18    23	5
   18    19    20	5
   18    19    47	5
   20    19    47	5
   19    20    21	5
   19    20    48	5
   21    20    48	5
   49    21    20	5
   49    21    22	5
   20    21    22	5
   50    22    21	5
   50    22    23	5
   21    22    23	5
   18    23    22	5
   18    23    24	5
   22    23    24	5
   25    24    28	5
   25    24    23	5
   28    24    23	5
   26    25    24	5
   25    26    27	5
   26    27    51	5
   26    27    28	5
   51    27    28	5
   27    28    24	5
   17    29    52	5
   17    29    30	5
   52    29    30	5
   53    30    29	5
   53    30    14	5
   29    30    14	5

[ dihedrals ]
;	ai	  aj	ak	  al funct			  c0			c1			  c2			c3			  c4			c5
   33     1     2    34	 9
   33     1     2     3	 9
   33     1     2    35	 9
   31     1     2    34	 9
   31     1     2     3	 9
   31     1     2    35	 9
   32     1     2    34	 9
   32     1     2     3	 9
   32     1     2    35	 9
    1     2     3     4	 9
    1     2     3    37	 9
    1     2     3    36	 9
   34     2     3     4	 9
   34     2     3    37	 9
   34     2     3    36	 9
   35     2     3     4	 9
   35     2     3    37	 9
   35     2     3    36	 9
    2     3     4     5	 9
    2     3     4    38	 9
    2     3     4    39	 9
   37     3     4     5	 9
   37     3     4    38	 9
   37     3     4    39	 9
   36     3     4     5	 9
   36     3     4    38	 9
   36     3     4    39	 9
    3     4     5    12	 9
    3     4     5     6	 9
   38     4     5    12	 9
   38     4     5     6	 9
   39     4     5    12	 9
   39     4     5     6	 9
    4     5    12     9	 9
    4     5    12    13	 9
    6     5    12     9	 9
    6     5    12    13	 9
   12     5     6     7	 9
    4     5     6     7	 9
    5     6     7     9	 9
    5     6     7     8	 9
    6     7     9    10	 9
    6     7     9    12	 9
    8     7     9    10	 9
    8     7     9    12	 9
   12     9    10    41	 9
   12     9    10    11	 9
   12     9    10    40	 9
    7     9    10    41	 9
    7     9    10    11	 9
    7     9    10    40	 9
   10     9    12    13	 9
   10     9    12     5	 9
    7     9    12    13	 9
    7     9    12     5	 9
    9    10    11    42	 9
   41    10    11    42	 9
   40    10    11    42	 9
    9    12    13    44	 9
    9    12    13    43	 9
    9    12    13    14	 9
    5    12    13    44	 9
    5    12    13    43	 9
    5    12    13    14	 9
   44    13    14    30	 9
   44    13    14    15	 9
   43    13    14    30	 9
   43    13    14    15	 9
   12    13    14    30	 9
   12    13    14    15	 9
   13    14    30    53	 9
   13    14    30    29	 9
   15    14    30    53	 9
   15    14    30    29	 9
   13    14    15    45	 9
   13    14    15    16	 9
   30    14    15    45	 9
   30    14    15    16	 9
   45    15    16    17	 9
   45    15    16    46	 9
   14    15    16    17	 9
   14    15    16    46	 9
   46    16    17    18	 9
   46    16    17    29	 9
   15    16    17    18	 9
   15    16    17    29	 9
   29    17    18    19	 9
   29    17    18    23	 9
   16    17    18    19	 9
   16    17    18    23	 9
   18    17    29    52	 9
   18    17    29    30	 9
   16    17    29    52	 9
   16    17    29    30	 9
   17    18    19    20	 9
   17    18    19    47	 9
   23    18    19    20	 9
   23    18    19    47	 9
   17    18    23    22	 9
   17    18    23    24	 9
   19    18    23    22	 9
   19    18    23    24	 9
   18    19    20    21	 9
   18    19    20    48	 9
   47    19    20    21	 9
   47    19    20    48	 9
   19    20    21    49	 9
   19    20    21    22	 9
   48    20    21    49	 9
   48    20    21    22	 9
   49    21    22    50	 9
   49    21    22    23	 9
   20    21    22    50	 9
   20    21    22    23	 9
   50    22    23    18	 9
   50    22    23    24	 9
   21    22    23    18	 9
   21    22    23    24	 9
   18    23    24    25	 9
   18    23    24    28	 9
   22    23    24    25	 9
   22    23    24    28	 9
   28    24    25    26	 9
   23    24    25    26	 9
   25    24    28    27	 9
   23    24    28    27	 9
   24    25    26    27	 9
   25    26    27    51	 9
   25    26    27    28	 9
   26    27    28    24	 9
   51    27    28    24	 9
   17    29    30    53	 9
   17    29    30    14	 9
   52    29    30    53	 9
   52    29    30    14	 9

[ virtual_sites3 ]
; Site   from				funct a	   d
   54     8     7     7     2     0   -0.164

[ exclusions ]
;	ai	  aj
    8    54	 1
   54     7	 1
   54     9	 1
   54     6	 1
   54     5	 1
   54    10	 1
   54    12	 1

