Built with Packmol
  697
    1MEG     C1    1   3.540   1.374  -0.253
    1MEG     O1    2   3.618   1.456  -0.329
    1MEG     C2    3   3.539   1.538  -0.414
    1MEG     C3    4   3.615   1.604  -0.526
    1MEG     O2    5   3.670   1.515  -0.630
    1MEG     H1    6   3.593   1.309  -0.179
    1MEG     H2    7   3.475   1.439  -0.191
    1MEG     H3    8   3.470   1.313  -0.313
    1MEG     H4    9   3.465   1.477  -0.470
    1MEG     H5   10   3.473   1.613  -0.365
    1MEG     H6   11   3.547   1.677  -0.575
    1MEG     H7   12   3.699   1.657  -0.476
    2EGO     C6   13   3.747   1.582  -0.723
    2EGO     C7   14   3.673   1.655  -0.830
    2EGO     O4   15   3.607   1.580  -0.933
    2EGO    H12   16   3.813   1.659  -0.677
    2EGO    H13   17   3.823   1.512  -0.764
    2EGO    H14   18   3.743   1.723  -0.883
    2EGO    H15   19   3.610   1.732  -0.782
    3EGO     C6   20   3.509   1.657  -1.002
    3EGO     C7   21   3.448   1.579  -1.120
    3EGO     O4   22   3.377   1.465  -1.073
    3EGO    H12   23   3.426   1.695  -0.939
    3EGO    H13   24   3.560   1.741  -1.053
    3EGO    H14   25   3.521   1.528  -1.187
    3EGO    H15   26   3.381   1.651  -1.170
    4EGO     C6   27   3.305   1.405  -1.183
    4EGO     C7   28   3.209   1.296  -1.133
    4EGO     O4   29   3.278   1.187  -1.080
    4EGO    H12   30   3.238   1.476  -1.236
    4EGO    H13   31   3.370   1.363  -1.261
    4EGO    H14   32   3.147   1.262  -1.219
    4EGO    H15   33   3.139   1.336  -1.056
    5EGO     C6   34   3.199   1.083  -1.024
    5EGO     C7   35   3.296   0.965  -0.988
    5EGO     O4   36   3.355   0.903  -1.101
    5EGO    H12   37   3.165   1.118  -0.925
    5EGO    H13   38   3.116   1.063  -1.094
    5EGO    H14   39   3.238   0.885  -0.938
    5EGO    H15   40   3.373   0.992  -0.912
    6EGO     C6   41   3.440   0.795  -1.071
    6EGO     C7   42   3.584   0.832  -1.049
    6EGO     O4   43   3.603   0.871  -0.913
    6EGO    H12   44   3.404   0.739  -0.982
    6EGO    H13   45   3.443   0.725  -1.157
    6EGO    H14   46   3.600   0.925  -1.107
    6EGO    H15   47   3.656   0.755  -1.085
    7EGO     C6   48   3.732   0.921  -0.884
    7EGO     C7   49   3.723   0.985  -0.750
    7EGO     O4   50   3.846   1.029  -0.701
    7EGO    H12   51   3.810   0.840  -0.884
    7EGO    H13   52   3.775   0.994  -0.956
    7EGO    H14   53   3.662   0.922  -0.682
    7EGO    H15   54   3.656   1.073  -0.770
    8EGO     C6   55   3.893   1.140  -0.776
    8EGO     C7   56   3.980   1.231  -0.682
    8EGO     O4   57   3.913   1.296  -0.572
    8EGO    H12   58   3.943   1.093  -0.863
    8EGO    H13   59   3.806   1.200  -0.810
    8EGO    H14   60   4.018   1.315  -0.745
    8EGO    H15   61   4.067   1.169  -0.653
    9EGO     C6   62   4.008   1.371  -0.499
    9EGO     C7   63   3.962   1.411  -0.361
    9EGO     O4   64   4.003   1.318  -0.271
    9EGO    H12   65   4.109   1.325  -0.493
    9EGO    H13   66   4.025   1.461  -0.563
    9EGO    H14   67   3.852   1.417  -0.350
    9EGO    H15   68   4.020   1.506  -0.355
   10EGO     C6   69   4.019   1.364  -0.137
   10EGO     C7   70   4.004   1.253  -0.037
   10EGO     O4   71   4.105   1.151  -0.044
   10EGO    H12   72   4.118   1.411  -0.118
   10EGO    H13   73   3.945   1.445  -0.120
   10EGO    H14   74   3.907   1.204  -0.058
   10EGO    H15   75   4.005   1.292   0.066
   11EGO     C6   76   4.070   1.028   0.019
   11EGO     C7   77   4.177   0.929  -0.024
   11EGO     O4   78   4.304   0.962   0.035
   11EGO    H12   79   4.076   1.039   0.130
   11EGO    H13   80   3.968   0.994  -0.009
   11EGO    H14   81   4.187   0.940  -0.134
   11EGO    H15   82   4.154   0.824   0.005
   12EGO     C6   83   4.413   0.925  -0.044
   12EGO     C7   84   4.553   0.973   0.015
   12EGO     O4   85   4.584   0.906   0.135
   12EGO    H12   86   4.407   0.814  -0.040
   12EGO    H13   87   4.403   0.964  -0.147
   12EGO    H14   88   4.536   1.080   0.037
   12EGO    H15   89   4.637   0.952  -0.055
   13EGO     C6   90   4.685   0.972   0.204
   13EGO     C7   91   4.705   0.885   0.333
   13EGO     O4   92   4.600   0.916   0.424
   13EGO    H12   93   4.781   0.968   0.148
   13EGO    H13   94   4.652   1.075   0.231
   13EGO    H14   95   4.801   0.919   0.377
   13EGO    H15   96   4.724   0.778   0.311
   14EGO     C6   97   4.608   0.824   0.540
   14EGO     C7   98   4.494   0.827   0.646
   14EGO     O4   99   4.524   0.907   0.757
   14EGO    H12  100   4.593   0.727   0.486
   14EGO    H13  101   4.704   0.832   0.593
   14EGO    H14  102   4.477   0.724   0.682
   14EGO    H15  103   4.400   0.862   0.597
   15EGO     C6  104   4.415   0.930   0.847
   15EGO     C7  105   4.330   1.049   0.788
   15EGO     O4  106   4.401   1.169   0.817
   15EGO    H12  107   4.357   0.837   0.856
   15EGO    H13  108   4.457   0.953   0.947
   15EGO    H14  109   4.235   1.064   0.845
   15EGO    H15  110   4.308   1.041   0.680
   16EGO     C6  111   4.378   1.274   0.726
   16EGO     C7  112   4.443   1.407   0.765
   16EGO     O4  113   4.376   1.479   0.866
   16EGO    H12  114   4.401   1.235   0.625
   16EGO    H13  115   4.267   1.282   0.724
   16EGO    H14  116   4.465   1.470   0.676
   16EGO    H15  117   4.541   1.376   0.808
   17EGO     C6  118   4.435   1.610   0.897
   17EGO     C7  119   4.557   1.600   0.996
   17EGO     O4  120   4.522   1.560   1.127
   17EGO    H12  121   4.474   1.653   0.803
   17EGO    H13  122   4.356   1.675   0.940
   17EGO    H14  123   4.604   1.700   0.991
   17EGO    H15  124   4.631   1.527   0.959
   18EGO     C6  125   4.631   1.531   1.209
   18EGO     C7  126   4.586   1.514   1.350
   18EGO     O4  127   4.571   1.635   1.421
   18EGO    H12  128   4.678   1.436   1.176
   18EGO    H13  129   4.704   1.614   1.207
   18EGO    H14  130   4.662   1.458   1.409
   18EGO    H15  131   4.490   1.457   1.347
   19EGO     C6  132   4.499   1.613   1.547
   19EGO     C7  133   4.495   1.739   1.628
   19EGO     O4  134   4.438   1.847   1.558
   19EGO    H12  135   4.402   1.574   1.512
   19EGO    H13  136   4.550   1.545   1.617
   19EGO    H14  137   4.593   1.775   1.669
   19EGO    H15  138   4.447   1.732   1.729
   20EGO     C6  139   4.295   1.862   1.587
   20EGO     C7  140   4.248   1.897   1.739
   20EGO     O4  141   4.303   2.022   1.790
   20EGO    H12  142   4.260   1.946   1.522
   20EGO    H13  143   4.237   1.773   1.555
   20EGO    H14  144   4.268   1.819   1.816
   20EGO    H15  145   4.138   1.906   1.750
   21EGO     C6  146   4.431   2.005   1.846
   21EGO     C7  147   4.498   2.134   1.899
   21EGO     O4  148   4.538   2.223   1.793
   21EGO    H12  149   4.403   1.948   1.937
   21EGO    H13  150   4.514   1.965   1.783
   21EGO    H14  151   4.586   2.126   1.965
   21EGO    H15  152   4.408   2.179   1.948
   22EGO     C6  153   4.556   2.355   1.840
   22EGO     C7  154   4.675   2.424   1.780
   22EGO     O4  155   4.650   2.472   1.648
   22EGO    H12  156   4.464   2.419   1.832
   22EGO    H13  157   4.589   2.356   1.946
   22EGO    H14  158   4.755   2.347   1.773
   22EGO    H15  159   4.713   2.507   1.842
   23EGO     C6  160   4.744   2.570   1.614
   23EGO     C7  161   4.743   2.634   1.472
   23EGO     O4  162   4.615   2.697   1.445
   23EGO    H12  163   4.728   2.659   1.679
   23EGO    H13  164   4.846   2.531   1.627
   23EGO    H14  165   4.743   2.552   1.398
   23EGO    H15  166   4.824   2.707   1.449
   24EGO     C6  167   4.616   2.774   1.321
   24EGO     C7  168   4.484   2.838   1.285
   24EGO     O4  169   4.479   2.958   1.369
   24EGO    H12  170   4.698   2.847   1.329
   24EGO    H13  171   4.656   2.706   1.243
   24EGO    H14  172   4.404   2.766   1.317
   24EGO    H15  173   4.482   2.866   1.178
   25EGO     C6  174   4.353   3.007   1.403
   25EGO     C7  175   4.361   3.094   1.525
   25EGO     O4  176   4.358   3.018   1.647
   25EGO    H12  177   4.326   3.082   1.326
   25EGO    H13  178   4.279   2.924   1.412
   25EGO    H14  179   4.271   3.159   1.521
   25EGO    H15  180   4.457   3.148   1.510
   26EGO     C6  181   4.355   3.115   1.752
   26EGO     C7  182   4.358   3.044   1.881
   26EGO     O4  183   4.396   3.117   1.996
   26EGO    H12  184   4.432   3.195   1.740
   26EGO    H13  185   4.259   3.170   1.746
   26EGO    H14  186   4.414   2.949   1.870
   26EGO    H15  187   4.252   3.013   1.898
   27EGO     C6  188   4.385   3.027   2.113
   27EGO     C7  189   4.392   3.088   2.255
   27EGO     O4  190   4.521   3.139   2.292
   27EGO    H12  191   4.289   2.972   2.103
   27EGO    H13  192   4.458   2.944   2.105
   27EGO    H14  193   4.364   3.022   2.339
   27EGO    H15  194   4.315   3.169   2.249
   28EGO     C6  195   4.512   3.259   2.364
   28EGO     C7  196   4.462   3.256   2.508
   28EGO     O4  197   4.320   3.235   2.497
   28EGO    H12  198   4.618   3.288   2.370
   28EGO    H13  199   4.472   3.342   2.304
   28EGO    H14  200   4.488   3.342   2.573
   28EGO    H15  201   4.503   3.165   2.557
   29EGO     C6  202   4.269   3.191   2.626
   29EGO     C7  203   4.123   3.196   2.650
   29EGO     O4  204   4.062   3.317   2.661
   29EGO    H12  205   4.295   3.083   2.632
   29EGO    H13  206   4.310   3.248   2.712
   29EGO    H14  207   4.101   3.136   2.740
   29EGO    H15  208   4.077   3.129   2.574
   30EGO     C6  209   3.929   3.307   2.651
   30EGO     C7  210   3.843   3.442   2.637
   30EGO     O4  211   3.813   3.488   2.773
   30EGO    H12  212   3.915   3.258   2.553
   30EGO    H13  213   3.880   3.251   2.734
   30EGO    H14  214   3.750   3.428   2.576
   30EGO    H15  215   3.911   3.516   2.590
   31EGO     C6  216   3.828   3.628   2.790
   31EGO     C7  217   3.771   3.661   2.937
   31EGO     O4  218   3.630   3.690   2.923
   31EGO    H12  219   3.935   3.658   2.786
   31EGO    H13  220   3.772   3.680   2.710
   31EGO    H14  221   3.812   3.754   2.981
   31EGO    H15  222   3.790   3.573   3.003
   32EGO     C6  223   3.561   3.684   3.052
   32EGO     C7  224   3.421   3.750   3.050
   32EGO     O4  225   3.421   3.881   3.000
   32EGO    H12  226   3.551   3.581   3.093
   32EGO    H13  227   3.615   3.748   3.126
   32EGO    H14  228   3.372   3.742   3.149
   32EGO    H15  229   3.359   3.689   2.979
   33EGO     C6  230   3.301   3.947   3.037
   33EGO     C7  231   3.291   4.096   2.991
   33EGO     O4  232   3.373   4.181   3.067
   33EGO    H12  233   3.214   3.885   3.005
   33EGO    H13  234   3.308   3.956   3.148
   33EGO    H14  235   3.192   4.146   2.998
   33EGO    H15  236   3.313   4.110   2.882
   34EGO     C6  237   3.380   4.322   3.028
   34EGO     C7  238   3.391   4.407   3.159
   34EGO     O4  239   3.525   4.394   3.208
   34EGO    H12  240   3.456   4.359   2.956
   34EGO    H13  241   3.286   4.345   2.974
   34EGO    H14  242   3.316   4.384   3.236
   34EGO    H15  243   3.381   4.514   3.130
   35EGO     C6  244   3.536   4.467   3.332
   35EGO     C7  245   3.666   4.453   3.406
   35EGO     O4  246   3.651   4.518   3.527
   35EGO    H12  247   3.495   4.568   3.314
   35EGO    H13  248   3.466   4.409   3.396
   35EGO    H14  249   3.762   4.492   3.364
   35EGO    H15  250   3.684   4.345   3.426
   36EGO     C6  251   3.738   4.447   3.625
   36EGO     C7  252   3.716   4.505   3.768
   36EGO     O4  253   3.588   4.486   3.832
   36EGO    H12  254   3.713   4.338   3.627
   36EGO    H13  255   3.846   4.461   3.602
   36EGO    H14  256   3.731   4.615   3.768
   36EGO    H15  257   3.792   4.466   3.837
   37EGO     C6  258   3.566   4.569   3.946
   37EGO     C7  259   3.565   4.496   4.074
   37EGO     O4  260   3.445   4.431   4.104
   37EGO    H12  261   3.634   4.658   3.940
   37EGO    H13  262   3.463   4.609   3.935
   37EGO    H14  263   3.596   4.548   4.168
   37EGO    H15  264   3.637   4.411   4.068
   38EGO     C6  265   3.351   4.504   4.180
   38EGO     C7  266   3.351   4.455   4.328
   38EGO     O4  267   3.294   4.329   4.348
   38EGO    H12  268   3.370   4.613   4.182
   38EGO    H13  269   3.251   4.482   4.137
   38EGO    H14  270   3.285   4.529   4.380
   38EGO    H15  271   3.447   4.462   4.383
   39EGO     C6  272   3.299   4.292   4.482
   39EGO     C7  273   3.198   4.364   4.566
   39EGO     O4  274   3.235   4.495   4.600
   39EGO    H12  275   3.284   4.182   4.484
   39EGO    H13  276   3.400   4.316   4.520
   39EGO    H14  277   3.191   4.307   4.662
   39EGO    H15  278   3.102   4.359   4.509
   40EGO     C6  279   3.125   4.580   4.622
   40EGO     C7  280   3.173   4.722   4.648
   40EGO     O4  281   3.199   4.754   4.782
   40EGO    H12  282   3.058   4.597   4.535
   40EGO    H13  283   3.065   4.549   4.710
   40EGO    H14  284   3.091   4.787   4.609
   40EGO    H15  285   3.255   4.751   4.581
   41EGO     C6  286   3.204   4.890   4.805
   41EGO     C7  287   3.229   4.895   4.958
   41EGO     O4  288   3.107   4.861   5.030
   41EGO    H12  289   3.288   4.921   4.739
   41EGO    H13  290   3.117   4.950   4.770
   41EGO    H14  291   3.250   4.999   4.989
   41EGO    H15  292   3.318   4.836   4.988
   42EGO     C6  293   3.107   4.914   5.163
   42EGO     C7  294   2.978   4.884   5.240
   42EGO     O4  295   2.969   4.746   5.270
   42EGO    H12  296   3.194   4.872   5.218
   42EGO    H13  297   3.126   5.023   5.160
   42EGO    H14  298   2.897   4.924   5.175
   42EGO    H15  299   2.965   4.933   5.339
   43EGO     C6  300   2.841   4.716   5.321
   43EGO     C7  301   2.826   4.572   5.370
   43EGO     O4  302   2.831   4.472   5.272
   43EGO    H12  303   2.821   4.783   5.406
   43EGO    H13  304   2.762   4.739   5.245
   43EGO    H14  305   2.722   4.570   5.410
   43EGO    H15  306   2.906   4.550   5.444
   44EGO     C6  307   2.797   4.342   5.333
   44EGO     C7  308   2.784   4.227   5.230
   44EGO     O4  309   2.917   4.176   5.206
   44EGO    H12  310   2.869   4.319   5.414
   44EGO    H13  311   2.705   4.363   5.390
   44EGO    H14  312   2.731   4.269   5.141
   44EGO    H15  313   2.732   4.139   5.273
   45ECC    C12  314   2.930   4.038   5.238
   45ECC    C13  315   3.078   3.985   5.240
   45ECC     O7  316   3.131   3.976   5.102
   45ECC    C14  317   3.266   3.960   5.107
   45ECC    C15  318   3.331   3.954   4.965
   45ECC     O8  319   3.326   3.925   5.206
   45ECC    C16  320   3.285   4.074   4.880
   45ECC    C17  321   3.299   4.213   4.945
   45ECC    C18  322   3.445   4.246   5.007
   45ECC    C19  323   3.564   4.229   4.910
   45ECC     O9  324   3.678   4.301   4.964
   45ECC    H24  325   2.894   4.018   5.341
   45ECC    H25  326   2.874   3.980   5.161
   45ECC    H26  327   3.086   3.881   5.278
   45ECC    H27  328   3.137   4.059   5.298
   45ECC    H28  329   3.438   3.972   4.989
   45ECC    H29  330   3.315   3.849   4.931
   45ECC    H30  331   3.180   4.061   4.841
   45ECC    H31  332   3.345   4.058   4.789
   45ECC    H32  333   3.285   4.294   4.870
   45ECC    H33  334   3.214   4.217   5.015
   45ECC    H34  335   3.460   4.184   5.099
   45ECC    H35  336   3.431   4.356   5.019
   45ECC    H36  337   3.600   4.127   4.885
   45ECC    H37  338   3.531   4.269   4.811
   46PCL    C32  339   3.787   4.299   4.887
   46PCL    C33  340   3.898   4.390   4.953
   46PCL    O14  341   3.793   4.262   4.768
   46PCL    C34  342   4.048   4.379   4.894
   46PCL    C35  343   4.100   4.240   4.920
   46PCL    C36  344   4.249   4.225   4.886
   46PCL    C37  345   4.308   4.091   4.918
   46PCL    O15  346   4.235   3.993   4.837
   46PCL    H58  347   3.902   4.361   5.060
   46PCL    H59  348   3.852   4.491   4.946
   46PCL    H60  349   4.054   4.395   4.785
   46PCL    H61  350   4.117   4.453   4.941
   46PCL    H62  351   4.047   4.163   4.859
   46PCL    H63  352   4.089   4.207   5.026
   46PCL    H64  353   4.276   4.247   4.781
   46PCL    H65  354   4.304   4.301   4.945
   46PCL    H66  355   4.276   4.076   5.024
   46PCL    H67  356   4.419   4.088   4.904
   47PCL    C32  357   4.268   3.870   4.857
   47PCL    C33  358   4.198   3.775   4.763
   47PCL    O14  359   4.348   3.840   4.945
   47PCL    C34  360   4.130   3.654   4.823
   47PCL    C35  361   4.021   3.682   4.930
   47PCL    C36  362   3.925   3.789   4.880
   47PCL    C37  363   3.824   3.847   4.972
   47PCL    O15  364   3.880   3.941   5.069
   47PCL    H58  365   4.277   3.731   4.697
   47PCL    H59  366   4.134   3.837   4.698
   47PCL    H60  367   4.086   3.594   4.740
   47PCL    H61  368   4.215   3.606   4.878
   47PCL    H62  369   4.077   3.704   5.023
   47PCL    H63  370   3.950   3.599   4.953
   47PCL    H64  371   3.979   3.867   4.821
   47PCL    H65  372   3.864   3.747   4.797
   47PCL    H66  373   3.758   3.773   5.021
   47PCL    H67  374   3.757   3.902   4.903
   48PCL    C32  375   3.787   3.997   5.122
   48PCL    C33  376   3.845   4.098   5.225
   48PCL    O14  377   3.669   3.970   5.113
   48PCL    C34  378   3.877   4.035   5.360
   48PCL    C35  379   3.766   3.967   5.434
   48PCL    C36  380   3.678   4.067   5.508
   48PCL    C37  381   3.556   4.096   5.420
   48PCL    O15  382   3.466   4.184   5.481
   48PCL    H58  383   3.784   4.190   5.218
   48PCL    H59  384   3.941   4.143   5.195
   48PCL    H60  385   3.947   3.949   5.360
   48PCL    H61  386   3.913   4.115   5.428
   48PCL    H62  387   3.824   3.908   5.508
   48PCL    H63  388   3.702   3.905   5.368
   48PCL    H64  389   3.639   4.037   5.606
   48PCL    H65  390   3.738   4.158   5.526
   48PCL    H66  391   3.497   4.001   5.411
   48PCL    H67  392   3.564   4.140   5.319
   49PCL    C32  393   3.365   4.139   5.562
   49PCL    C33  394   3.300   4.258   5.634
   49PCL    O14  395   3.347   4.024   5.600
   49PCL    C34  396   3.175   4.303   5.561
   49PCL    C35  397   3.205   4.342   5.414
   49PCL    C36  398   3.312   4.456   5.389
   49PCL    C37  399   3.241   4.591   5.387
   49PCL    O15  400   3.339   4.698   5.384
   49PCL    H58  401   3.380   4.335   5.642
   49PCL    H59  402   3.289   4.228   5.740
   49PCL    H60  403   3.094   4.227   5.561
   49PCL    H61  404   3.115   4.382   5.610
   49PCL    H62  405   3.122   4.386   5.353
   49PCL    H63  406   3.239   4.243   5.376
   49PCL    H64  407   3.391   4.463   5.467
   49PCL    H65  408   3.369   4.442   5.294
   49PCL    H66  409   3.167   4.611   5.466
   49PCL    H67  410   3.185   4.588   5.290
   50PCL    C32  411   3.399   4.714   5.498
   50PCL    C33  412   3.526   4.795   5.479
   50PCL    O14  413   3.372   4.656   5.605
   50PCL    C34  414   3.654   4.745   5.535
   50PCL    C35  415   3.665   4.598   5.505
   50PCL    C36  416   3.701   4.579   5.353
   50PCL    C37  417   3.746   4.437   5.331
   50PCL    O15  418   3.874   4.414   5.389
   50PCL    H58  419   3.510   4.893   5.528
   50PCL    H59  420   3.557   4.814   5.373
   50PCL    H60  421   3.732   4.810   5.493
   50PCL    H61  422   3.657   4.754   5.646
   50PCL    H62  423   3.575   4.544   5.542
   50PCL    H63  424   3.747   4.567   5.573
   50PCL    H64  425   3.613   4.589   5.288
   50PCL    H65  426   3.767   4.659   5.312
   50PCL    H66  427   3.747   4.409   5.223
   50PCL    H67  428   3.680   4.367   5.386
   51PCL    C32  429   3.980   4.491   5.329
   51PCL    C33  430   4.104   4.441   5.415
   51PCL    O14  431   3.978   4.562   5.232
   51PCL    C34  432   4.170   4.546   5.502
   51PCL    C35  433   4.066   4.602   5.590
   51PCL    C36  434   4.124   4.727   5.672
   51PCL    C37  435   4.013   4.825   5.724
   51PCL    O15  436   3.927   4.746   5.805
   51PCL    H58  437   4.171   4.398   5.338
   51PCL    H59  438   4.076   4.359   5.484
   51PCL    H60  439   4.249   4.498   5.564
   51PCL    H61  440   4.214   4.628   5.441
   51PCL    H62  441   4.019   4.526   5.656
   51PCL    H63  442   3.980   4.643   5.533
   51PCL    H64  443   4.188   4.698   5.758
   51PCL    H65  444   4.178   4.805   5.613
   51PCL    H66  445   3.970   4.859   5.628
   51PCL    H67  446   4.061   4.898   5.793
   52PCL    C32  447   3.839   4.814   5.882
   52PCL    C33  448   3.738   4.715   5.939
   52PCL    O14  449   3.827   4.934   5.874
   52PCL    C34  450   3.597   4.770   5.978
   52PCL    C35  451   3.606   4.868   6.098
   52PCL    C36  452   3.468   4.902   6.163
   52PCL    C37  453   3.371   4.979   6.067
   52PCL    O15  454   3.235   4.976   6.120
   52PCL    H58  455   3.782   4.658   6.024
   52PCL    H59  456   3.715   4.642   5.858
   52PCL    H60  457   3.575   4.822   5.882
   52PCL    H61  458   3.526   4.685   5.992
   52PCL    H62  459   3.657   4.961   6.067
   52PCL    H63  460   3.669   4.818   6.175
   52PCL    H64  461   3.416   4.807   6.192
   52PCL    H65  462   3.478   4.966   6.254
   52PCL    H66  463   3.374   4.943   5.962
   52PCL    H67  464   3.413   5.081   6.079
   53PCL    C32  465   3.155   5.049   6.045
   53PCL    C33  466   3.025   5.071   6.115
   53PCL    O14  467   3.189   5.114   5.949
   53PCL    C34  468   2.961   4.939   6.165
   53PCL    C35  469   2.919   4.842   6.051
   53PCL    C36  470   2.895   4.699   6.093
   53PCL    C37  471   2.792   4.691   6.202
   53PCL    O15  472   2.797   4.552   6.239
   53PCL    H58  473   2.949   5.122   6.051
   53PCL    H59  474   3.041   5.135   6.203
   53PCL    H60  475   3.033   4.895   6.237
   53PCL    H61  476   2.877   4.973   6.228
   53PCL    H62  477   3.006   4.834   5.983
   53PCL    H63  478   2.834   4.886   5.995
   53PCL    H64  479   2.874   4.638   6.004
   53PCL    H65  480   2.982   4.647   6.140
   53PCL    H66  481   2.697   4.704   6.148
   53PCL    H67  482   2.797   4.769   6.282
   54PCL    C32  483   2.691   4.513   6.332
   54PCL    C33  484   2.691   4.362   6.360
   54PCL    O14  485   2.594   4.586   6.339
   54PCL    C34  486   2.727   4.357   6.504
   54PCL    C35  487   2.880   4.389   6.518
   54PCL    C36  488   2.934   4.371   6.657
   54PCL    C37  489   3.075   4.313   6.644
   54PCL    O15  490   3.165   4.427   6.628
   54PCL    H58  491   2.758   4.309   6.289
   54PCL    H59  492   2.588   4.323   6.352
   54PCL    H60  493   2.664   4.427   6.562
   54PCL    H61  494   2.717   4.252   6.537
   54PCL    H62  495   2.891   4.498   6.500
   54PCL    H63  496   2.946   4.335   6.446
   54PCL    H64  497   2.930   4.462   6.719
   54PCL    H65  498   2.865   4.297   6.702
   54PCL    H66  499   3.084   4.231   6.569
   54PCL    H67  500   3.082   4.265   6.744
   55PCL    C32  501   3.300   4.389   6.635
   55PCL    C33  502   3.377   4.521   6.624
   55PCL    O14  503   3.333   4.287   6.694
   55PCL    C34  504   3.528   4.496   6.604
   55PCL    C35  505   3.576   4.394   6.502
   55PCL    C36  506   3.512   4.393   6.361
   55PCL    C37  507   3.520   4.516   6.283
   55PCL    O15  508   3.451   4.493   6.160
   55PCL    H58  509   3.355   4.583   6.714
   55PCL    H59  510   3.327   4.573   6.540
   55PCL    H60  511   3.580   4.590   6.577
   55PCL    H61  512   3.571   4.460   6.700
   55PCL    H62  513   3.540   4.297   6.546
   55PCL    H63  514   3.687   4.391   6.496
   55PCL    H64  515   3.572   4.321   6.300
   55PCL    H65  516   3.410   4.355   6.384
   55PCL    H66  517   3.626   4.546   6.268
   55PCL    H67  518   3.476   4.605   6.334
   56PCL    C32  519   3.326   4.527   6.159
   56PCL    C33  520   3.258   4.510   6.020
   56PCL    O14  521   3.270   4.593   6.249
   56PCL    C34  522   3.148   4.400   6.005
   56PCL    C35  523   3.210   4.255   6.005
   56PCL    C36  524   3.116   4.151   5.941
   56PCL    C37  525   2.973   4.147   5.980
   56PCL    O15  526   2.963   4.120   6.118
   56PCL    H58  527   3.340   4.499   5.945
   56PCL    H59  528   3.210   4.607   5.995
   56PCL    H60  529   3.074   4.417   6.086
   56PCL    H61  530   3.083   4.432   5.922
   56PCL    H62  531   3.224   4.222   6.111
   56PCL    H63  532   3.303   4.244   5.944
   56PCL    H64  533   3.128   4.189   5.838
   56PCL    H65  534   3.156   4.048   5.951
   56PCL    H66  535   2.928   4.067   5.917
   56PCL    H67  536   2.921   4.245   5.971
   57PCL    C32  537   2.977   3.991   6.162
   57PCL    C33  538   2.943   3.991   6.312
   57PCL    O14  539   3.004   3.889   6.096
   57PCL    C34  540   3.032   3.885   6.397
   57PCL    C35  541   3.177   3.932   6.407
   57PCL    C36  542   3.254   3.838   6.495
   57PCL    C37  543   3.397   3.886   6.523
   57PCL    O15  544   3.488   3.893   6.408
   57PCL    H58  545   2.835   3.963   6.319
   57PCL    H59  546   2.950   4.096   6.346
   57PCL    H60  547   2.997   3.878   6.501
   57PCL    H61  548   3.025   3.782   6.357
   57PCL    H62  549   3.169   4.032   6.457
   57PCL    H63  550   3.233   3.950   6.313
   57PCL    H64  551   3.191   3.815   6.583
   57PCL    H65  552   3.273   3.744   6.437
   57PCL    H66  553   3.441   3.824   6.604
   57PCL    H67  554   3.384   3.990   6.557
   58PCL    C32  555   3.609   3.949   6.425
   58PCL    C33  556   3.675   3.958   6.293
   58PCL    O14  557   3.654   3.986   6.534
   58PCL    C34  558   3.815   4.013   6.316
   58PCL    C35  559   3.824   4.162   6.334
   58PCL    C36  560   3.963   4.227   6.358
   58PCL    C37  561   3.981   4.370   6.312
   58PCL    O15  562   3.971   4.385   6.165
   58PCL    H58  563   3.615   3.997   6.207
   58PCL    H59  564   3.693   3.855   6.257
   58PCL    H60  565   3.861   3.960   6.402
   58PCL    H61  566   3.880   3.995   6.227
   58PCL    H62  567   3.750   4.196   6.411
   58PCL    H63  568   3.781   4.193   6.237
   58PCL    H64  569   3.987   4.229   6.467
   58PCL    H65  570   4.032   4.159   6.304
   58PCL    H66  571   4.076   4.425   6.329
   58PCL    H67  572   3.899   4.424   6.362
   59PCL    C32  573   4.085   4.370   6.093
   59PCL    C33  574   4.056   4.424   5.956
   59PCL    O14  575   4.196   4.346   6.142
   59PCL    C34  576   3.967   4.329   5.877
   59PCL    C35  577   3.832   4.387   5.853
   59PCL    C36  578   3.734   4.305   5.785
   59PCL    C37  579   3.698   4.171   5.850
   59PCL    O15  580   3.808   4.076   5.835
   59PCL    H58  581   4.157   4.440   5.912
   59PCL    H59  582   4.017   4.527   5.972
   59PCL    H60  583   4.021   4.305   5.782
   59PCL    H61  584   3.950   4.229   5.921
   59PCL    H62  585   3.843   4.480   5.792
   59PCL    H63  586   3.785   4.405   5.952
   59PCL    H64  587   3.653   4.380   5.783
   59PCL    H65  588   3.758   4.288   5.678
   59PCL    H66  589   3.614   4.132   5.789
   59PCL    H67  590   3.664   4.182   5.955
   60CLO    C44  591   3.766   3.953   5.855
   60CLO    C45  592   3.884   3.870   5.911
   60CLO    O18  593   3.658   3.926   5.891
   60CLO    C46  594   3.952   3.783   5.799
   60CLO    C47  595   4.058   3.860   5.710
   60CLO    C48  596   4.171   3.933   5.788
   60CLO    C49  597   4.266   3.840   5.864
   60CLO    O19  598   4.345   3.778   5.763
   60CLO    H78  599   3.841   3.802   5.987
   60CLO    H79  600   3.955   3.938   5.963
   60CLO    H80  601   4.014   3.704   5.845
   60CLO    H81  602   3.887   3.726   5.731
   60CLO    H82  603   4.101   3.797   5.629
   60CLO    H83  604   4.001   3.942   5.663
   60CLO    H84  605   4.120   4.008   5.851
   60CLO    H85  606   4.237   3.990   5.720
   60CLO    H86  607   4.327   3.891   5.940
   60CLO    H87  608   4.207   3.761   5.912
   60CLO    H88  609   4.297   3.697   5.747
    1FUL     C1  610   5.176   7.803   6.627
    1FUL     C2  611   5.229   7.892   6.512
    1FUL     C3  612   5.224   7.815   6.379
    1FUL     C4  613   5.329   7.702   6.374
    1FUL     C5  614   5.473   7.752   6.403
    1FUL     C6  615   5.581   7.645   6.398
    1FUL     C7  616   5.581   7.554   6.299
    1FUL     C8  617   5.675   7.459   6.289
    1FUL     C9  618   5.775   7.452   6.378
    1FUL     O1  619   5.871   7.356   6.370
    1FUL    C10  620   5.776   7.544   6.476
    1FUL    C11  621   5.683   7.640   6.487
    1FUL    C12  622   5.697   7.740   6.600
    1FUL    C13  623   5.619   7.870   6.577
    1FUL    C14  624   5.691   7.973   6.487
    1FUL    C15  625   5.773   7.921   6.367
    1FUL    C16  626   5.838   8.036   6.288
    1FUL    C17  627   5.923   7.984   6.171
    1FUL    C18  628   5.985   8.099   6.090
    1FUL    C19  629   6.075   8.047   5.976
    1FUL    C20  630   6.134   8.162   5.893
    1FUL    C21  631   6.228   8.111   5.783
    1FUL    C22  632   6.285   8.226   5.699
    1FUL      S  633   6.391   8.175   5.567
    1FUL     O2  634   6.414   8.270   5.459
    1FUL    C23  635   6.535   8.098   5.637
    1FUL    C24  636   6.635   8.047   5.532
    1FUL    C25  637   6.759   7.982   5.597
    1FUL    C26  638   6.858   7.930   5.498
    1FUL     F1  639   6.899   8.028   5.419
    1FUL     F2  640   6.801   7.840   5.419
    1FUL    C27  641   6.978   7.867   5.562
    1FUL     F3  642   6.943   7.767   5.639
    1FUL     F4  643   7.064   7.821   5.476
    1FUL     F5  644   7.040   7.952   5.639
    1FUL    C28  645   5.476   7.830   6.536
    1FUL    C29  646   5.374   7.944   6.530
    1FUL    C30  647   5.363   8.043   6.646
    1FUL    C31  648   5.225   8.109   6.624
    1FUL    C32  649   5.156   8.028   6.513
    1FUL     O3  650   5.018   8.015   6.536
    1FUL     H1  651   5.072   7.771   6.607
    1FUL     H2  652   5.234   7.710   6.641
    1FUL     H3  653   5.176   7.856   6.725
    1FUL     H4  654   5.122   7.774   6.363
    1FUL     H5  655   5.244   7.885   6.294
    1FUL     H6  656   5.322   7.656   6.273
    1FUL     H7  657   5.303   7.622   6.446
    1FUL     H8  658   5.497   7.824   6.321
    1FUL     H9  659   5.503   7.555   6.221
    1FUL    H10  660   5.671   7.386   6.206
    1FUL    H11  661   5.935   7.369   6.443
    1FUL    H12  662   5.859   7.540   6.549
    1FUL    H13  663   5.804   7.765   6.619
    1FUL    H14  664   5.660   7.689   6.692
    1FUL    H15  665   5.609   7.920   6.677
    1FUL    H16  666   5.764   8.028   6.552
    1FUL    H17  667   5.619   8.050   6.452
    1FUL    H18  668   5.708   7.864   6.298
    1FUL    H19  669   5.853   7.853   6.403
    1FUL    H20  670   5.902   8.097   6.356
    1FUL    H21  671   5.758   8.103   6.249
    1FUL    H22  672   5.859   7.921   6.104
    1FUL    H23  673   6.004   7.919   6.211
    1FUL    H24  674   6.045   8.164   6.158
    1FUL    H25  675   5.903   8.162   6.047
    1FUL    H26  676   6.015   7.980   5.909
    1FUL    H27  677   6.157   7.986   6.020
    1FUL    H28  678   6.191   8.231   5.961
    1FUL    H29  679   6.051   8.221   5.847
    1FUL    H30  680   6.172   8.041   5.716
    1FUL    H31  681   6.311   8.053   5.830
    1FUL    H32  682   6.342   8.297   5.765
    1FUL    H33  683   6.201   8.284   5.654
    1FUL    H34  684   6.502   8.012   5.701
    1FUL    H35  685   6.585   8.172   5.704
    1FUL    H36  686   6.668   8.132   5.468
    1FUL    H37  687   6.584   7.973   5.465
    1FUL    H38  688   6.724   7.898   5.662
    1FUL    H39  689   6.808   8.057   5.663
    1FUL    H40  690   5.442   7.760   6.616
    1FUL    H41  691   5.400   8.005   6.440
    1FUL    H42  692   5.446   8.118   6.646
    1FUL    H43  693   5.366   7.989   6.743
    1FUL    H44  694   5.166   8.106   6.718
    1FUL    H45  695   5.235   8.215   6.594
    1FUL    H46  696   5.168   8.079   6.415
    1FUL    H47  697   4.979   7.962   6.465
   8.00000   8.00000   8.00000
