; Created by cgenff_charmm2gmx.py

[ moleculetype ]
; Name			   nrexcl
PTX				 3

[ atoms ]
;	 nr		  type	resnr residue  atom   cgnr	   charge		mass  typeB    chargeB		massB
; residue	 1 PTX rtp PTX q	qsum
     1      CG331      1    PTL     C1      1     -0.273     12.011   ;
     2      CG321      1    PTL     C2      2     -0.177     12.011   ;
     3      CG321      1    PTL     C3      3     -0.181     12.011   ;
     4      CG321      1    PTL     C4      4     -0.179     12.011   ;
     5      CG321      1    PTL     C5      5     -0.180     12.011   ;
     6      CG321      1    PTL     C6      6     -0.180     12.011   ;
     7      CG321      1    PTL     C7      7     -0.180     12.011   ;
     8      CG321      1    PTL     C8      8     -0.180     12.011   ;
     9      CG321      1    PTL     C9      9     -0.180     12.011   ;
    10      CG321      1    PTL    C10     10     -0.180     12.011   ;
    11      CG321      1    PTL    C11     11     -0.180     12.011   ;
    12      CG321      1    PTL    C12     12     -0.180     12.011   ;
    13      CG321      1    PTL    C13     13     -0.180     12.011   ;
    14      CG321      1    PTL    C14     14     -0.180     12.011   ;
    15      CG321      1    PTL    C15     15     -0.180     12.011   ;
    16      CG321      1    PTL    C16     16     -0.180     12.011   ;
    17      CG321      1    PTL    C17     17     -0.180     12.011   ;
    18      CG321      1    PTL    C18     18      0.036     12.011   ;
    19      CG301      1    PTL    C19     19      0.379     12.011   ;
    20      CG331      1    PTL    C20     20     -0.269     12.011   ;
    21      CG331      1    PTL    C21     21     -0.269     12.011   ;
    22      OG301      1    PTL     O1     22     -0.402     15.999   ;
    23       HGA3      1    PTL     H1     23      0.090      1.008   ;
    24       HGA3      1    PTL     H2     24      0.090      1.008   ;
    25       HGA3      1    PTL     H3     25      0.090      1.008   ;
    26       HGA2      1    PTL     H4     26      0.090      1.008   ;
    27       HGA2      1    PTL     H5     27      0.090      1.008   ;
    28       HGA2      1    PTL     H6     28      0.090      1.008   ;
    29       HGA2      1    PTL     H7     29      0.090      1.008   ;
    30       HGA2      1    PTL     H8     30      0.090      1.008   ;
    31       HGA2      1    PTL     H9     31      0.090      1.008   ;
    32       HGA2      1    PTL    H10     32      0.090      1.008   ;
    33       HGA2      1    PTL    H11     33      0.090      1.008   ;
    34       HGA2      1    PTL    H12     34      0.090      1.008   ;
    35       HGA2      1    PTL    H13     35      0.090      1.008   ;
    36       HGA2      1    PTL    H14     36      0.090      1.008   ;
    37       HGA2      1    PTL    H15     37      0.090      1.008   ;
    38       HGA2      1    PTL    H16     38      0.090      1.008   ;
    39       HGA2      1    PTL    H17     39      0.090      1.008   ;
    40       HGA2      1    PTL    H18     40      0.090      1.008   ;
    41       HGA2      1    PTL    H19     41      0.090      1.008   ;
    42       HGA2      1    PTL    H20     42      0.090      1.008   ;
    43       HGA2      1    PTL    H21     43      0.090      1.008   ;
    44       HGA2      1    PTL    H22     44      0.090      1.008   ;
    45       HGA2      1    PTL    H23     45      0.090      1.008   ;
    46       HGA2      1    PTL    H24     46      0.090      1.008   ;
    47       HGA2      1    PTL    H25     47      0.090      1.008   ;
    48       HGA2      1    PTL    H26     48      0.090      1.008   ;
    49       HGA2      1    PTL    H27     49      0.090      1.008   ;
    50       HGA2      1    PTL    H28     50      0.090      1.008   ;
    51       HGA2      1    PTL    H29     51      0.090      1.008   ;
    52       HGA2      1    PTL    H30     52      0.090      1.008   ;
    53       HGA2      1    PTL    H31     53      0.090      1.008   ;
    54       HGA2      1    PTL    H32     54      0.090      1.008   ;
    55       HGA2      1    PTL    H33     55      0.090      1.008   ;
    56       HGA2      1    PTL    H34     56      0.090      1.008   ;
    57       HGA2      1    PTL    H35     57      0.090      1.008   ;
    58       HGA2      1    PTL    H36     58      0.090      1.008   ;
    59       HGA2      1    PTL    H37     59      0.090      1.008   ;
    60       HGA3      1    PTL    H38     60      0.090      1.008   ;
    61       HGA3      1    PTL    H39     61      0.090      1.008   ;
    62       HGA3      1    PTL    H40     62      0.090      1.008   ;
    63       HGA3      1    PTL    H41     63      0.090      1.008   ;
    64       HGA3      1    PTL    H42     64      0.090      1.008   ;
    65       HGA3      1    PTL    H43     65      0.090      1.008   ;
    66      NG2S1      1    PTX      N     66     -0.405     14.007   ;
    67      CG311      1    PTX    C22     67      0.175     12.011   ;
    68      CG321      1    PTX    C23     68     -0.212     12.011   ;
    69     CG3RC1      1    PTX    C24     69      0.020     12.011   ;
    70     CG3C41      1    PTX    C25     70     -0.106     12.011   ;
    71     CG3RC1      1    PTX    C26     71      0.366     12.011   ;
    72      CG2O2      1    PTX    C27     72      0.885     12.011   ;
    73      CG331      1    PTX    C28     73     -0.313     12.011   ;
    74      CG311      1    PTX    C29     74     -0.074     12.011   ;
    75      CG311      1    PTX    C30     75      0.133     12.011   ;
    76      CG2O2      1    PTX    C31     76      0.459     12.011   ;
    77     CG2R61      1    PTX    C32     77      0.086     12.011   ;
    78     CG2R61      1    PTX    C33     78     -0.110     12.011   ;
    79     CG2R61      1    PTX    C34     79     -0.114     12.011   ;
    80     CG2R61      1    PTX    C35     80     -0.115     12.011   ;
    81     CG2R61      1    PTX    C36     81     -0.114     12.011   ;
    82     CG2R61      1    PTX    C37     82     -0.110     12.011   ;
    83      CG301      1    PTX    C38     83      0.186     12.011   ;
    84      CG321      1    PTX    C39     84     -0.212     12.011   ;
    85      CG311      1    PTX    C40     85      0.272     12.011   ;
    86      CG2O2      1    PTX    C41     86      0.853     12.011   ;
    87      CG311      1    PTX    C42     87      0.124     12.011   ;
    88      CG311      1    PTX    C43     88      0.118     12.011   ;
    89      CG2O1      1    PTX    C44     89      0.341     12.011   ;
    90     CG2R61      1    PTX    C45     90     -0.137     12.011   ;
    91     CG2R61      1    PTX    C46     91     -0.024     12.011   ;
    92     CG2R61      1    PTX    C47     92     -0.109     12.011   ;
    93     CG2R61      1    PTX    C48     93     -0.115     12.011   ;
    94     CG2R61      1    PTX    C49     94     -0.109     12.011   ;
    95     CG2R61      1    PTX    C50     95     -0.024     12.011   ;
    96     CG2R61      1    PTX    C51     96     -0.040     12.011   ;
    97     CG2R61      1    PTX    C52     97     -0.106     12.011   ;
    98     CG2R61      1    PTX    C53     98     -0.115     12.011   ;
    99     CG2R61      1    PTX    C54     99     -0.115     12.011   ;
   100     CG2R61      1    PTX    C55    100     -0.115     12.011   ;
   101     CG2R61      1    PTX    C56    101     -0.106     12.011   ;
   102      CG2D1      1    PTX    C57    102     -0.153     12.011   ;
   103      CG331      1    PTX    C58    103     -0.265     12.011   ;
   104      CG2D1      1    PTX    C59    104     -0.113     12.011   ;
   105      CG311      1    PTX    C60    105      0.432     12.011   ;
   106      CG2O2      1    PTX    C61    106      0.834     12.011   ;
   107      CG331      1    PTX    C62    107     -0.311     12.011   ;
   108      CG2O5      1    PTX    C63    108      0.300     12.011   ;
   109      CG301      1    PTX    C64    109      0.088     12.011   ;
   110      CG331      1    PTX    C65    110     -0.263     12.011   ;
   111      CG301      1    PTX    C66    111      0.016     12.011   ;
   112      CG331      1    PTX    C67    112     -0.269     12.011   ;
   113      CG331      1    PTX    C68    113     -0.269     12.011   ;
   114      OG301      1    PTX     O2    114     -0.450     15.999   ;
   115     OG3C51      1    PTX     O3    115     -0.343     15.999   ;
   116      OG302      1    PTX     O4    116     -0.422     15.999   ;
   117      OG2D1      1    PTX     O5    117     -0.617     15.999   ;
   118      OG302      1    PTX     O6    118     -0.310     15.999   ;
   119      OG2D1      1    PTX     O7    119     -0.496     15.999   ;
   120      OG311      1    PTX     O8    120     -0.460     15.999   ;
   121      OG302      1    PTX     O9    121     -0.419     15.999   ;
   122      OG2D1      1    PTX    O10    122     -0.628     15.999   ;
   123      OG311      1    PTX    O11    123     -0.662     15.999   ;
   124      OG2D1      1    PTX    O12    124     -0.458     15.999   ;
   125      OG302      1    PTX    O13    125     -0.427     15.999   ;
   126      OG2D1      1    PTX    O14    126     -0.625     15.999   ;
   127      OG2D3      1    PTX    O15    127     -0.515     15.999   ;
   128       HGA1      1    PTX    H44    128      0.090      1.008   ;
   129       HGA2      1    PTX    H45    129      0.090      1.008   ;
   130       HGA2      1    PTX    H46    130      0.090      1.008   ;
   131       HGA1      1    PTX    H47    131      0.090      1.008   ;
   132       HGA2      1    PTX    H48    132      0.090      1.008   ;
   133       HGA2      1    PTX    H49    133      0.090      1.008   ;
   134       HGA3      1    PTX    H50    134      0.090      1.008   ;
   135       HGA3      1    PTX    H51    135      0.090      1.008   ;
   136       HGA3      1    PTX    H52    136      0.090      1.008   ;
   137       HGA1      1    PTX    H53    137      0.090      1.008   ;
   138       HGA1      1    PTX    H54    138      0.090      1.008   ;
   139      HGR61      1    PTX    H55    139      0.115      1.008   ;
   140      HGR61      1    PTX    H56    140      0.115      1.008   ;
   141      HGR61      1    PTX    H57    141      0.115      1.008   ;
   142      HGR61      1    PTX    H58    142      0.115      1.008   ;
   143      HGR61      1    PTX    H59    143      0.115      1.008   ;
   144       HGP1      1    PTX    H60    144      0.292      1.008   ;
   145       HGA2      1    PTX    H61    145      0.090      1.008   ;
   146       HGA2      1    PTX    H62    146      0.090      1.008   ;
   147       HGA1      1    PTX    H63    147      0.090      1.008   ;
   148       HGA1      1    PTX    H64    148      0.090      1.008   ;
   149       HGP1      1    PTX    H65    149      0.421      1.008   ;
   150       HGA1      1    PTX    H66    150      0.090      1.008   ;
   151       HGP1      1    PTX    H67    151      0.274      1.008   ;
   152      HGR61      1    PTX    H68    152      0.115      1.008   ;
   153      HGR61      1    PTX    H69    153      0.115      1.008   ;
   154      HGR61      1    PTX    H70    154      0.115      1.008   ;
   155      HGR61      1    PTX    H71    155      0.115      1.008   ;
   156      HGR61      1    PTX    H72    156      0.115      1.008   ;
   157      HGR61      1    PTX    H73    157      0.115      1.008   ;
   158      HGR61      1    PTX    H74    158      0.115      1.008   ;
   159      HGR61      1    PTX    H75    159      0.115      1.008   ;
   160      HGR61      1    PTX    H76    160      0.115      1.008   ;
   161      HGR61      1    PTX    H77    161      0.115      1.008   ;
   162       HGA3      1    PTX    H78    162      0.090      1.008   ;
   163       HGA3      1    PTX    H79    163      0.090      1.008   ;
   164       HGA3      1    PTX    H80    164      0.090      1.008   ;
   165       HGA1      1    PTX    H81    165      0.090      1.008   ;
   166       HGA3      1    PTX    H82    166      0.090      1.008   ;
   167       HGA3      1    PTX    H83    167      0.090      1.008   ;
   168       HGA3      1    PTX    H84    168      0.090      1.008   ;
   169       HGA3      1    PTX    H85    169      0.090      1.008   ;
   170       HGA3      1    PTX    H86    170      0.090      1.008   ;
   171       HGA3      1    PTX    H87    171      0.090      1.008   ;
   172       HGA3      1    PTX    H88    172      0.090      1.008   ;
   173       HGA3      1    PTX    H89    173      0.090      1.008   ;
   174       HGA3      1    PTX    H90    174      0.090      1.008   ;
   175       HGA3      1    PTX    H91    175      0.090      1.008   ;
   176       HGA3      1    PTX    H92    176      0.090      1.008   ;
   177       HGA3      1    PTX    H93    177      0.090      1.008   ;

[ bonds ]
;	ai	  aj funct			  c0			c1			  c2			c3
    1     2	 1 ;       CG331      CG321
    1    23	 1 ;       CG331       HGA3
    1    24	 1 ;       CG331       HGA3
    1    25	 1 ;       CG331       HGA3
    2     3	 1 ;       CG321      CG321
    2    26	 1 ;       CG321       HGA2
    2    27	 1 ;       CG321       HGA2
    3     4	 1 ;       CG321      CG321
    3    28	 1 ;       CG321       HGA2
    3    29	 1 ;       CG321       HGA2
    4     5	 1 ;       CG321      CG321
    4    30	 1 ;       CG321       HGA2
    4    31	 1 ;       CG321       HGA2
    5     6	 1 ;       CG321      CG321
    5    32	 1 ;       CG321       HGA2
    5    33	 1 ;       CG321       HGA2
    6     7	 1 ;       CG321      CG321
    6    34	 1 ;       CG321       HGA2
    6    35	 1 ;       CG321       HGA2
    7     8	 1 ;       CG321      CG321
    7    36	 1 ;       CG321       HGA2
    7    37	 1 ;       CG321       HGA2
    8     9	 1 ;       CG321      CG321
    8    38	 1 ;       CG321       HGA2
    8    39	 1 ;       CG321       HGA2
    9    10	 1 ;       CG321      CG321
    9    40	 1 ;       CG321       HGA2
    9    41	 1 ;       CG321       HGA2
   10    11	 1 ;       CG321      CG321
   10    42	 1 ;       CG321       HGA2
   10    43	 1 ;       CG321       HGA2
   11    12	 1 ;       CG321      CG321
   11    44	 1 ;       CG321       HGA2
   11    45	 1 ;       CG321       HGA2
   12    13	 1 ;       CG321      CG321
   12    46	 1 ;       CG321       HGA2
   12    47	 1 ;       CG321       HGA2
   13    14	 1 ;       CG321      CG321
   13    48	 1 ;       CG321       HGA2
   13    49	 1 ;       CG321       HGA2
   14    15	 1 ;       CG321      CG321
   14    50	 1 ;       CG321       HGA2
   14    51	 1 ;       CG321       HGA2
   15    16	 1 ;       CG321      CG321
   15    52	 1 ;       CG321       HGA2
   15    53	 1 ;       CG321       HGA2
   16    17	 1 ;       CG321      CG321
   16    54	 1 ;       CG321       HGA2
   16    55	 1 ;       CG321       HGA2
   17    18	 1 ;       CG321      CG321
   17    56	 1 ;       CG321       HGA2
   17    57	 1 ;       CG321       HGA2
   18    22	 1 ;       CG321      OG301
   18    58	 1 ;       CG321       HGA2
   18    59	 1 ;       CG321       HGA2
   19    20	 1 ;       CG301      CG331
   19    21	 1 ;       CG301      CG331
   19   114	 1 ;       CG301      OG301
   19    22	 1 ;       CG301      OG301
   20    60	 1 ;       CG331       HGA3
   20    61	 1 ;       CG331       HGA3
   20    62	 1 ;       CG331       HGA3
   21    63	 1 ;       CG331       HGA3
   21    64	 1 ;       CG331       HGA3
   21    65	 1 ;       CG331       HGA3
   66    89	 1 ;       NG2S1      CG2O1
   66   151	 1 ;       NG2S1       HGP1
   66    88	 1 ;       NG2S1      CG311
   67    68	 1 ;       CG311      CG321
   67   109	 1 ;       CG311      CG301
   67   128	 1 ;       CG311       HGA1
   67   114	 1 ;       CG311      OG301
   68    69	 1 ;       CG321     CG3RC1
   68   129	 1 ;       CG321       HGA2
   68   130	 1 ;       CG321       HGA2
   69    71	 1 ;      CG3RC1     CG3RC1
   69   115	 1 ;      CG3RC1     OG3C51
   69   131	 1 ;      CG3RC1       HGA1
   70    71	 1 ;      CG3C41     CG3RC1
   70   132	 1 ;      CG3C41       HGA2
   70   133	 1 ;      CG3C41       HGA2
   70   115	 1 ;      CG3C41     OG3C51
   71    74	 1 ;      CG3RC1      CG311
   71   116	 1 ;      CG3RC1      OG302
   72    73	 1 ;       CG2O2      CG331
   72   117	 1 ;       CG2O2      OG2D1
   72   116	 1 ;       CG2O2      OG302
   73   134	 1 ;       CG331       HGA3
   73   135	 1 ;       CG331       HGA3
   73   136	 1 ;       CG331       HGA3
   74    75	 1 ;       CG311      CG311
   74   109	 1 ;       CG311      CG301
   74   137	 1 ;       CG311       HGA1
   75    83	 1 ;       CG311      CG301
   75   118	 1 ;       CG311      OG302
   75   138	 1 ;       CG311       HGA1
   76    77	 1 ;       CG2O2     CG2R61
   76   119	 1 ;       CG2O2      OG2D1
   76   118	 1 ;       CG2O2      OG302
   77    78	 1 ;      CG2R61     CG2R61
   77    82	 1 ;      CG2R61     CG2R61
   78    79	 1 ;      CG2R61     CG2R61
   78   139	 1 ;      CG2R61      HGR61
   79    80	 1 ;      CG2R61     CG2R61
   79   140	 1 ;      CG2R61      HGR61
   80    81	 1 ;      CG2R61     CG2R61
   80   141	 1 ;      CG2R61      HGR61
   81    82	 1 ;      CG2R61     CG2R61
   81   142	 1 ;      CG2R61      HGR61
   82   143	 1 ;      CG2R61      HGR61
   83    84	 1 ;       CG301      CG321
   83   111	 1 ;       CG301      CG301
   83   120	 1 ;       CG301      OG311
   84    85	 1 ;       CG321      CG311
   84   145	 1 ;       CG321       HGA2
   84   146	 1 ;       CG321       HGA2
   85   102	 1 ;       CG311      CG2D1
   85   121	 1 ;       CG311      OG302
   85   147	 1 ;       CG311       HGA1
   86    87	 1 ;       CG2O2      CG311
   86   122	 1 ;       CG2O2      OG2D1
   86   121	 1 ;       CG2O2      OG302
   87    88	 1 ;       CG311      CG311
   87   123	 1 ;       CG311      OG311
   87   148	 1 ;       CG311       HGA1
   88    96	 1 ;       CG311     CG2R61
   88   150	 1 ;       CG311       HGA1
   89    90	 1 ;       CG2O1     CG2R61
   89   124	 1 ;       CG2O1      OG2D1
   90    91	 1 ;      CG2R61     CG2R61
   90    95	 1 ;      CG2R61     CG2R61
   91    92	 1 ;      CG2R61     CG2R61
   91   152	 1 ;      CG2R61      HGR61
   92    93	 1 ;      CG2R61     CG2R61
   92   153	 1 ;      CG2R61      HGR61
   93    94	 1 ;      CG2R61     CG2R61
   93   154	 1 ;      CG2R61      HGR61
   94    95	 1 ;      CG2R61     CG2R61
   94   155	 1 ;      CG2R61      HGR61
   95   156	 1 ;      CG2R61      HGR61
   96    97	 1 ;      CG2R61     CG2R61
   96   101	 1 ;      CG2R61     CG2R61
   97    98	 1 ;      CG2R61     CG2R61
   97   157	 1 ;      CG2R61      HGR61
   98    99	 1 ;      CG2R61     CG2R61
   98   158	 1 ;      CG2R61      HGR61
   99   100	 1 ;      CG2R61     CG2R61
   99   159	 1 ;      CG2R61      HGR61
  100   101	 1 ;      CG2R61     CG2R61
  100   160	 1 ;      CG2R61      HGR61
  101   161	 1 ;      CG2R61      HGR61
  102   103	 1 ;       CG2D1      CG331
  102   104	 1 ;       CG2D1      CG2D1
  103   162	 1 ;       CG331       HGA3
  103   163	 1 ;       CG331       HGA3
  103   164	 1 ;       CG331       HGA3
  104   105	 1 ;       CG2D1      CG311
  104   111	 1 ;       CG2D1      CG301
  105   108	 1 ;       CG311      CG2O5
  105   125	 1 ;       CG311      OG302
  105   165	 1 ;       CG311       HGA1
  106   107	 1 ;       CG2O2      CG331
  106   126	 1 ;       CG2O2      OG2D1
  106   125	 1 ;       CG2O2      OG302
  107   166	 1 ;       CG331       HGA3
  107   167	 1 ;       CG331       HGA3
  107   168	 1 ;       CG331       HGA3
  108   109	 1 ;       CG2O5      CG301
  108   127	 1 ;       CG2O5      OG2D3
  109   110	 1 ;       CG301      CG331
  110   169	 1 ;       CG331       HGA3
  110   170	 1 ;       CG331       HGA3
  110   171	 1 ;       CG331       HGA3
  111   112	 1 ;       CG301      CG331
  111   113	 1 ;       CG301      CG331
  112   172	 1 ;       CG331       HGA3
  112   173	 1 ;       CG331       HGA3
  112   174	 1 ;       CG331       HGA3
  113   175	 1 ;       CG331       HGA3
  113   176	 1 ;       CG331       HGA3
  113   177	 1 ;       CG331       HGA3
  120   144	 1 ;       OG311       HGP1
  123   149	 1 ;       OG311       HGP1

[ pairs ]
;	ai	  aj funct			  c0			c1			  c2			c3
    1     4	 1
    1    28	 1
    1    29	 1
    2     5	 1
    2    30	 1
    2    31	 1
    3    23	 1
    3    24	 1
    3    25	 1
    3     6	 1
    3    32	 1
    3    33	 1
    4    26	 1
    4    27	 1
    4     7	 1
    4    34	 1
    4    35	 1
    5    28	 1
    5    29	 1
    5     8	 1
    5    36	 1
    5    37	 1
    6    30	 1
    6    31	 1
    6     9	 1
    6    38	 1
    6    39	 1
    7    32	 1
    7    33	 1
    7    10	 1
    7    40	 1
    7    41	 1
    8    34	 1
    8    35	 1
    8    11	 1
    8    42	 1
    8    43	 1
    9    36	 1
    9    37	 1
    9    12	 1
    9    44	 1
    9    45	 1
   10    38	 1
   10    39	 1
   10    13	 1
   10    46	 1
   10    47	 1
   11    40	 1
   11    41	 1
   11    14	 1
   11    48	 1
   11    49	 1
   12    42	 1
   12    43	 1
   12    15	 1
   12    50	 1
   12    51	 1
   13    44	 1
   13    45	 1
   13    16	 1
   13    52	 1
   13    53	 1
   14    46	 1
   14    47	 1
   14    17	 1
   14    54	 1
   14    55	 1
   15    48	 1
   15    49	 1
   15    18	 1
   15    56	 1
   15    57	 1
   16    50	 1
   16    51	 1
   16    22	 1
   16    58	 1
   16    59	 1
   17    52	 1
   17    53	 1
   17    19	 1
   18    54	 1
   18    55	 1
   18    20	 1
   18    21	 1
   18   114	 1
   19    58	 1
   19    59	 1
   19    68	 1
   19   109	 1
   19   128	 1
   20    63	 1
   20    64	 1
   20    65	 1
   20    67	 1
   21    60	 1
   21    61	 1
   21    62	 1
   21    67	 1
   22    56	 1
   22    57	 1
   22    60	 1
   22    61	 1
   22    62	 1
   22    63	 1
   22    64	 1
   22    65	 1
   22    67	 1
   23    26	 1
   23    27	 1
   24    26	 1
   24    27	 1
   25    26	 1
   25    27	 1
   26    28	 1
   26    29	 1
   27    28	 1
   27    29	 1
   28    30	 1
   28    31	 1
   29    30	 1
   29    31	 1
   30    32	 1
   30    33	 1
   31    32	 1
   31    33	 1
   32    34	 1
   32    35	 1
   33    34	 1
   33    35	 1
   34    36	 1
   34    37	 1
   35    36	 1
   35    37	 1
   36    38	 1
   36    39	 1
   37    38	 1
   37    39	 1
   38    40	 1
   38    41	 1
   39    40	 1
   39    41	 1
   40    42	 1
   40    43	 1
   41    42	 1
   41    43	 1
   42    44	 1
   42    45	 1
   43    44	 1
   43    45	 1
   44    46	 1
   44    47	 1
   45    46	 1
   45    47	 1
   46    48	 1
   46    49	 1
   47    48	 1
   47    49	 1
   48    50	 1
   48    51	 1
   49    50	 1
   49    51	 1
   50    52	 1
   50    53	 1
   51    52	 1
   51    53	 1
   52    54	 1
   52    55	 1
   53    54	 1
   53    55	 1
   54    56	 1
   54    57	 1
   55    56	 1
   55    57	 1
   56    58	 1
   56    59	 1
   57    58	 1
   57    59	 1
   60   114	 1
   61   114	 1
   62   114	 1
   63   114	 1
   64   114	 1
   65   114	 1
   66    86	 1
   66   123	 1
   66   148	 1
   66    97	 1
   66   101	 1
   66    91	 1
   66    95	 1
   67    71	 1
   67   115	 1
   67   131	 1
   67    75	 1
   67   137	 1
   67   105	 1
   67   127	 1
   67   169	 1
   67   170	 1
   67   171	 1
   68    74	 1
   68   108	 1
   68   110	 1
   68    70	 1
   68   116	 1
   69   109	 1
   69   128	 1
   69   114	 1
   69   132	 1
   69   133	 1
   69    75	 1
   69   137	 1
   69    72	 1
   70   131	 1
   70    75	 1
   70   109	 1
   70   137	 1
   70    72	 1
   71   129	 1
   71   130	 1
   71    73	 1
   71   117	 1
   71    83	 1
   71   118	 1
   71   138	 1
   71   108	 1
   71   110	 1
   72    74	 1
   74   128	 1
   74   114	 1
   74   115	 1
   74   131	 1
   74   132	 1
   74   133	 1
   74    84	 1
   74   111	 1
   74   120	 1
   74    76	 1
   74   105	 1
   74   127	 1
   74   169	 1
   74   170	 1
   74   171	 1
   75   116	 1
   75   108	 1
   75   110	 1
   75    77	 1
   75   119	 1
   75    85	 1
   75   145	 1
   75   146	 1
   75   104	 1
   75   112	 1
   75   113	 1
   75   144	 1
   76    83	 1
   76   138	 1
   76    79	 1
   76   139	 1
   76    81	 1
   76   143	 1
   77    80	 1
   77   140	 1
   77   142	 1
   78   119	 1
   78   118	 1
   78    81	 1
   78   143	 1
   78   141	 1
   79    82	 1
   79   142	 1
   80   139	 1
   80   143	 1
   81   140	 1
   82   119	 1
   82   118	 1
   82   139	 1
   82   141	 1
   83   109	 1
   83   137	 1
   83   102	 1
   83   121	 1
   83   147	 1
   83   105	 1
   83   172	 1
   83   173	 1
   83   174	 1
   83   175	 1
   83   176	 1
   83   177	 1
   84   118	 1
   84   138	 1
   84   104	 1
   84   112	 1
   84   113	 1
   84   144	 1
   84   103	 1
   84    86	 1
   85   111	 1
   85   120	 1
   85    87	 1
   85   122	 1
   85   162	 1
   85   163	 1
   85   164	 1
   85   105	 1
   86   102	 1
   86   147	 1
   86    96	 1
   86   150	 1
   86   149	 1
   87    89	 1
   87   151	 1
   87    97	 1
   87   101	 1
   88    90	 1
   88   124	 1
   88   122	 1
   88   121	 1
   88   149	 1
   88    98	 1
   88   157	 1
   88   100	 1
   88   161	 1
   89    96	 1
   89   150	 1
   89    92	 1
   89   152	 1
   89    94	 1
   89   156	 1
   90   151	 1
   90    93	 1
   90   153	 1
   90   155	 1
   91   124	 1
   91    94	 1
   91   156	 1
   91   154	 1
   92    95	 1
   92   155	 1
   93   152	 1
   93   156	 1
   94   153	 1
   95   124	 1
   95   152	 1
   95   154	 1
   96   151	 1
   96   123	 1
   96   148	 1
   96    99	 1
   96   158	 1
   96   160	 1
   97   150	 1
   97   100	 1
   97   161	 1
   97   159	 1
   98   101	 1
   98   160	 1
   99   157	 1
   99   161	 1
  100   158	 1
  101   150	 1
  101   157	 1
  101   159	 1
  102   145	 1
  102   146	 1
  102   108	 1
  102   125	 1
  102   165	 1
  102   112	 1
  102   113	 1
  103   121	 1
  103   147	 1
  103   105	 1
  103   111	 1
  104   120	 1
  104   121	 1
  104   147	 1
  104   162	 1
  104   163	 1
  104   164	 1
  104   109	 1
  104   127	 1
  104   106	 1
  104   172	 1
  104   173	 1
  104   174	 1
  104   175	 1
  104   176	 1
  104   177	 1
  105   112	 1
  105   113	 1
  105   107	 1
  105   126	 1
  105   110	 1
  106   108	 1
  106   165	 1
  108   128	 1
  108   114	 1
  108   137	 1
  108   111	 1
  108   169	 1
  108   170	 1
  108   171	 1
  109   129	 1
  109   130	 1
  109   116	 1
  109   118	 1
  109   138	 1
  109   125	 1
  109   165	 1
  110   128	 1
  110   114	 1
  110   137	 1
  110   127	 1
  111   118	 1
  111   138	 1
  111   145	 1
  111   146	 1
  111   144	 1
  111   125	 1
  111   165	 1
  112   120	 1
  112   175	 1
  112   176	 1
  112   177	 1
  113   120	 1
  113   172	 1
  113   173	 1
  113   174	 1
  114   129	 1
  114   130	 1
  115   129	 1
  115   130	 1
  115   116	 1
  116   131	 1
  116   132	 1
  116   133	 1
  116   137	 1
  116   134	 1
  116   135	 1
  116   136	 1
  117   134	 1
  117   135	 1
  117   136	 1
  118   137	 1
  118   120	 1
  120   138	 1
  120   145	 1
  120   146	 1
  121   145	 1
  121   146	 1
  121   123	 1
  121   148	 1
  122   123	 1
  122   148	 1
  123   150	 1
  124   151	 1
  125   127	 1
  125   166	 1
  125   167	 1
  125   168	 1
  126   166	 1
  126   167	 1
  126   168	 1
  127   165	 1
  128   129	 1
  128   130	 1
  129   131	 1
  130   131	 1
  137   138	 1
  139   140	 1
  140   141	 1
  141   142	 1
  142   143	 1
  145   147	 1
  146   147	 1
  148   150	 1
  148   149	 1
  150   151	 1
  152   153	 1
  153   154	 1
  154   155	 1
  155   156	 1
  157   158	 1
  158   159	 1
  159   160	 1
  160   161	 1

[ angles ]
;	ai	  aj	ak funct			c0			  c1			c2			  c3
    2     1    23	5 ;      CG321      CG331       HGA3
    2     1    24	5 ;      CG321      CG331       HGA3
    2     1    25	5 ;      CG321      CG331       HGA3
   23     1    24	5 ;       HGA3      CG331       HGA3
   23     1    25	5 ;       HGA3      CG331       HGA3
   24     1    25	5 ;       HGA3      CG331       HGA3
    1     2     3	5 ;      CG331      CG321      CG321
    1     2    26	5 ;      CG331      CG321       HGA2
    1     2    27	5 ;      CG331      CG321       HGA2
    3     2    26	5 ;      CG321      CG321       HGA2
    3     2    27	5 ;      CG321      CG321       HGA2
   26     2    27	5 ;       HGA2      CG321       HGA2
    2     3     4	5 ;      CG321      CG321      CG321
    2     3    28	5 ;      CG321      CG321       HGA2
    2     3    29	5 ;      CG321      CG321       HGA2
    4     3    28	5 ;      CG321      CG321       HGA2
    4     3    29	5 ;      CG321      CG321       HGA2
   28     3    29	5 ;       HGA2      CG321       HGA2
    3     4     5	5 ;      CG321      CG321      CG321
    3     4    30	5 ;      CG321      CG321       HGA2
    3     4    31	5 ;      CG321      CG321       HGA2
    5     4    30	5 ;      CG321      CG321       HGA2
    5     4    31	5 ;      CG321      CG321       HGA2
   30     4    31	5 ;       HGA2      CG321       HGA2
    4     5     6	5 ;      CG321      CG321      CG321
    4     5    32	5 ;      CG321      CG321       HGA2
    4     5    33	5 ;      CG321      CG321       HGA2
    6     5    32	5 ;      CG321      CG321       HGA2
    6     5    33	5 ;      CG321      CG321       HGA2
   32     5    33	5 ;       HGA2      CG321       HGA2
    5     6     7	5 ;      CG321      CG321      CG321
    5     6    34	5 ;      CG321      CG321       HGA2
    5     6    35	5 ;      CG321      CG321       HGA2
    7     6    34	5 ;      CG321      CG321       HGA2
    7     6    35	5 ;      CG321      CG321       HGA2
   34     6    35	5 ;       HGA2      CG321       HGA2
    6     7     8	5 ;      CG321      CG321      CG321
    6     7    36	5 ;      CG321      CG321       HGA2
    6     7    37	5 ;      CG321      CG321       HGA2
    8     7    36	5 ;      CG321      CG321       HGA2
    8     7    37	5 ;      CG321      CG321       HGA2
   36     7    37	5 ;       HGA2      CG321       HGA2
    7     8     9	5 ;      CG321      CG321      CG321
    7     8    38	5 ;      CG321      CG321       HGA2
    7     8    39	5 ;      CG321      CG321       HGA2
    9     8    38	5 ;      CG321      CG321       HGA2
    9     8    39	5 ;      CG321      CG321       HGA2
   38     8    39	5 ;       HGA2      CG321       HGA2
    8     9    10	5 ;      CG321      CG321      CG321
    8     9    40	5 ;      CG321      CG321       HGA2
    8     9    41	5 ;      CG321      CG321       HGA2
   10     9    40	5 ;      CG321      CG321       HGA2
   10     9    41	5 ;      CG321      CG321       HGA2
   40     9    41	5 ;       HGA2      CG321       HGA2
    9    10    11	5 ;      CG321      CG321      CG321
    9    10    42	5 ;      CG321      CG321       HGA2
    9    10    43	5 ;      CG321      CG321       HGA2
   11    10    42	5 ;      CG321      CG321       HGA2
   11    10    43	5 ;      CG321      CG321       HGA2
   42    10    43	5 ;       HGA2      CG321       HGA2
   10    11    12	5 ;      CG321      CG321      CG321
   10    11    44	5 ;      CG321      CG321       HGA2
   10    11    45	5 ;      CG321      CG321       HGA2
   12    11    44	5 ;      CG321      CG321       HGA2
   12    11    45	5 ;      CG321      CG321       HGA2
   44    11    45	5 ;       HGA2      CG321       HGA2
   11    12    13	5 ;      CG321      CG321      CG321
   11    12    46	5 ;      CG321      CG321       HGA2
   11    12    47	5 ;      CG321      CG321       HGA2
   13    12    46	5 ;      CG321      CG321       HGA2
   13    12    47	5 ;      CG321      CG321       HGA2
   46    12    47	5 ;       HGA2      CG321       HGA2
   12    13    14	5 ;      CG321      CG321      CG321
   12    13    48	5 ;      CG321      CG321       HGA2
   12    13    49	5 ;      CG321      CG321       HGA2
   14    13    48	5 ;      CG321      CG321       HGA2
   14    13    49	5 ;      CG321      CG321       HGA2
   48    13    49	5 ;       HGA2      CG321       HGA2
   13    14    15	5 ;      CG321      CG321      CG321
   13    14    50	5 ;      CG321      CG321       HGA2
   13    14    51	5 ;      CG321      CG321       HGA2
   15    14    50	5 ;      CG321      CG321       HGA2
   15    14    51	5 ;      CG321      CG321       HGA2
   50    14    51	5 ;       HGA2      CG321       HGA2
   14    15    16	5 ;      CG321      CG321      CG321
   14    15    52	5 ;      CG321      CG321       HGA2
   14    15    53	5 ;      CG321      CG321       HGA2
   16    15    52	5 ;      CG321      CG321       HGA2
   16    15    53	5 ;      CG321      CG321       HGA2
   52    15    53	5 ;       HGA2      CG321       HGA2
   15    16    17	5 ;      CG321      CG321      CG321
   15    16    54	5 ;      CG321      CG321       HGA2
   15    16    55	5 ;      CG321      CG321       HGA2
   17    16    54	5 ;      CG321      CG321       HGA2
   17    16    55	5 ;      CG321      CG321       HGA2
   54    16    55	5 ;       HGA2      CG321       HGA2
   16    17    18	5 ;      CG321      CG321      CG321
   16    17    56	5 ;      CG321      CG321       HGA2
   16    17    57	5 ;      CG321      CG321       HGA2
   18    17    56	5 ;      CG321      CG321       HGA2
   18    17    57	5 ;      CG321      CG321       HGA2
   56    17    57	5 ;       HGA2      CG321       HGA2
   17    18    22	5 ;      CG321      CG321      OG301
   17    18    58	5 ;      CG321      CG321       HGA2
   17    18    59	5 ;      CG321      CG321       HGA2
   22    18    58	5 ;      OG301      CG321       HGA2
   22    18    59	5 ;      OG301      CG321       HGA2
   58    18    59	5 ;       HGA2      CG321       HGA2
   20    19    21	5 ;      CG331      CG301      CG331
   20    19   114	5 ;      CG331      CG301      OG301
   20    19    22	5 ;      CG331      CG301      OG301
   21    19   114	5 ;      CG331      CG301      OG301
   21    19    22	5 ;      CG331      CG301      OG301
  114    19    22	5 ;      OG301      CG301      OG301
   19    20    60	5 ;      CG301      CG331       HGA3
   19    20    61	5 ;      CG301      CG331       HGA3
   19    20    62	5 ;      CG301      CG331       HGA3
   60    20    61	5 ;       HGA3      CG331       HGA3
   60    20    62	5 ;       HGA3      CG331       HGA3
   61    20    62	5 ;       HGA3      CG331       HGA3
   19    21    63	5 ;      CG301      CG331       HGA3
   19    21    64	5 ;      CG301      CG331       HGA3
   19    21    65	5 ;      CG301      CG331       HGA3
   63    21    64	5 ;       HGA3      CG331       HGA3
   63    21    65	5 ;       HGA3      CG331       HGA3
   64    21    65	5 ;       HGA3      CG331       HGA3
   18    22    19	5 ;      CG321      OG301      CG301
   89    66   151	5 ;      CG2O1      NG2S1       HGP1
   89    66    88	5 ;      CG2O1      NG2S1      CG311
  151    66    88	5 ;       HGP1      NG2S1      CG311
   68    67   109	5 ;      CG321      CG311      CG301
   68    67   128	5 ;      CG321      CG311       HGA1
   68    67   114	5 ;      CG321      CG311      OG301
  109    67   128	5 ;      CG301      CG311       HGA1
  109    67   114	5 ;      CG301      CG311      OG301
  128    67   114	5 ;       HGA1      CG311      OG301
   67    68    69	5 ;      CG311      CG321     CG3RC1
   67    68   129	5 ;      CG311      CG321       HGA2
   67    68   130	5 ;      CG311      CG321       HGA2
   69    68   129	5 ;     CG3RC1      CG321       HGA2
   69    68   130	5 ;     CG3RC1      CG321       HGA2
  129    68   130	5 ;       HGA2      CG321       HGA2
   68    69    71	5 ;      CG321     CG3RC1     CG3RC1
   68    69   115	5 ;      CG321     CG3RC1     OG3C51
   68    69   131	5 ;      CG321     CG3RC1       HGA1
   71    69   115	5 ;     CG3RC1     CG3RC1     OG3C51
   71    69   131	5 ;     CG3RC1     CG3RC1       HGA1
  115    69   131	5 ;     OG3C51     CG3RC1       HGA1
   71    70   132	5 ;     CG3RC1     CG3C41       HGA2
   71    70   133	5 ;     CG3RC1     CG3C41       HGA2
   71    70   115	5 ;     CG3RC1     CG3C41     OG3C51
  132    70   133	5 ;       HGA2     CG3C41       HGA2
  132    70   115	5 ;       HGA2     CG3C41     OG3C51
  133    70   115	5 ;       HGA2     CG3C41     OG3C51
   69    71    70	5 ;     CG3RC1     CG3RC1     CG3C41
   69    71    74	5 ;     CG3RC1     CG3RC1      CG311
   69    71   116	5 ;     CG3RC1     CG3RC1      OG302
   70    71    74	5 ;     CG3C41     CG3RC1      CG311
   70    71   116	5 ;     CG3C41     CG3RC1      OG302
   74    71   116	5 ;      CG311     CG3RC1      OG302
   73    72   117	5 ;      CG331      CG2O2      OG2D1
   73    72   116	5 ;      CG331      CG2O2      OG302
  117    72   116	5 ;      OG2D1      CG2O2      OG302
   72    73   134	5 ;      CG2O2      CG331       HGA3
   72    73   135	5 ;      CG2O2      CG331       HGA3
   72    73   136	5 ;      CG2O2      CG331       HGA3
  134    73   135	5 ;       HGA3      CG331       HGA3
  134    73   136	5 ;       HGA3      CG331       HGA3
  135    73   136	5 ;       HGA3      CG331       HGA3
   71    74    75	5 ;     CG3RC1      CG311      CG311
   71    74   109	5 ;     CG3RC1      CG311      CG301
   71    74   137	5 ;     CG3RC1      CG311       HGA1
   75    74   109	5 ;      CG311      CG311      CG301
   75    74   137	5 ;      CG311      CG311       HGA1
  109    74   137	5 ;      CG301      CG311       HGA1
   74    75    83	5 ;      CG311      CG311      CG301
   74    75   118	5 ;      CG311      CG311      OG302
   74    75   138	5 ;      CG311      CG311       HGA1
   83    75   118	5 ;      CG301      CG311      OG302
   83    75   138	5 ;      CG301      CG311       HGA1
  118    75   138	5 ;      OG302      CG311       HGA1
   77    76   119	5 ;     CG2R61      CG2O2      OG2D1
   77    76   118	5 ;     CG2R61      CG2O2      OG302
  119    76   118	5 ;      OG2D1      CG2O2      OG302
   76    77    78	5 ;      CG2O2     CG2R61     CG2R61
   76    77    82	5 ;      CG2O2     CG2R61     CG2R61
   78    77    82	5 ;     CG2R61     CG2R61     CG2R61
   77    78    79	5 ;     CG2R61     CG2R61     CG2R61
   77    78   139	5 ;     CG2R61     CG2R61      HGR61
   79    78   139	5 ;     CG2R61     CG2R61      HGR61
   78    79    80	5 ;     CG2R61     CG2R61     CG2R61
   78    79   140	5 ;     CG2R61     CG2R61      HGR61
   80    79   140	5 ;     CG2R61     CG2R61      HGR61
   79    80    81	5 ;     CG2R61     CG2R61     CG2R61
   79    80   141	5 ;     CG2R61     CG2R61      HGR61
   81    80   141	5 ;     CG2R61     CG2R61      HGR61
   80    81    82	5 ;     CG2R61     CG2R61     CG2R61
   80    81   142	5 ;     CG2R61     CG2R61      HGR61
   82    81   142	5 ;     CG2R61     CG2R61      HGR61
   77    82    81	5 ;     CG2R61     CG2R61     CG2R61
   77    82   143	5 ;     CG2R61     CG2R61      HGR61
   81    82   143	5 ;     CG2R61     CG2R61      HGR61
   75    83    84	5 ;      CG311      CG301      CG321
   75    83   111	5 ;      CG311      CG301      CG301
   75    83   120	5 ;      CG311      CG301      OG311
   84    83   111	5 ;      CG321      CG301      CG301
   84    83   120	5 ;      CG321      CG301      OG311
  111    83   120	5 ;      CG301      CG301      OG311
   83    84    85	5 ;      CG301      CG321      CG311
   83    84   145	5 ;      CG301      CG321       HGA2
   83    84   146	5 ;      CG301      CG321       HGA2
   85    84   145	5 ;      CG311      CG321       HGA2
   85    84   146	5 ;      CG311      CG321       HGA2
  145    84   146	5 ;       HGA2      CG321       HGA2
   84    85   102	5 ;      CG321      CG311      CG2D1
   84    85   121	5 ;      CG321      CG311      OG302
   84    85   147	5 ;      CG321      CG311       HGA1
  102    85   121	5 ;      CG2D1      CG311      OG302
  102    85   147	5 ;      CG2D1      CG311       HGA1
  121    85   147	5 ;      OG302      CG311       HGA1
   87    86   122	5 ;      CG311      CG2O2      OG2D1
   87    86   121	5 ;      CG311      CG2O2      OG302
  122    86   121	5 ;      OG2D1      CG2O2      OG302
   86    87    88	5 ;      CG2O2      CG311      CG311
   86    87   123	5 ;      CG2O2      CG311      OG311
   86    87   148	5 ;      CG2O2      CG311       HGA1
   88    87   123	5 ;      CG311      CG311      OG311
   88    87   148	5 ;      CG311      CG311       HGA1
  123    87   148	5 ;      OG311      CG311       HGA1
   87    88    66	5 ;      CG311      CG311      NG2S1
   87    88    96	5 ;      CG311      CG311     CG2R61
   87    88   150	5 ;      CG311      CG311       HGA1
   66    88    96	5 ;      NG2S1      CG311     CG2R61
   66    88   150	5 ;      NG2S1      CG311       HGA1
   96    88   150	5 ;     CG2R61      CG311       HGA1
   66    89    90	5 ;      NG2S1      CG2O1     CG2R61
   66    89   124	5 ;      NG2S1      CG2O1      OG2D1
   90    89   124	5 ;     CG2R61      CG2O1      OG2D1
   89    90    91	5 ;      CG2O1     CG2R61     CG2R61
   89    90    95	5 ;      CG2O1     CG2R61     CG2R61
   91    90    95	5 ;     CG2R61     CG2R61     CG2R61
   90    91    92	5 ;     CG2R61     CG2R61     CG2R61
   90    91   152	5 ;     CG2R61     CG2R61      HGR61
   92    91   152	5 ;     CG2R61     CG2R61      HGR61
   91    92    93	5 ;     CG2R61     CG2R61     CG2R61
   91    92   153	5 ;     CG2R61     CG2R61      HGR61
   93    92   153	5 ;     CG2R61     CG2R61      HGR61
   92    93    94	5 ;     CG2R61     CG2R61     CG2R61
   92    93   154	5 ;     CG2R61     CG2R61      HGR61
   94    93   154	5 ;     CG2R61     CG2R61      HGR61
   93    94    95	5 ;     CG2R61     CG2R61     CG2R61
   93    94   155	5 ;     CG2R61     CG2R61      HGR61
   95    94   155	5 ;     CG2R61     CG2R61      HGR61
   90    95    94	5 ;     CG2R61     CG2R61     CG2R61
   90    95   156	5 ;     CG2R61     CG2R61      HGR61
   94    95   156	5 ;     CG2R61     CG2R61      HGR61
   88    96    97	5 ;      CG311     CG2R61     CG2R61
   88    96   101	5 ;      CG311     CG2R61     CG2R61
   97    96   101	5 ;     CG2R61     CG2R61     CG2R61
   96    97    98	5 ;     CG2R61     CG2R61     CG2R61
   96    97   157	5 ;     CG2R61     CG2R61      HGR61
   98    97   157	5 ;     CG2R61     CG2R61      HGR61
   97    98    99	5 ;     CG2R61     CG2R61     CG2R61
   97    98   158	5 ;     CG2R61     CG2R61      HGR61
   99    98   158	5 ;     CG2R61     CG2R61      HGR61
   98    99   100	5 ;     CG2R61     CG2R61     CG2R61
   98    99   159	5 ;     CG2R61     CG2R61      HGR61
  100    99   159	5 ;     CG2R61     CG2R61      HGR61
   99   100   101	5 ;     CG2R61     CG2R61     CG2R61
   99   100   160	5 ;     CG2R61     CG2R61      HGR61
  101   100   160	5 ;     CG2R61     CG2R61      HGR61
   96   101   100	5 ;     CG2R61     CG2R61     CG2R61
   96   101   161	5 ;     CG2R61     CG2R61      HGR61
  100   101   161	5 ;     CG2R61     CG2R61      HGR61
   85   102   103	5 ;      CG311      CG2D1      CG331
   85   102   104	5 ;      CG311      CG2D1      CG2D1
  103   102   104	5 ;      CG331      CG2D1      CG2D1
  102   103   162	5 ;      CG2D1      CG331       HGA3
  102   103   163	5 ;      CG2D1      CG331       HGA3
  102   103   164	5 ;      CG2D1      CG331       HGA3
  162   103   163	5 ;       HGA3      CG331       HGA3
  162   103   164	5 ;       HGA3      CG331       HGA3
  163   103   164	5 ;       HGA3      CG331       HGA3
  102   104   105	5 ;      CG2D1      CG2D1      CG311
  102   104   111	5 ;      CG2D1      CG2D1      CG301
  105   104   111	5 ;      CG311      CG2D1      CG301
  104   105   108	5 ;      CG2D1      CG311      CG2O5
  104   105   125	5 ;      CG2D1      CG311      OG302
  104   105   165	5 ;      CG2D1      CG311       HGA1
  108   105   125	5 ;      CG2O5      CG311      OG302
  108   105   165	5 ;      CG2O5      CG311       HGA1
  125   105   165	5 ;      OG302      CG311       HGA1
  107   106   126	5 ;      CG331      CG2O2      OG2D1
  107   106   125	5 ;      CG331      CG2O2      OG302
  126   106   125	5 ;      OG2D1      CG2O2      OG302
  106   107   166	5 ;      CG2O2      CG331       HGA3
  106   107   167	5 ;      CG2O2      CG331       HGA3
  106   107   168	5 ;      CG2O2      CG331       HGA3
  166   107   167	5 ;       HGA3      CG331       HGA3
  166   107   168	5 ;       HGA3      CG331       HGA3
  167   107   168	5 ;       HGA3      CG331       HGA3
  105   108   109	5 ;      CG311      CG2O5      CG301
  105   108   127	5 ;      CG311      CG2O5      OG2D3
  109   108   127	5 ;      CG301      CG2O5      OG2D3
   67   109    74	5 ;      CG311      CG301      CG311
   67   109   108	5 ;      CG311      CG301      CG2O5
   67   109   110	5 ;      CG311      CG301      CG331
   74   109   108	5 ;      CG311      CG301      CG2O5
   74   109   110	5 ;      CG311      CG301      CG331
  108   109   110	5 ;      CG2O5      CG301      CG331
  109   110   169	5 ;      CG301      CG331       HGA3
  109   110   170	5 ;      CG301      CG331       HGA3
  109   110   171	5 ;      CG301      CG331       HGA3
  169   110   170	5 ;       HGA3      CG331       HGA3
  169   110   171	5 ;       HGA3      CG331       HGA3
  170   110   171	5 ;       HGA3      CG331       HGA3
   83   111   104	5 ;      CG301      CG301      CG2D1
   83   111   112	5 ;      CG301      CG301      CG331
   83   111   113	5 ;      CG301      CG301      CG331
  104   111   112	5 ;      CG2D1      CG301      CG331
  104   111   113	5 ;      CG2D1      CG301      CG331
  112   111   113	5 ;      CG331      CG301      CG331
  111   112   172	5 ;      CG301      CG331       HGA3
  111   112   173	5 ;      CG301      CG331       HGA3
  111   112   174	5 ;      CG301      CG331       HGA3
  172   112   173	5 ;       HGA3      CG331       HGA3
  172   112   174	5 ;       HGA3      CG331       HGA3
  173   112   174	5 ;       HGA3      CG331       HGA3
  111   113   175	5 ;      CG301      CG331       HGA3
  111   113   176	5 ;      CG301      CG331       HGA3
  111   113   177	5 ;      CG301      CG331       HGA3
  175   113   176	5 ;       HGA3      CG331       HGA3
  175   113   177	5 ;       HGA3      CG331       HGA3
  176   113   177	5 ;       HGA3      CG331       HGA3
   19   114    67	5 ;      CG301      OG301      CG311
   69   115    70	5 ;     CG3RC1     OG3C51     CG3C41
   71   116    72	5 ;     CG3RC1      OG302      CG2O2
   75   118    76	5 ;      CG311      OG302      CG2O2
   83   120   144	5 ;      CG301      OG311       HGP1
   85   121    86	5 ;      CG311      OG302      CG2O2
   87   123   149	5 ;      CG311      OG311       HGP1
  105   125   106	5 ;      CG311      OG302      CG2O2

[ dihedrals ]
;	ai	  aj	ak	  al funct			  c0			c1			  c2			c3			  c4			c5
   23     1     2     3	 9 ;       HGA3      CG331      CG321      CG321
   23     1     2    26	 9 ;       HGA3      CG331      CG321       HGA2
   23     1     2    27	 9 ;       HGA3      CG331      CG321       HGA2
   24     1     2     3	 9 ;       HGA3      CG331      CG321      CG321
   24     1     2    26	 9 ;       HGA3      CG331      CG321       HGA2
   24     1     2    27	 9 ;       HGA3      CG331      CG321       HGA2
   25     1     2     3	 9 ;       HGA3      CG331      CG321      CG321
   25     1     2    26	 9 ;       HGA3      CG331      CG321       HGA2
   25     1     2    27	 9 ;       HGA3      CG331      CG321       HGA2
    1     2     3     4	 9 ;      CG331      CG321      CG321      CG321
    1     2     3    28	 9 ;      CG331      CG321      CG321       HGA2
    1     2     3    29	 9 ;      CG331      CG321      CG321       HGA2
   26     2     3     4	 9 ;       HGA2      CG321      CG321      CG321
   26     2     3    28	 9 ;       HGA2      CG321      CG321       HGA2
   26     2     3    29	 9 ;       HGA2      CG321      CG321       HGA2
   27     2     3     4	 9 ;       HGA2      CG321      CG321      CG321
   27     2     3    28	 9 ;       HGA2      CG321      CG321       HGA2
   27     2     3    29	 9 ;       HGA2      CG321      CG321       HGA2
    2     3     4     5	 9 ;      CG321      CG321      CG321      CG321
    2     3     4    30	 9 ;      CG321      CG321      CG321       HGA2
    2     3     4    31	 9 ;      CG321      CG321      CG321       HGA2
   28     3     4     5	 9 ;       HGA2      CG321      CG321      CG321
   28     3     4    30	 9 ;       HGA2      CG321      CG321       HGA2
   28     3     4    31	 9 ;       HGA2      CG321      CG321       HGA2
   29     3     4     5	 9 ;       HGA2      CG321      CG321      CG321
   29     3     4    30	 9 ;       HGA2      CG321      CG321       HGA2
   29     3     4    31	 9 ;       HGA2      CG321      CG321       HGA2
    3     4     5     6	 9 ;      CG321      CG321      CG321      CG321
    3     4     5    32	 9 ;      CG321      CG321      CG321       HGA2
    3     4     5    33	 9 ;      CG321      CG321      CG321       HGA2
   30     4     5     6	 9 ;       HGA2      CG321      CG321      CG321
   30     4     5    32	 9 ;       HGA2      CG321      CG321       HGA2
   30     4     5    33	 9 ;       HGA2      CG321      CG321       HGA2
   31     4     5     6	 9 ;       HGA2      CG321      CG321      CG321
   31     4     5    32	 9 ;       HGA2      CG321      CG321       HGA2
   31     4     5    33	 9 ;       HGA2      CG321      CG321       HGA2
    4     5     6     7	 9 ;      CG321      CG321      CG321      CG321
    4     5     6    34	 9 ;      CG321      CG321      CG321       HGA2
    4     5     6    35	 9 ;      CG321      CG321      CG321       HGA2
   32     5     6     7	 9 ;       HGA2      CG321      CG321      CG321
   32     5     6    34	 9 ;       HGA2      CG321      CG321       HGA2
   32     5     6    35	 9 ;       HGA2      CG321      CG321       HGA2
   33     5     6     7	 9 ;       HGA2      CG321      CG321      CG321
   33     5     6    34	 9 ;       HGA2      CG321      CG321       HGA2
   33     5     6    35	 9 ;       HGA2      CG321      CG321       HGA2
    5     6     7     8	 9 ;      CG321      CG321      CG321      CG321
    5     6     7    36	 9 ;      CG321      CG321      CG321       HGA2
    5     6     7    37	 9 ;      CG321      CG321      CG321       HGA2
   34     6     7     8	 9 ;       HGA2      CG321      CG321      CG321
   34     6     7    36	 9 ;       HGA2      CG321      CG321       HGA2
   34     6     7    37	 9 ;       HGA2      CG321      CG321       HGA2
   35     6     7     8	 9 ;       HGA2      CG321      CG321      CG321
   35     6     7    36	 9 ;       HGA2      CG321      CG321       HGA2
   35     6     7    37	 9 ;       HGA2      CG321      CG321       HGA2
    6     7     8     9	 9 ;      CG321      CG321      CG321      CG321
    6     7     8    38	 9 ;      CG321      CG321      CG321       HGA2
    6     7     8    39	 9 ;      CG321      CG321      CG321       HGA2
   36     7     8     9	 9 ;       HGA2      CG321      CG321      CG321
   36     7     8    38	 9 ;       HGA2      CG321      CG321       HGA2
   36     7     8    39	 9 ;       HGA2      CG321      CG321       HGA2
   37     7     8     9	 9 ;       HGA2      CG321      CG321      CG321
   37     7     8    38	 9 ;       HGA2      CG321      CG321       HGA2
   37     7     8    39	 9 ;       HGA2      CG321      CG321       HGA2
    7     8     9    10	 9 ;      CG321      CG321      CG321      CG321
    7     8     9    40	 9 ;      CG321      CG321      CG321       HGA2
    7     8     9    41	 9 ;      CG321      CG321      CG321       HGA2
   38     8     9    10	 9 ;       HGA2      CG321      CG321      CG321
   38     8     9    40	 9 ;       HGA2      CG321      CG321       HGA2
   38     8     9    41	 9 ;       HGA2      CG321      CG321       HGA2
   39     8     9    10	 9 ;       HGA2      CG321      CG321      CG321
   39     8     9    40	 9 ;       HGA2      CG321      CG321       HGA2
   39     8     9    41	 9 ;       HGA2      CG321      CG321       HGA2
    8     9    10    11	 9 ;      CG321      CG321      CG321      CG321
    8     9    10    42	 9 ;      CG321      CG321      CG321       HGA2
    8     9    10    43	 9 ;      CG321      CG321      CG321       HGA2
   40     9    10    11	 9 ;       HGA2      CG321      CG321      CG321
   40     9    10    42	 9 ;       HGA2      CG321      CG321       HGA2
   40     9    10    43	 9 ;       HGA2      CG321      CG321       HGA2
   41     9    10    11	 9 ;       HGA2      CG321      CG321      CG321
   41     9    10    42	 9 ;       HGA2      CG321      CG321       HGA2
   41     9    10    43	 9 ;       HGA2      CG321      CG321       HGA2
    9    10    11    12	 9 ;      CG321      CG321      CG321      CG321
    9    10    11    44	 9 ;      CG321      CG321      CG321       HGA2
    9    10    11    45	 9 ;      CG321      CG321      CG321       HGA2
   42    10    11    12	 9 ;       HGA2      CG321      CG321      CG321
   42    10    11    44	 9 ;       HGA2      CG321      CG321       HGA2
   42    10    11    45	 9 ;       HGA2      CG321      CG321       HGA2
   43    10    11    12	 9 ;       HGA2      CG321      CG321      CG321
   43    10    11    44	 9 ;       HGA2      CG321      CG321       HGA2
   43    10    11    45	 9 ;       HGA2      CG321      CG321       HGA2
   10    11    12    13	 9 ;      CG321      CG321      CG321      CG321
   10    11    12    46	 9 ;      CG321      CG321      CG321       HGA2
   10    11    12    47	 9 ;      CG321      CG321      CG321       HGA2
   44    11    12    13	 9 ;       HGA2      CG321      CG321      CG321
   44    11    12    46	 9 ;       HGA2      CG321      CG321       HGA2
   44    11    12    47	 9 ;       HGA2      CG321      CG321       HGA2
   45    11    12    13	 9 ;       HGA2      CG321      CG321      CG321
   45    11    12    46	 9 ;       HGA2      CG321      CG321       HGA2
   45    11    12    47	 9 ;       HGA2      CG321      CG321       HGA2
   11    12    13    14	 9 ;      CG321      CG321      CG321      CG321
   11    12    13    48	 9 ;      CG321      CG321      CG321       HGA2
   11    12    13    49	 9 ;      CG321      CG321      CG321       HGA2
   46    12    13    14	 9 ;       HGA2      CG321      CG321      CG321
   46    12    13    48	 9 ;       HGA2      CG321      CG321       HGA2
   46    12    13    49	 9 ;       HGA2      CG321      CG321       HGA2
   47    12    13    14	 9 ;       HGA2      CG321      CG321      CG321
   47    12    13    48	 9 ;       HGA2      CG321      CG321       HGA2
   47    12    13    49	 9 ;       HGA2      CG321      CG321       HGA2
   12    13    14    15	 9 ;      CG321      CG321      CG321      CG321
   12    13    14    50	 9 ;      CG321      CG321      CG321       HGA2
   12    13    14    51	 9 ;      CG321      CG321      CG321       HGA2
   48    13    14    15	 9 ;       HGA2      CG321      CG321      CG321
   48    13    14    50	 9 ;       HGA2      CG321      CG321       HGA2
   48    13    14    51	 9 ;       HGA2      CG321      CG321       HGA2
   49    13    14    15	 9 ;       HGA2      CG321      CG321      CG321
   49    13    14    50	 9 ;       HGA2      CG321      CG321       HGA2
   49    13    14    51	 9 ;       HGA2      CG321      CG321       HGA2
   13    14    15    16	 9 ;      CG321      CG321      CG321      CG321
   13    14    15    52	 9 ;      CG321      CG321      CG321       HGA2
   13    14    15    53	 9 ;      CG321      CG321      CG321       HGA2
   50    14    15    16	 9 ;       HGA2      CG321      CG321      CG321
   50    14    15    52	 9 ;       HGA2      CG321      CG321       HGA2
   50    14    15    53	 9 ;       HGA2      CG321      CG321       HGA2
   51    14    15    16	 9 ;       HGA2      CG321      CG321      CG321
   51    14    15    52	 9 ;       HGA2      CG321      CG321       HGA2
   51    14    15    53	 9 ;       HGA2      CG321      CG321       HGA2
   14    15    16    17	 9 ;      CG321      CG321      CG321      CG321
   14    15    16    54	 9 ;      CG321      CG321      CG321       HGA2
   14    15    16    55	 9 ;      CG321      CG321      CG321       HGA2
   52    15    16    17	 9 ;       HGA2      CG321      CG321      CG321
   52    15    16    54	 9 ;       HGA2      CG321      CG321       HGA2
   52    15    16    55	 9 ;       HGA2      CG321      CG321       HGA2
   53    15    16    17	 9 ;       HGA2      CG321      CG321      CG321
   53    15    16    54	 9 ;       HGA2      CG321      CG321       HGA2
   53    15    16    55	 9 ;       HGA2      CG321      CG321       HGA2
   15    16    17    18	 9 ;      CG321      CG321      CG321      CG321
   15    16    17    56	 9 ;      CG321      CG321      CG321       HGA2
   15    16    17    57	 9 ;      CG321      CG321      CG321       HGA2
   54    16    17    18	 9 ;       HGA2      CG321      CG321      CG321
   54    16    17    56	 9 ;       HGA2      CG321      CG321       HGA2
   54    16    17    57	 9 ;       HGA2      CG321      CG321       HGA2
   55    16    17    18	 9 ;       HGA2      CG321      CG321      CG321
   55    16    17    56	 9 ;       HGA2      CG321      CG321       HGA2
   55    16    17    57	 9 ;       HGA2      CG321      CG321       HGA2
   16    17    18    22	 9 ;      CG321      CG321      CG321      OG301
   16    17    18    58	 9 ;      CG321      CG321      CG321       HGA2
   16    17    18    59	 9 ;      CG321      CG321      CG321       HGA2
   56    17    18    22	 9 ;       HGA2      CG321      CG321      OG301
   56    17    18    58	 9 ;       HGA2      CG321      CG321       HGA2
   56    17    18    59	 9 ;       HGA2      CG321      CG321       HGA2
   57    17    18    22	 9 ;       HGA2      CG321      CG321      OG301
   57    17    18    58	 9 ;       HGA2      CG321      CG321       HGA2
   57    17    18    59	 9 ;       HGA2      CG321      CG321       HGA2
   17    18    22    19	 9 ;      CG321      CG321      OG301      CG301
   58    18    22    19	 9 ;       HGA2      CG321      OG301      CG301
   59    18    22    19	 9 ;       HGA2      CG321      OG301      CG301
   21    19    20    60	 9 ;      CG331      CG301      CG331       HGA3
   21    19    20    61	 9 ;      CG331      CG301      CG331       HGA3
   21    19    20    62	 9 ;      CG331      CG301      CG331       HGA3
  114    19    20    60	 9 ;      OG301      CG301      CG331       HGA3
  114    19    20    61	 9 ;      OG301      CG301      CG331       HGA3
  114    19    20    62	 9 ;      OG301      CG301      CG331       HGA3
   22    19    20    60	 9 ;      OG301      CG301      CG331       HGA3
   22    19    20    61	 9 ;      OG301      CG301      CG331       HGA3
   22    19    20    62	 9 ;      OG301      CG301      CG331       HGA3
   20    19    21    63	 9 ;      CG331      CG301      CG331       HGA3
   20    19    21    64	 9 ;      CG331      CG301      CG331       HGA3
   20    19    21    65	 9 ;      CG331      CG301      CG331       HGA3
  114    19    21    63	 9 ;      OG301      CG301      CG331       HGA3
  114    19    21    64	 9 ;      OG301      CG301      CG331       HGA3
  114    19    21    65	 9 ;      OG301      CG301      CG331       HGA3
   22    19    21    63	 9 ;      OG301      CG301      CG331       HGA3
   22    19    21    64	 9 ;      OG301      CG301      CG331       HGA3
   22    19    21    65	 9 ;      OG301      CG301      CG331       HGA3
   20    19   114    67	 9 ;      CG331      CG301      OG301      CG311
   21    19   114    67	 9 ;      CG331      CG301      OG301      CG311
   22    19   114    67	 9 ;      OG301      CG301      OG301      CG311
   20    19    22    18	 9 ;      CG331      CG301      OG301      CG321
   21    19    22    18	 9 ;      CG331      CG301      OG301      CG321
  114    19    22    18	 9 ;      OG301      CG301      OG301      CG321
  151    66    89    90	 9 ;       HGP1      NG2S1      CG2O1     CG2R61
  151    66    89   124	 9 ;       HGP1      NG2S1      CG2O1      OG2D1
   88    66    89    90	 9 ;      CG311      NG2S1      CG2O1     CG2R61
   88    66    89   124	 9 ;      CG311      NG2S1      CG2O1      OG2D1
   89    66    88    87	 9 ;      CG2O1      NG2S1      CG311      CG311
   89    66    88    96	 9 ;      CG2O1      NG2S1      CG311     CG2R61
   89    66    88   150	 9 ;      CG2O1      NG2S1      CG311       HGA1
  151    66    88    87	 9 ;       HGP1      NG2S1      CG311      CG311
  151    66    88    96	 9 ;       HGP1      NG2S1      CG311     CG2R61
  151    66    88   150	 9 ;       HGP1      NG2S1      CG311       HGA1
  109    67    68    69	 9 ;      CG301      CG311      CG321     CG3RC1
  109    67    68   129	 9 ;      CG301      CG311      CG321       HGA2
  109    67    68   130	 9 ;      CG301      CG311      CG321       HGA2
  128    67    68    69	 9 ;       HGA1      CG311      CG321     CG3RC1
  128    67    68   129	 9 ;       HGA1      CG311      CG321       HGA2
  128    67    68   130	 9 ;       HGA1      CG311      CG321       HGA2
  114    67    68    69	 9 ;      OG301      CG311      CG321     CG3RC1
  114    67    68   129	 9 ;      OG301      CG311      CG321       HGA2
  114    67    68   130	 9 ;      OG301      CG311      CG321       HGA2
   68    67   109    74	 9 ;      CG321      CG311      CG301      CG311
   68    67   109   108	 9 ;      CG321      CG311      CG301      CG2O5
   68    67   109   110	 9 ;      CG321      CG311      CG301      CG331
  128    67   109    74	 9 ;       HGA1      CG311      CG301      CG311
  128    67   109   108	 9 ;       HGA1      CG311      CG301      CG2O5
  128    67   109   110	 9 ;       HGA1      CG311      CG301      CG331
  114    67   109    74	 9 ;      OG301      CG311      CG301      CG311
  114    67   109   108	 9 ;      OG301      CG311      CG301      CG2O5
  114    67   109   110	 9 ;      OG301      CG311      CG301      CG331
   68    67   114    19	 9 ;      CG321      CG311      OG301      CG301
  109    67   114    19	 9 ;      CG301      CG311      OG301      CG301
  128    67   114    19	 9 ;       HGA1      CG311      OG301      CG301
   67    68    69    71	 9 ;      CG311      CG321     CG3RC1     CG3RC1
   67    68    69   115	 9 ;      CG311      CG321     CG3RC1     OG3C51
   67    68    69   131	 9 ;      CG311      CG321     CG3RC1       HGA1
  129    68    69    71	 9 ;       HGA2      CG321     CG3RC1     CG3RC1
  129    68    69   115	 9 ;       HGA2      CG321     CG3RC1     OG3C51
  129    68    69   131	 9 ;       HGA2      CG321     CG3RC1       HGA1
  130    68    69    71	 9 ;       HGA2      CG321     CG3RC1     CG3RC1
  130    68    69   115	 9 ;       HGA2      CG321     CG3RC1     OG3C51
  130    68    69   131	 9 ;       HGA2      CG321     CG3RC1       HGA1
   68    69    71    70	 9 ;      CG321     CG3RC1     CG3RC1     CG3C41
   68    69    71    74	 9 ;      CG321     CG3RC1     CG3RC1      CG311
   68    69    71   116	 9 ;      CG321     CG3RC1     CG3RC1      OG302
  115    69    71    70	 9 ;     OG3C51     CG3RC1     CG3RC1     CG3C41
  115    69    71    74	 9 ;     OG3C51     CG3RC1     CG3RC1      CG311
  115    69    71   116	 9 ;     OG3C51     CG3RC1     CG3RC1      OG302
  131    69    71    70	 9 ;       HGA1     CG3RC1     CG3RC1     CG3C41
  131    69    71    74	 9 ;       HGA1     CG3RC1     CG3RC1      CG311
  131    69    71   116	 9 ;       HGA1     CG3RC1     CG3RC1      OG302
   68    69   115    70	 9 ;      CG321     CG3RC1     OG3C51     CG3C41
   71    69   115    70	 9 ;     CG3RC1     CG3RC1     OG3C51     CG3C41
  131    69   115    70	 9 ;       HGA1     CG3RC1     OG3C51     CG3C41
  132    70    71    69	 9 ;       HGA2     CG3C41     CG3RC1     CG3RC1
  132    70    71    74	 9 ;       HGA2     CG3C41     CG3RC1      CG311
  132    70    71   116	 9 ;       HGA2     CG3C41     CG3RC1      OG302
  133    70    71    69	 9 ;       HGA2     CG3C41     CG3RC1     CG3RC1
  133    70    71    74	 9 ;       HGA2     CG3C41     CG3RC1      CG311
  133    70    71   116	 9 ;       HGA2     CG3C41     CG3RC1      OG302
  115    70    71    69	 9 ;     OG3C51     CG3C41     CG3RC1     CG3RC1
  115    70    71    74	 9 ;     OG3C51     CG3C41     CG3RC1      CG311
  115    70    71   116	 9 ;     OG3C51     CG3C41     CG3RC1      OG302
   71    70   115    69	 9 ;     CG3RC1     CG3C41     OG3C51     CG3RC1
  132    70   115    69	 9 ;       HGA2     CG3C41     OG3C51     CG3RC1
  133    70   115    69	 9 ;       HGA2     CG3C41     OG3C51     CG3RC1
   69    71    74    75	 9 ;     CG3RC1     CG3RC1      CG311      CG311
   69    71    74   109	 9 ;     CG3RC1     CG3RC1      CG311      CG301
   69    71    74   137	 9 ;     CG3RC1     CG3RC1      CG311       HGA1
   70    71    74    75	 9 ;     CG3C41     CG3RC1      CG311      CG311
   70    71    74   109	 9 ;     CG3C41     CG3RC1      CG311      CG301
   70    71    74   137	 9 ;     CG3C41     CG3RC1      CG311       HGA1
  116    71    74    75	 9 ;      OG302     CG3RC1      CG311      CG311
  116    71    74   109	 9 ;      OG302     CG3RC1      CG311      CG301
  116    71    74   137	 9 ;      OG302     CG3RC1      CG311       HGA1
   69    71   116    72	 9 ;     CG3RC1     CG3RC1      OG302      CG2O2
   70    71   116    72	 9 ;     CG3C41     CG3RC1      OG302      CG2O2
   74    71   116    72	 9 ;      CG311     CG3RC1      OG302      CG2O2
  117    72    73   134	 9 ;      OG2D1      CG2O2      CG331       HGA3
  117    72    73   135	 9 ;      OG2D1      CG2O2      CG331       HGA3
  117    72    73   136	 9 ;      OG2D1      CG2O2      CG331       HGA3
  116    72    73   134	 9 ;      OG302      CG2O2      CG331       HGA3
  116    72    73   135	 9 ;      OG302      CG2O2      CG331       HGA3
  116    72    73   136	 9 ;      OG302      CG2O2      CG331       HGA3
   73    72   116    71	 9 ;      CG331      CG2O2      OG302     CG3RC1
  117    72   116    71	 9 ;      OG2D1      CG2O2      OG302     CG3RC1
   71    74    75    83	 9 ;     CG3RC1      CG311      CG311      CG301
   71    74    75   118	 9 ;     CG3RC1      CG311      CG311      OG302
   71    74    75   138	 9 ;     CG3RC1      CG311      CG311       HGA1
  109    74    75    83	 9 ;      CG301      CG311      CG311      CG301
  109    74    75   118	 9 ;      CG301      CG311      CG311      OG302
  109    74    75   138	 9 ;      CG301      CG311      CG311       HGA1
  137    74    75    83	 9 ;       HGA1      CG311      CG311      CG301
  137    74    75   118	 9 ;       HGA1      CG311      CG311      OG302
  137    74    75   138	 9 ;       HGA1      CG311      CG311       HGA1
   71    74   109    67	 9 ;     CG3RC1      CG311      CG301      CG311
   71    74   109   108	 9 ;     CG3RC1      CG311      CG301      CG2O5
   71    74   109   110	 9 ;     CG3RC1      CG311      CG301      CG331
   75    74   109    67	 9 ;      CG311      CG311      CG301      CG311
   75    74   109   108	 9 ;      CG311      CG311      CG301      CG2O5
   75    74   109   110	 9 ;      CG311      CG311      CG301      CG331
  137    74   109    67	 9 ;       HGA1      CG311      CG301      CG311
  137    74   109   108	 9 ;       HGA1      CG311      CG301      CG2O5
  137    74   109   110	 9 ;       HGA1      CG311      CG301      CG331
   74    75    83    84	 9 ;      CG311      CG311      CG301      CG321
   74    75    83   111	 9 ;      CG311      CG311      CG301      CG301
   74    75    83   120	 9 ;      CG311      CG311      CG301      OG311
  118    75    83    84	 9 ;      OG302      CG311      CG301      CG321
  118    75    83   111	 9 ;      OG302      CG311      CG301      CG301
  118    75    83   120	 9 ;      OG302      CG311      CG301      OG311
  138    75    83    84	 9 ;       HGA1      CG311      CG301      CG321
  138    75    83   111	 9 ;       HGA1      CG311      CG301      CG301
  138    75    83   120	 9 ;       HGA1      CG311      CG301      OG311
   74    75   118    76	 9 ;      CG311      CG311      OG302      CG2O2
   83    75   118    76	 9 ;      CG301      CG311      OG302      CG2O2
  138    75   118    76	 9 ;       HGA1      CG311      OG302      CG2O2
  119    76    77    78	 9 ;      OG2D1      CG2O2     CG2R61     CG2R61
  119    76    77    82	 9 ;      OG2D1      CG2O2     CG2R61     CG2R61
  118    76    77    78	 9 ;      OG302      CG2O2     CG2R61     CG2R61
  118    76    77    82	 9 ;      OG302      CG2O2     CG2R61     CG2R61
   77    76   118    75	 9 ;     CG2R61      CG2O2      OG302      CG311
  119    76   118    75	 9 ;      OG2D1      CG2O2      OG302      CG311
   76    77    78    79	 9 ;      CG2O2     CG2R61     CG2R61     CG2R61
   76    77    78   139	 9 ;      CG2O2     CG2R61     CG2R61      HGR61
   82    77    78    79	 9 ;     CG2R61     CG2R61     CG2R61     CG2R61
   82    77    78   139	 9 ;     CG2R61     CG2R61     CG2R61      HGR61
   76    77    82    81	 9 ;      CG2O2     CG2R61     CG2R61     CG2R61
   76    77    82   143	 9 ;      CG2O2     CG2R61     CG2R61      HGR61
   78    77    82    81	 9 ;     CG2R61     CG2R61     CG2R61     CG2R61
   78    77    82   143	 9 ;     CG2R61     CG2R61     CG2R61      HGR61
   77    78    79    80	 9 ;     CG2R61     CG2R61     CG2R61     CG2R61
   77    78    79   140	 9 ;     CG2R61     CG2R61     CG2R61      HGR61
  139    78    79    80	 9 ;      HGR61     CG2R61     CG2R61     CG2R61
  139    78    79   140	 9 ;      HGR61     CG2R61     CG2R61      HGR61
   78    79    80    81	 9 ;     CG2R61     CG2R61     CG2R61     CG2R61
   78    79    80   141	 9 ;     CG2R61     CG2R61     CG2R61      HGR61
  140    79    80    81	 9 ;      HGR61     CG2R61     CG2R61     CG2R61
  140    79    80   141	 9 ;      HGR61     CG2R61     CG2R61      HGR61
   79    80    81    82	 9 ;     CG2R61     CG2R61     CG2R61     CG2R61
   79    80    81   142	 9 ;     CG2R61     CG2R61     CG2R61      HGR61
  141    80    81    82	 9 ;      HGR61     CG2R61     CG2R61     CG2R61
  141    80    81   142	 9 ;      HGR61     CG2R61     CG2R61      HGR61
   80    81    82    77	 9 ;     CG2R61     CG2R61     CG2R61     CG2R61
   80    81    82   143	 9 ;     CG2R61     CG2R61     CG2R61      HGR61
  142    81    82    77	 9 ;      HGR61     CG2R61     CG2R61     CG2R61
  142    81    82   143	 9 ;      HGR61     CG2R61     CG2R61      HGR61
   75    83    84    85	 9 ;      CG311      CG301      CG321      CG311
   75    83    84   145	 9 ;      CG311      CG301      CG321       HGA2
   75    83    84   146	 9 ;      CG311      CG301      CG321       HGA2
  111    83    84    85	 9 ;      CG301      CG301      CG321      CG311
  111    83    84   145	 9 ;      CG301      CG301      CG321       HGA2
  111    83    84   146	 9 ;      CG301      CG301      CG321       HGA2
  120    83    84    85	 9 ;      OG311      CG301      CG321      CG311
  120    83    84   145	 9 ;      OG311      CG301      CG321       HGA2
  120    83    84   146	 9 ;      OG311      CG301      CG321       HGA2
   75    83   111   104	 9 ;      CG311      CG301      CG301      CG2D1
   75    83   111   112	 9 ;      CG311      CG301      CG301      CG331
   75    83   111   113	 9 ;      CG311      CG301      CG301      CG331
   84    83   111   104	 9 ;      CG321      CG301      CG301      CG2D1
   84    83   111   112	 9 ;      CG321      CG301      CG301      CG331
   84    83   111   113	 9 ;      CG321      CG301      CG301      CG331
  120    83   111   104	 9 ;      OG311      CG301      CG301      CG2D1
  120    83   111   112	 9 ;      OG311      CG301      CG301      CG331
  120    83   111   113	 9 ;      OG311      CG301      CG301      CG331
   75    83   120   144	 9 ;      CG311      CG301      OG311       HGP1
   84    83   120   144	 9 ;      CG321      CG301      OG311       HGP1
  111    83   120   144	 9 ;      CG301      CG301      OG311       HGP1
   83    84    85   102	 9 ;      CG301      CG321      CG311      CG2D1
   83    84    85   121	 9 ;      CG301      CG321      CG311      OG302
   83    84    85   147	 9 ;      CG301      CG321      CG311       HGA1
  145    84    85   102	 9 ;       HGA2      CG321      CG311      CG2D1
  145    84    85   121	 9 ;       HGA2      CG321      CG311      OG302
  145    84    85   147	 9 ;       HGA2      CG321      CG311       HGA1
  146    84    85   102	 9 ;       HGA2      CG321      CG311      CG2D1
  146    84    85   121	 9 ;       HGA2      CG321      CG311      OG302
  146    84    85   147	 9 ;       HGA2      CG321      CG311       HGA1
   84    85   102   103	 9 ;      CG321      CG311      CG2D1      CG331
   84    85   102   104	 9 ;      CG321      CG311      CG2D1      CG2D1
  121    85   102   103	 9 ;      OG302      CG311      CG2D1      CG331
  121    85   102   104	 9 ;      OG302      CG311      CG2D1      CG2D1
  147    85   102   103	 9 ;       HGA1      CG311      CG2D1      CG331
  147    85   102   104	 9 ;       HGA1      CG311      CG2D1      CG2D1
   84    85   121    86	 9 ;      CG321      CG311      OG302      CG2O2
  102    85   121    86	 9 ;      CG2D1      CG311      OG302      CG2O2
  147    85   121    86	 9 ;       HGA1      CG311      OG302      CG2O2
  122    86    87    88	 9 ;      OG2D1      CG2O2      CG311      CG311
  122    86    87   123	 9 ;      OG2D1      CG2O2      CG311      OG311
  122    86    87   148	 9 ;      OG2D1      CG2O2      CG311       HGA1
  121    86    87    88	 9 ;      OG302      CG2O2      CG311      CG311
  121    86    87   123	 9 ;      OG302      CG2O2      CG311      OG311
  121    86    87   148	 9 ;      OG302      CG2O2      CG311       HGA1
   87    86   121    85	 9 ;      CG311      CG2O2      OG302      CG311
  122    86   121    85	 9 ;      OG2D1      CG2O2      OG302      CG311
   86    87    88    66	 9 ;      CG2O2      CG311      CG311      NG2S1
   86    87    88    96	 9 ;      CG2O2      CG311      CG311     CG2R61
   86    87    88   150	 9 ;      CG2O2      CG311      CG311       HGA1
  123    87    88    66	 9 ;      OG311      CG311      CG311      NG2S1
  123    87    88    96	 9 ;      OG311      CG311      CG311     CG2R61
  123    87    88   150	 9 ;      OG311      CG311      CG311       HGA1
  148    87    88    66	 9 ;       HGA1      CG311      CG311      NG2S1
  148    87    88    96	 9 ;       HGA1      CG311      CG311     CG2R61
  148    87    88   150	 9 ;       HGA1      CG311      CG311       HGA1
   86    87   123   149	 9 ;      CG2O2      CG311      OG311       HGP1
   88    87   123   149	 9 ;      CG311      CG311      OG311       HGP1
  148    87   123   149	 9 ;       HGA1      CG311      OG311       HGP1
   87    88    96    97	 9 ;      CG311      CG311     CG2R61     CG2R61
   87    88    96   101	 9 ;      CG311      CG311     CG2R61     CG2R61
   66    88    96    97	 9 ;      NG2S1      CG311     CG2R61     CG2R61
   66    88    96   101	 9 ;      NG2S1      CG311     CG2R61     CG2R61
  150    88    96    97	 9 ;       HGA1      CG311     CG2R61     CG2R61
  150    88    96   101	 9 ;       HGA1      CG311     CG2R61     CG2R61
   66    89    90    91	 9 ;      NG2S1      CG2O1     CG2R61     CG2R61
   66    89    90    95	 9 ;      NG2S1      CG2O1     CG2R61     CG2R61
  124    89    90    91	 9 ;      OG2D1      CG2O1     CG2R61     CG2R61
  124    89    90    95	 9 ;      OG2D1      CG2O1     CG2R61     CG2R61
   89    90    91    92	 9 ;      CG2O1     CG2R61     CG2R61     CG2R61
   89    90    91   152	 9 ;      CG2O1     CG2R61     CG2R61      HGR61
   95    90    91    92	 9 ;     CG2R61     CG2R61     CG2R61     CG2R61
   95    90    91   152	 9 ;     CG2R61     CG2R61     CG2R61      HGR61
   89    90    95    94	 9 ;      CG2O1     CG2R61     CG2R61     CG2R61
   89    90    95   156	 9 ;      CG2O1     CG2R61     CG2R61      HGR61
   91    90    95    94	 9 ;     CG2R61     CG2R61     CG2R61     CG2R61
   91    90    95   156	 9 ;     CG2R61     CG2R61     CG2R61      HGR61
   90    91    92    93	 9 ;     CG2R61     CG2R61     CG2R61     CG2R61
   90    91    92   153	 9 ;     CG2R61     CG2R61     CG2R61      HGR61
  152    91    92    93	 9 ;      HGR61     CG2R61     CG2R61     CG2R61
  152    91    92   153	 9 ;      HGR61     CG2R61     CG2R61      HGR61
   91    92    93    94	 9 ;     CG2R61     CG2R61     CG2R61     CG2R61
   91    92    93   154	 9 ;     CG2R61     CG2R61     CG2R61      HGR61
  153    92    93    94	 9 ;      HGR61     CG2R61     CG2R61     CG2R61
  153    92    93   154	 9 ;      HGR61     CG2R61     CG2R61      HGR61
   92    93    94    95	 9 ;     CG2R61     CG2R61     CG2R61     CG2R61
   92    93    94   155	 9 ;     CG2R61     CG2R61     CG2R61      HGR61
  154    93    94    95	 9 ;      HGR61     CG2R61     CG2R61     CG2R61
  154    93    94   155	 9 ;      HGR61     CG2R61     CG2R61      HGR61
   93    94    95    90	 9 ;     CG2R61     CG2R61     CG2R61     CG2R61
   93    94    95   156	 9 ;     CG2R61     CG2R61     CG2R61      HGR61
  155    94    95    90	 9 ;      HGR61     CG2R61     CG2R61     CG2R61
  155    94    95   156	 9 ;      HGR61     CG2R61     CG2R61      HGR61
   88    96    97    98	 9 ;      CG311     CG2R61     CG2R61     CG2R61
   88    96    97   157	 9 ;      CG311     CG2R61     CG2R61      HGR61
  101    96    97    98	 9 ;     CG2R61     CG2R61     CG2R61     CG2R61
  101    96    97   157	 9 ;     CG2R61     CG2R61     CG2R61      HGR61
   88    96   101   100	 9 ;      CG311     CG2R61     CG2R61     CG2R61
   88    96   101   161	 9 ;      CG311     CG2R61     CG2R61      HGR61
   97    96   101   100	 9 ;     CG2R61     CG2R61     CG2R61     CG2R61
   97    96   101   161	 9 ;     CG2R61     CG2R61     CG2R61      HGR61
   96    97    98    99	 9 ;     CG2R61     CG2R61     CG2R61     CG2R61
   96    97    98   158	 9 ;     CG2R61     CG2R61     CG2R61      HGR61
  157    97    98    99	 9 ;      HGR61     CG2R61     CG2R61     CG2R61
  157    97    98   158	 9 ;      HGR61     CG2R61     CG2R61      HGR61
   97    98    99   100	 9 ;     CG2R61     CG2R61     CG2R61     CG2R61
   97    98    99   159	 9 ;     CG2R61     CG2R61     CG2R61      HGR61
  158    98    99   100	 9 ;      HGR61     CG2R61     CG2R61     CG2R61
  158    98    99   159	 9 ;      HGR61     CG2R61     CG2R61      HGR61
   98    99   100   101	 9 ;     CG2R61     CG2R61     CG2R61     CG2R61
   98    99   100   160	 9 ;     CG2R61     CG2R61     CG2R61      HGR61
  159    99   100   101	 9 ;      HGR61     CG2R61     CG2R61     CG2R61
  159    99   100   160	 9 ;      HGR61     CG2R61     CG2R61      HGR61
   99   100   101    96	 9 ;     CG2R61     CG2R61     CG2R61     CG2R61
   99   100   101   161	 9 ;     CG2R61     CG2R61     CG2R61      HGR61
  160   100   101    96	 9 ;      HGR61     CG2R61     CG2R61     CG2R61
  160   100   101   161	 9 ;      HGR61     CG2R61     CG2R61      HGR61
   85   102   103   162	 9 ;      CG311      CG2D1      CG331       HGA3
   85   102   103   163	 9 ;      CG311      CG2D1      CG331       HGA3
   85   102   103   164	 9 ;      CG311      CG2D1      CG331       HGA3
  104   102   103   162	 9 ;      CG2D1      CG2D1      CG331       HGA3
  104   102   103   163	 9 ;      CG2D1      CG2D1      CG331       HGA3
  104   102   103   164	 9 ;      CG2D1      CG2D1      CG331       HGA3
   85   102   104   105	 9 ;      CG311      CG2D1      CG2D1      CG311
   85   102   104   111	 9 ;      CG311      CG2D1      CG2D1      CG301
  103   102   104   105	 9 ;      CG331      CG2D1      CG2D1      CG311
  103   102   104   111	 9 ;      CG331      CG2D1      CG2D1      CG301
  102   104   105   108	 9 ;      CG2D1      CG2D1      CG311      CG2O5
  102   104   105   125	 9 ;      CG2D1      CG2D1      CG311      OG302
  102   104   105   165	 9 ;      CG2D1      CG2D1      CG311       HGA1
  111   104   105   108	 9 ;      CG301      CG2D1      CG311      CG2O5
  111   104   105   125	 9 ;      CG301      CG2D1      CG311      OG302
  111   104   105   165	 9 ;      CG301      CG2D1      CG311       HGA1
  102   104   111    83	 9 ;      CG2D1      CG2D1      CG301      CG301
  102   104   111   112	 9 ;      CG2D1      CG2D1      CG301      CG331
  102   104   111   113	 9 ;      CG2D1      CG2D1      CG301      CG331
  105   104   111    83	 9 ;      CG311      CG2D1      CG301      CG301
  105   104   111   112	 9 ;      CG311      CG2D1      CG301      CG331
  105   104   111   113	 9 ;      CG311      CG2D1      CG301      CG331
  104   105   108   109	 9 ;      CG2D1      CG311      CG2O5      CG301
  104   105   108   127	 9 ;      CG2D1      CG311      CG2O5      OG2D3
  125   105   108   109	 9 ;      OG302      CG311      CG2O5      CG301
  125   105   108   127	 9 ;      OG302      CG311      CG2O5      OG2D3
  165   105   108   109	 9 ;       HGA1      CG311      CG2O5      CG301
  165   105   108   127	 9 ;       HGA1      CG311      CG2O5      OG2D3
  104   105   125   106	 9 ;      CG2D1      CG311      OG302      CG2O2
  108   105   125   106	 9 ;      CG2O5      CG311      OG302      CG2O2
  165   105   125   106	 9 ;       HGA1      CG311      OG302      CG2O2
  126   106   107   166	 9 ;      OG2D1      CG2O2      CG331       HGA3
  126   106   107   167	 9 ;      OG2D1      CG2O2      CG331       HGA3
  126   106   107   168	 9 ;      OG2D1      CG2O2      CG331       HGA3
  125   106   107   166	 9 ;      OG302      CG2O2      CG331       HGA3
  125   106   107   167	 9 ;      OG302      CG2O2      CG331       HGA3
  125   106   107   168	 9 ;      OG302      CG2O2      CG331       HGA3
  107   106   125   105	 9 ;      CG331      CG2O2      OG302      CG311
  126   106   125   105	 9 ;      OG2D1      CG2O2      OG302      CG311
  105   108   109    67	 9 ;      CG311      CG2O5      CG301      CG311
  105   108   109    74	 9 ;      CG311      CG2O5      CG301      CG311
  105   108   109   110	 9 ;      CG311      CG2O5      CG301      CG331
  127   108   109    67	 9 ;      OG2D3      CG2O5      CG301      CG311
  127   108   109    74	 9 ;      OG2D3      CG2O5      CG301      CG311
  127   108   109   110	 9 ;      OG2D3      CG2O5      CG301      CG331
   67   109   110   169	 9 ;      CG311      CG301      CG331       HGA3
   67   109   110   170	 9 ;      CG311      CG301      CG331       HGA3
   67   109   110   171	 9 ;      CG311      CG301      CG331       HGA3
   74   109   110   169	 9 ;      CG311      CG301      CG331       HGA3
   74   109   110   170	 9 ;      CG311      CG301      CG331       HGA3
   74   109   110   171	 9 ;      CG311      CG301      CG331       HGA3
  108   109   110   169	 9 ;      CG2O5      CG301      CG331       HGA3
  108   109   110   170	 9 ;      CG2O5      CG301      CG331       HGA3
  108   109   110   171	 9 ;      CG2O5      CG301      CG331       HGA3
   83   111   112   172	 9 ;      CG301      CG301      CG331       HGA3
   83   111   112   173	 9 ;      CG301      CG301      CG331       HGA3
   83   111   112   174	 9 ;      CG301      CG301      CG331       HGA3
  104   111   112   172	 9 ;      CG2D1      CG301      CG331       HGA3
  104   111   112   173	 9 ;      CG2D1      CG301      CG331       HGA3
  104   111   112   174	 9 ;      CG2D1      CG301      CG331       HGA3
  113   111   112   172	 9 ;      CG331      CG301      CG331       HGA3
  113   111   112   173	 9 ;      CG331      CG301      CG331       HGA3
  113   111   112   174	 9 ;      CG331      CG301      CG331       HGA3
   83   111   113   175	 9 ;      CG301      CG301      CG331       HGA3
   83   111   113   176	 9 ;      CG301      CG301      CG331       HGA3
   83   111   113   177	 9 ;      CG301      CG301      CG331       HGA3
  104   111   113   175	 9 ;      CG2D1      CG301      CG331       HGA3
  104   111   113   176	 9 ;      CG2D1      CG301      CG331       HGA3
  104   111   113   177	 9 ;      CG2D1      CG301      CG331       HGA3
  112   111   113   175	 9 ;      CG331      CG301      CG331       HGA3
  112   111   113   176	 9 ;      CG331      CG301      CG331       HGA3
  112   111   113   177	 9 ;      CG331      CG301      CG331       HGA3

[ dihedrals ]
;	ai	  aj	ak	  al funct			  c0			c1			  c2			c3
   72    73   117   116	 2
   76    77   119   118	 2
   86    87   122   121	 2
   89    90    66   124	 2
  106   107   126   125	 2
  108   109   105   127	 2

