; Created by cgenff_charmm2gmx.py

[ moleculetype ]
; Name			   nrexcl
PTX				 3

[ atoms ]
;	 nr		  type	resnr residue  atom   cgnr	   charge		mass  typeB    chargeB		massB
; residue	 1 PTX rtp PTX q	qsum
     1      CG331      1    PTL     C1      1     -0.273     12.011   ;
     2      CG321      1    PTL     C2      2     -0.177     12.011   ;
     3      CG321      1    PTL     C3      3     -0.181     12.011   ;
     4      CG321      1    PTL     C4      4     -0.179     12.011   ;
     5      CG321      1    PTL     C5      5     -0.180     12.011   ;
     6      CG321      1    PTL     C6      6     -0.180     12.011   ;
     7      CG321      1    PTL     C7      7     -0.180     12.011   ;
     8      CG321      1    PTL     C8      8     -0.180     12.011   ;
     9      CG321      1    PTL     C9      9     -0.180     12.011   ;
    10      CG321      1    PTL    C10     10     -0.180     12.011   ;
    11      CG321      1    PTL    C11     11     -0.180     12.011   ;
    12      CG321      1    PTL    C12     12     -0.180     12.011   ;
    13      CG321      1    PTL    C13     13     -0.180     12.011   ;
    14      CG321      1    PTL    C14     14     -0.180     12.011   ;
    15      CG321      1    PTL    C15     15     -0.180     12.011   ;
    16      CG321      1    PTL    C16     16     -0.180     12.011   ;
    17      CG321      1    PTL    C17     17     -0.180     12.011   ;
    18      CG321      1    PTL    C18     18      0.036     12.011   ;
    19      CG301      1    PTL    C19     19      0.370     12.011   ;
    20      CG331      1    PTL    C20     20     -0.269     12.011   ;
    21      CG331      1    PTL    C21     21     -0.269     12.011   ;
    22      OG301      1    PTL     O1     22     -0.402     15.999   ;
    23       HGA3      1    PTL     H1     23      0.090      1.008   ;
    24       HGA3      1    PTL     H2     24      0.090      1.008   ;
    25       HGA3      1    PTL     H3     25      0.090      1.008   ;
    26       HGA2      1    PTL     H4     26      0.090      1.008   ;
    27       HGA2      1    PTL     H5     27      0.090      1.008   ;
    28       HGA2      1    PTL     H6     28      0.090      1.008   ;
    29       HGA2      1    PTL     H7     29      0.090      1.008   ;
    30       HGA2      1    PTL     H8     30      0.090      1.008   ;
    31       HGA2      1    PTL     H9     31      0.090      1.008   ;
    32       HGA2      1    PTL    H10     32      0.090      1.008   ;
    33       HGA2      1    PTL    H11     33      0.090      1.008   ;
    34       HGA2      1    PTL    H12     34      0.090      1.008   ;
    35       HGA2      1    PTL    H13     35      0.090      1.008   ;
    36       HGA2      1    PTL    H14     36      0.090      1.008   ;
    37       HGA2      1    PTL    H15     37      0.090      1.008   ;
    38       HGA2      1    PTL    H16     38      0.090      1.008   ;
    39       HGA2      1    PTL    H17     39      0.090      1.008   ;
    40       HGA2      1    PTL    H18     40      0.090      1.008   ;
    41       HGA2      1    PTL    H19     41      0.090      1.008   ;
    42       HGA2      1    PTL    H20     42      0.090      1.008   ;
    43       HGA2      1    PTL    H21     43      0.090      1.008   ;
    44       HGA2      1    PTL    H22     44      0.090      1.008   ;
    45       HGA2      1    PTL    H23     45      0.090      1.008   ;
    46       HGA2      1    PTL    H24     46      0.090      1.008   ;
    47       HGA2      1    PTL    H25     47      0.090      1.008   ;
    48       HGA2      1    PTL    H26     48      0.090      1.008   ;
    49       HGA2      1    PTL    H27     49      0.090      1.008   ;
    50       HGA2      1    PTL    H28     50      0.090      1.008   ;
    51       HGA2      1    PTL    H29     51      0.090      1.008   ;
    52       HGA2      1    PTL    H30     52      0.090      1.008   ;
    53       HGA2      1    PTL    H31     53      0.090      1.008   ;
    54       HGA2      1    PTL    H32     54      0.090      1.008   ;
    55       HGA2      1    PTL    H33     55      0.090      1.008   ;
    56       HGA2      1    PTL    H34     56      0.090      1.008   ;
    57       HGA2      1    PTL    H35     57      0.090      1.008   ;
    58       HGA2      1    PTL    H36     58      0.090      1.008   ;
    59       HGA2      1    PTL    H37     59      0.090      1.008   ;
    60       HGA3      1    PTL    H38     60      0.090      1.008   ;
    61       HGA3      1    PTL    H39     61      0.090      1.008   ;
    62       HGA3      1    PTL    H40     62      0.090      1.008   ;
    63       HGA3      1    PTL    H41     63      0.090      1.008   ;
    64       HGA3      1    PTL    H42     64      0.090      1.008   ;
    65       HGA3      1    PTL    H43     65      0.090      1.008   ;
    66      CG321      1    PTX    C22     66      0.036     12.011   ;
    67      CG321      1    PTX    C23     67     -0.180     12.011   ;
    68      CG321      1    PTX    C24     68     -0.180     12.011   ;
    69      CG321      1    PTX    C25     69     -0.180     12.011   ;
    70      CG321      1    PTX    C26     70     -0.180     12.011   ;
    71      CG321      1    PTX    C27     71     -0.180     12.011   ;
    72      CG321      1    PTX    C28     72     -0.180     12.011   ;
    73      CG321      1    PTX    C29     73     -0.122     12.011   ;
    74      CG321      1    PTX    C30     74     -0.167     12.011   ;
    75      CG321      1    PTX    C31     75     -0.274     12.011   ;
    76     CG2DC1      1    PTX    C32     76     -0.045     12.011   ;
    77     CG2DC1      1    PTX    C33     77      0.072     12.011   ;
    78      CG331      1    PTX    C34     78     -0.241     12.011   ;
    79      CG2O5      1    PTX    C35     79      0.343     12.011   ;
    80     CG2D1O      1    PTX    C36     80     -0.037     12.011   ;
    81      CG331      1    PTX    C37     81      0.012     12.011   ;
    82     CG2D1O      1    PTX    C38     82     -0.037     12.011   ;
    83      CG331      1    PTX    C39     83      0.012     12.011   ;
    84      CG2O5      1    PTX    C40     84      0.374     12.011   ;
    85      OG301      1    PTX     O2     85     -0.402     15.999   ;
    86      OG2D3      1    PTX     O3     86     -0.247     15.999   ;
    87      OG301      1    PTX     O4     87     -0.373     15.999   ;
    88      OG301      1    PTX     O5     88     -0.373     15.999   ;
    89      OG2D3      1    PTX     O6     89     -0.247     15.999   ;
    90       HGA2      1    PTX    H44     90      0.090      1.008   ;
    91       HGA2      1    PTX    H45     91      0.090      1.008   ;
    92       HGA2      1    PTX    H46     92      0.090      1.008   ;
    93       HGA2      1    PTX    H47     93      0.090      1.008   ;
    94       HGA2      1    PTX    H48     94      0.090      1.008   ;
    95       HGA2      1    PTX    H49     95      0.090      1.008   ;
    96       HGA2      1    PTX    H50     96      0.090      1.008   ;
    97       HGA2      1    PTX    H51     97      0.090      1.008   ;
    98       HGA2      1    PTX    H52     98      0.090      1.008   ;
    99       HGA2      1    PTX    H53     99      0.090      1.008   ;
   100       HGA2      1    PTX    H54    100      0.090      1.008   ;
   101       HGA2      1    PTX    H55    101      0.090      1.008   ;
   102       HGA2      1    PTX    H56    102      0.090      1.008   ;
   103       HGA2      1    PTX    H57    103      0.090      1.008   ;
   104       HGA2      1    PTX    H58    104      0.090      1.008   ;
   105       HGA2      1    PTX    H59    105      0.090      1.008   ;
   106       HGA2      1    PTX    H60    106      0.090      1.008   ;
   107       HGA2      1    PTX    H61    107      0.090      1.008   ;
   108       HGA2      1    PTX    H62    108      0.090      1.008   ;
   109       HGA2      1    PTX    H63    109      0.090      1.008   ;
   110       HGA3      1    PTX    H64    110      0.090      1.008   ;
   111       HGA3      1    PTX    H65    111      0.090      1.008   ;
   112       HGA3      1    PTX    H66    112      0.090      1.008   ;
   113       HGA3      1    PTX    H67    113      0.090      1.008   ;
   114       HGA3      1    PTX    H68    114      0.090      1.008   ;
   115       HGA3      1    PTX    H69    115      0.090      1.008   ;
   116       HGA3      1    PTX    H70    116      0.090      1.008   ;
   117       HGA3      1    PTX    H71    117      0.090      1.008   ;
   118       HGA3      1    PTX    H72    118      0.090      1.008   ;

[ bonds ]
;	ai	  aj funct			  c0			c1			  c2			c3
    1     2	 1 ;       CG331      CG321
    1    23	 1 ;       CG331       HGA3
    1    24	 1 ;       CG331       HGA3
    1    25	 1 ;       CG331       HGA3
    2     3	 1 ;       CG321      CG321
    2    26	 1 ;       CG321       HGA2
    2    27	 1 ;       CG321       HGA2
    3     4	 1 ;       CG321      CG321
    3    28	 1 ;       CG321       HGA2
    3    29	 1 ;       CG321       HGA2
    4     5	 1 ;       CG321      CG321
    4    30	 1 ;       CG321       HGA2
    4    31	 1 ;       CG321       HGA2
    5     6	 1 ;       CG321      CG321
    5    32	 1 ;       CG321       HGA2
    5    33	 1 ;       CG321       HGA2
    6     7	 1 ;       CG321      CG321
    6    34	 1 ;       CG321       HGA2
    6    35	 1 ;       CG321       HGA2
    7     8	 1 ;       CG321      CG321
    7    36	 1 ;       CG321       HGA2
    7    37	 1 ;       CG321       HGA2
    8     9	 1 ;       CG321      CG321
    8    38	 1 ;       CG321       HGA2
    8    39	 1 ;       CG321       HGA2
    9    10	 1 ;       CG321      CG321
    9    40	 1 ;       CG321       HGA2
    9    41	 1 ;       CG321       HGA2
   10    11	 1 ;       CG321      CG321
   10    42	 1 ;       CG321       HGA2
   10    43	 1 ;       CG321       HGA2
   11    12	 1 ;       CG321      CG321
   11    44	 1 ;       CG321       HGA2
   11    45	 1 ;       CG321       HGA2
   12    13	 1 ;       CG321      CG321
   12    46	 1 ;       CG321       HGA2
   12    47	 1 ;       CG321       HGA2
   13    14	 1 ;       CG321      CG321
   13    48	 1 ;       CG321       HGA2
   13    49	 1 ;       CG321       HGA2
   14    15	 1 ;       CG321      CG321
   14    50	 1 ;       CG321       HGA2
   14    51	 1 ;       CG321       HGA2
   15    16	 1 ;       CG321      CG321
   15    52	 1 ;       CG321       HGA2
   15    53	 1 ;       CG321       HGA2
   16    17	 1 ;       CG321      CG321
   16    54	 1 ;       CG321       HGA2
   16    55	 1 ;       CG321       HGA2
   17    18	 1 ;       CG321      CG321
   17    56	 1 ;       CG321       HGA2
   17    57	 1 ;       CG321       HGA2
   18    22	 1 ;       CG321      OG301
   18    58	 1 ;       CG321       HGA2
   18    59	 1 ;       CG321       HGA2
   19    20	 1 ;       CG301      CG331
   19    21	 1 ;       CG301      CG331
   19    85	 1 ;       CG301      OG301
   19    22	 1 ;       CG301      OG301
   20    60	 1 ;       CG331       HGA3
   20    61	 1 ;       CG331       HGA3
   20    62	 1 ;       CG331       HGA3
   21    63	 1 ;       CG331       HGA3
   21    64	 1 ;       CG331       HGA3
   21    65	 1 ;       CG331       HGA3
   66    67	 1 ;       CG321      CG321
   66    90	 1 ;       CG321       HGA2
   66    91	 1 ;       CG321       HGA2
   66    85	 1 ;       CG321      OG301
   67    68	 1 ;       CG321      CG321
   67    92	 1 ;       CG321       HGA2
   67    93	 1 ;       CG321       HGA2
   68    69	 1 ;       CG321      CG321
   68    94	 1 ;       CG321       HGA2
   68    95	 1 ;       CG321       HGA2
   69    70	 1 ;       CG321      CG321
   69    96	 1 ;       CG321       HGA2
   69    97	 1 ;       CG321       HGA2
   70    71	 1 ;       CG321      CG321
   70    98	 1 ;       CG321       HGA2
   70    99	 1 ;       CG321       HGA2
   71    72	 1 ;       CG321      CG321
   71   100	 1 ;       CG321       HGA2
   71   101	 1 ;       CG321       HGA2
   72    73	 1 ;       CG321      CG321
   72   102	 1 ;       CG321       HGA2
   72   103	 1 ;       CG321       HGA2
   73    74	 1 ;       CG321      CG321
   73   104	 1 ;       CG321       HGA2
   73   105	 1 ;       CG321       HGA2
   74    75	 1 ;       CG321      CG321
   74   106	 1 ;       CG321       HGA2
   74   107	 1 ;       CG321       HGA2
   75    76	 1 ;       CG321     CG2DC1
   75   108	 1 ;       CG321       HGA2
   75   109	 1 ;       CG321       HGA2
   76    77	 1 ;      CG2DC1     CG2DC1
   76    84	 1 ;      CG2DC1      CG2O5
   77    78	 1 ;      CG2DC1      CG331
   77    79	 1 ;      CG2DC1      CG2O5
   78   110	 1 ;       CG331       HGA3
   78   111	 1 ;       CG331       HGA3
   78   112	 1 ;       CG331       HGA3
   79    80	 1 ;       CG2O5     CG2D1O
   79    86	 1 ;       CG2O5      OG2D3
   80    82	 1 ;      CG2D1O     CG2D1O
   80    87	 1 ;      CG2D1O      OG301
   81   113	 1 ;       CG331       HGA3
   81   114	 1 ;       CG331       HGA3
   81   115	 1 ;       CG331       HGA3
   81    87	 1 ;       CG331      OG301
   82    84	 1 ;      CG2D1O      CG2O5
   82    88	 1 ;      CG2D1O      OG301
   83   116	 1 ;       CG331       HGA3
   83   117	 1 ;       CG331       HGA3
   83   118	 1 ;       CG331       HGA3
   83    88	 1 ;       CG331      OG301
   84    89	 1 ;       CG2O5      OG2D3

[ pairs ]
;	ai	  aj funct			  c0			c1			  c2			c3
    1     4	 1
    1    28	 1
    1    29	 1
    2     5	 1
    2    30	 1
    2    31	 1
    3    23	 1
    3    24	 1
    3    25	 1
    3     6	 1
    3    32	 1
    3    33	 1
    4    26	 1
    4    27	 1
    4     7	 1
    4    34	 1
    4    35	 1
    5    28	 1
    5    29	 1
    5     8	 1
    5    36	 1
    5    37	 1
    6    30	 1
    6    31	 1
    6     9	 1
    6    38	 1
    6    39	 1
    7    32	 1
    7    33	 1
    7    10	 1
    7    40	 1
    7    41	 1
    8    34	 1
    8    35	 1
    8    11	 1
    8    42	 1
    8    43	 1
    9    36	 1
    9    37	 1
    9    12	 1
    9    44	 1
    9    45	 1
   10    38	 1
   10    39	 1
   10    13	 1
   10    46	 1
   10    47	 1
   11    40	 1
   11    41	 1
   11    14	 1
   11    48	 1
   11    49	 1
   12    42	 1
   12    43	 1
   12    15	 1
   12    50	 1
   12    51	 1
   13    44	 1
   13    45	 1
   13    16	 1
   13    52	 1
   13    53	 1
   14    46	 1
   14    47	 1
   14    17	 1
   14    54	 1
   14    55	 1
   15    48	 1
   15    49	 1
   15    18	 1
   15    56	 1
   15    57	 1
   16    50	 1
   16    51	 1
   16    22	 1
   16    58	 1
   16    59	 1
   17    52	 1
   17    53	 1
   17    19	 1
   18    54	 1
   18    55	 1
   18    20	 1
   18    21	 1
   18    85	 1
   19    58	 1
   19    59	 1
   19    67	 1
   19    90	 1
   19    91	 1
   20    63	 1
   20    64	 1
   20    65	 1
   20    66	 1
   21    60	 1
   21    61	 1
   21    62	 1
   21    66	 1
   22    56	 1
   22    57	 1
   22    60	 1
   22    61	 1
   22    62	 1
   22    63	 1
   22    64	 1
   22    65	 1
   22    66	 1
   23    26	 1
   23    27	 1
   24    26	 1
   24    27	 1
   25    26	 1
   25    27	 1
   26    28	 1
   26    29	 1
   27    28	 1
   27    29	 1
   28    30	 1
   28    31	 1
   29    30	 1
   29    31	 1
   30    32	 1
   30    33	 1
   31    32	 1
   31    33	 1
   32    34	 1
   32    35	 1
   33    34	 1
   33    35	 1
   34    36	 1
   34    37	 1
   35    36	 1
   35    37	 1
   36    38	 1
   36    39	 1
   37    38	 1
   37    39	 1
   38    40	 1
   38    41	 1
   39    40	 1
   39    41	 1
   40    42	 1
   40    43	 1
   41    42	 1
   41    43	 1
   42    44	 1
   42    45	 1
   43    44	 1
   43    45	 1
   44    46	 1
   44    47	 1
   45    46	 1
   45    47	 1
   46    48	 1
   46    49	 1
   47    48	 1
   47    49	 1
   48    50	 1
   48    51	 1
   49    50	 1
   49    51	 1
   50    52	 1
   50    53	 1
   51    52	 1
   51    53	 1
   52    54	 1
   52    55	 1
   53    54	 1
   53    55	 1
   54    56	 1
   54    57	 1
   55    56	 1
   55    57	 1
   56    58	 1
   56    59	 1
   57    58	 1
   57    59	 1
   60    85	 1
   61    85	 1
   62    85	 1
   63    85	 1
   64    85	 1
   65    85	 1
   66    69	 1
   66    94	 1
   66    95	 1
   67    70	 1
   67    96	 1
   67    97	 1
   68    90	 1
   68    91	 1
   68    85	 1
   68    71	 1
   68    98	 1
   68    99	 1
   69    92	 1
   69    93	 1
   69    72	 1
   69   100	 1
   69   101	 1
   70    94	 1
   70    95	 1
   70    73	 1
   70   102	 1
   70   103	 1
   71    96	 1
   71    97	 1
   71    74	 1
   71   104	 1
   71   105	 1
   72    98	 1
   72    99	 1
   72    75	 1
   72   106	 1
   72   107	 1
   73   100	 1
   73   101	 1
   73    76	 1
   73   108	 1
   73   109	 1
   74   102	 1
   74   103	 1
   74    77	 1
   74    84	 1
   75   104	 1
   75   105	 1
   75    78	 1
   75    79	 1
   75    82	 1
   75    89	 1
   76   106	 1
   76   107	 1
   76   110	 1
   76   111	 1
   76   112	 1
   76    80	 1
   76    86	 1
   76    88	 1
   77   108	 1
   77   109	 1
   77    82	 1
   77    89	 1
   77    87	 1
   78    84	 1
   78    80	 1
   78    86	 1
   79    84	 1
   79   110	 1
   79   111	 1
   79   112	 1
   79    88	 1
   79    81	 1
   80   113	 1
   80   114	 1
   80   115	 1
   80    89	 1
   80    83	 1
   81    82	 1
   82    86	 1
   82   116	 1
   82   117	 1
   82   118	 1
   83    84	 1
   84   108	 1
   84   109	 1
   84    87	 1
   85    92	 1
   85    93	 1
   86    87	 1
   87    88	 1
   88    89	 1
   90    92	 1
   90    93	 1
   91    92	 1
   91    93	 1
   92    94	 1
   92    95	 1
   93    94	 1
   93    95	 1
   94    96	 1
   94    97	 1
   95    96	 1
   95    97	 1
   96    98	 1
   96    99	 1
   97    98	 1
   97    99	 1
   98   100	 1
   98   101	 1
   99   100	 1
   99   101	 1
  100   102	 1
  100   103	 1
  101   102	 1
  101   103	 1
  102   104	 1
  102   105	 1
  103   104	 1
  103   105	 1
  104   106	 1
  104   107	 1
  105   106	 1
  105   107	 1
  106   108	 1
  106   109	 1
  107   108	 1
  107   109	 1

[ angles ]
;	ai	  aj	ak funct			c0			  c1			c2			  c3
    2     1    23	5 ;      CG321      CG331       HGA3
    2     1    24	5 ;      CG321      CG331       HGA3
    2     1    25	5 ;      CG321      CG331       HGA3
   23     1    24	5 ;       HGA3      CG331       HGA3
   23     1    25	5 ;       HGA3      CG331       HGA3
   24     1    25	5 ;       HGA3      CG331       HGA3
    1     2     3	5 ;      CG331      CG321      CG321
    1     2    26	5 ;      CG331      CG321       HGA2
    1     2    27	5 ;      CG331      CG321       HGA2
    3     2    26	5 ;      CG321      CG321       HGA2
    3     2    27	5 ;      CG321      CG321       HGA2
   26     2    27	5 ;       HGA2      CG321       HGA2
    2     3     4	5 ;      CG321      CG321      CG321
    2     3    28	5 ;      CG321      CG321       HGA2
    2     3    29	5 ;      CG321      CG321       HGA2
    4     3    28	5 ;      CG321      CG321       HGA2
    4     3    29	5 ;      CG321      CG321       HGA2
   28     3    29	5 ;       HGA2      CG321       HGA2
    3     4     5	5 ;      CG321      CG321      CG321
    3     4    30	5 ;      CG321      CG321       HGA2
    3     4    31	5 ;      CG321      CG321       HGA2
    5     4    30	5 ;      CG321      CG321       HGA2
    5     4    31	5 ;      CG321      CG321       HGA2
   30     4    31	5 ;       HGA2      CG321       HGA2
    4     5     6	5 ;      CG321      CG321      CG321
    4     5    32	5 ;      CG321      CG321       HGA2
    4     5    33	5 ;      CG321      CG321       HGA2
    6     5    32	5 ;      CG321      CG321       HGA2
    6     5    33	5 ;      CG321      CG321       HGA2
   32     5    33	5 ;       HGA2      CG321       HGA2
    5     6     7	5 ;      CG321      CG321      CG321
    5     6    34	5 ;      CG321      CG321       HGA2
    5     6    35	5 ;      CG321      CG321       HGA2
    7     6    34	5 ;      CG321      CG321       HGA2
    7     6    35	5 ;      CG321      CG321       HGA2
   34     6    35	5 ;       HGA2      CG321       HGA2
    6     7     8	5 ;      CG321      CG321      CG321
    6     7    36	5 ;      CG321      CG321       HGA2
    6     7    37	5 ;      CG321      CG321       HGA2
    8     7    36	5 ;      CG321      CG321       HGA2
    8     7    37	5 ;      CG321      CG321       HGA2
   36     7    37	5 ;       HGA2      CG321       HGA2
    7     8     9	5 ;      CG321      CG321      CG321
    7     8    38	5 ;      CG321      CG321       HGA2
    7     8    39	5 ;      CG321      CG321       HGA2
    9     8    38	5 ;      CG321      CG321       HGA2
    9     8    39	5 ;      CG321      CG321       HGA2
   38     8    39	5 ;       HGA2      CG321       HGA2
    8     9    10	5 ;      CG321      CG321      CG321
    8     9    40	5 ;      CG321      CG321       HGA2
    8     9    41	5 ;      CG321      CG321       HGA2
   10     9    40	5 ;      CG321      CG321       HGA2
   10     9    41	5 ;      CG321      CG321       HGA2
   40     9    41	5 ;       HGA2      CG321       HGA2
    9    10    11	5 ;      CG321      CG321      CG321
    9    10    42	5 ;      CG321      CG321       HGA2
    9    10    43	5 ;      CG321      CG321       HGA2
   11    10    42	5 ;      CG321      CG321       HGA2
   11    10    43	5 ;      CG321      CG321       HGA2
   42    10    43	5 ;       HGA2      CG321       HGA2
   10    11    12	5 ;      CG321      CG321      CG321
   10    11    44	5 ;      CG321      CG321       HGA2
   10    11    45	5 ;      CG321      CG321       HGA2
   12    11    44	5 ;      CG321      CG321       HGA2
   12    11    45	5 ;      CG321      CG321       HGA2
   44    11    45	5 ;       HGA2      CG321       HGA2
   11    12    13	5 ;      CG321      CG321      CG321
   11    12    46	5 ;      CG321      CG321       HGA2
   11    12    47	5 ;      CG321      CG321       HGA2
   13    12    46	5 ;      CG321      CG321       HGA2
   13    12    47	5 ;      CG321      CG321       HGA2
   46    12    47	5 ;       HGA2      CG321       HGA2
   12    13    14	5 ;      CG321      CG321      CG321
   12    13    48	5 ;      CG321      CG321       HGA2
   12    13    49	5 ;      CG321      CG321       HGA2
   14    13    48	5 ;      CG321      CG321       HGA2
   14    13    49	5 ;      CG321      CG321       HGA2
   48    13    49	5 ;       HGA2      CG321       HGA2
   13    14    15	5 ;      CG321      CG321      CG321
   13    14    50	5 ;      CG321      CG321       HGA2
   13    14    51	5 ;      CG321      CG321       HGA2
   15    14    50	5 ;      CG321      CG321       HGA2
   15    14    51	5 ;      CG321      CG321       HGA2
   50    14    51	5 ;       HGA2      CG321       HGA2
   14    15    16	5 ;      CG321      CG321      CG321
   14    15    52	5 ;      CG321      CG321       HGA2
   14    15    53	5 ;      CG321      CG321       HGA2
   16    15    52	5 ;      CG321      CG321       HGA2
   16    15    53	5 ;      CG321      CG321       HGA2
   52    15    53	5 ;       HGA2      CG321       HGA2
   15    16    17	5 ;      CG321      CG321      CG321
   15    16    54	5 ;      CG321      CG321       HGA2
   15    16    55	5 ;      CG321      CG321       HGA2
   17    16    54	5 ;      CG321      CG321       HGA2
   17    16    55	5 ;      CG321      CG321       HGA2
   54    16    55	5 ;       HGA2      CG321       HGA2
   16    17    18	5 ;      CG321      CG321      CG321
   16    17    56	5 ;      CG321      CG321       HGA2
   16    17    57	5 ;      CG321      CG321       HGA2
   18    17    56	5 ;      CG321      CG321       HGA2
   18    17    57	5 ;      CG321      CG321       HGA2
   56    17    57	5 ;       HGA2      CG321       HGA2
   17    18    22	5 ;      CG321      CG321      OG301
   17    18    58	5 ;      CG321      CG321       HGA2
   17    18    59	5 ;      CG321      CG321       HGA2
   22    18    58	5 ;      OG301      CG321       HGA2
   22    18    59	5 ;      OG301      CG321       HGA2
   58    18    59	5 ;       HGA2      CG321       HGA2
   20    19    21	5 ;      CG331      CG301      CG331
   20    19    85	5 ;      CG331      CG301      OG301
   20    19    22	5 ;      CG331      CG301      OG301
   21    19    85	5 ;      CG331      CG301      OG301
   21    19    22	5 ;      CG331      CG301      OG301
   85    19    22	5 ;      OG301      CG301      OG301
   19    20    60	5 ;      CG301      CG331       HGA3
   19    20    61	5 ;      CG301      CG331       HGA3
   19    20    62	5 ;      CG301      CG331       HGA3
   60    20    61	5 ;       HGA3      CG331       HGA3
   60    20    62	5 ;       HGA3      CG331       HGA3
   61    20    62	5 ;       HGA3      CG331       HGA3
   19    21    63	5 ;      CG301      CG331       HGA3
   19    21    64	5 ;      CG301      CG331       HGA3
   19    21    65	5 ;      CG301      CG331       HGA3
   63    21    64	5 ;       HGA3      CG331       HGA3
   63    21    65	5 ;       HGA3      CG331       HGA3
   64    21    65	5 ;       HGA3      CG331       HGA3
   18    22    19	5 ;      CG321      OG301      CG301
   67    66    90	5 ;      CG321      CG321       HGA2
   67    66    91	5 ;      CG321      CG321       HGA2
   67    66    85	5 ;      CG321      CG321      OG301
   90    66    91	5 ;       HGA2      CG321       HGA2
   90    66    85	5 ;       HGA2      CG321      OG301
   91    66    85	5 ;       HGA2      CG321      OG301
   66    67    68	5 ;      CG321      CG321      CG321
   66    67    92	5 ;      CG321      CG321       HGA2
   66    67    93	5 ;      CG321      CG321       HGA2
   68    67    92	5 ;      CG321      CG321       HGA2
   68    67    93	5 ;      CG321      CG321       HGA2
   92    67    93	5 ;       HGA2      CG321       HGA2
   67    68    69	5 ;      CG321      CG321      CG321
   67    68    94	5 ;      CG321      CG321       HGA2
   67    68    95	5 ;      CG321      CG321       HGA2
   69    68    94	5 ;      CG321      CG321       HGA2
   69    68    95	5 ;      CG321      CG321       HGA2
   94    68    95	5 ;       HGA2      CG321       HGA2
   68    69    70	5 ;      CG321      CG321      CG321
   68    69    96	5 ;      CG321      CG321       HGA2
   68    69    97	5 ;      CG321      CG321       HGA2
   70    69    96	5 ;      CG321      CG321       HGA2
   70    69    97	5 ;      CG321      CG321       HGA2
   96    69    97	5 ;       HGA2      CG321       HGA2
   69    70    71	5 ;      CG321      CG321      CG321
   69    70    98	5 ;      CG321      CG321       HGA2
   69    70    99	5 ;      CG321      CG321       HGA2
   71    70    98	5 ;      CG321      CG321       HGA2
   71    70    99	5 ;      CG321      CG321       HGA2
   98    70    99	5 ;       HGA2      CG321       HGA2
   70    71    72	5 ;      CG321      CG321      CG321
   70    71   100	5 ;      CG321      CG321       HGA2
   70    71   101	5 ;      CG321      CG321       HGA2
   72    71   100	5 ;      CG321      CG321       HGA2
   72    71   101	5 ;      CG321      CG321       HGA2
  100    71   101	5 ;       HGA2      CG321       HGA2
   71    72    73	5 ;      CG321      CG321      CG321
   71    72   102	5 ;      CG321      CG321       HGA2
   71    72   103	5 ;      CG321      CG321       HGA2
   73    72   102	5 ;      CG321      CG321       HGA2
   73    72   103	5 ;      CG321      CG321       HGA2
  102    72   103	5 ;       HGA2      CG321       HGA2
   72    73    74	5 ;      CG321      CG321      CG321
   72    73   104	5 ;      CG321      CG321       HGA2
   72    73   105	5 ;      CG321      CG321       HGA2
   74    73   104	5 ;      CG321      CG321       HGA2
   74    73   105	5 ;      CG321      CG321       HGA2
  104    73   105	5 ;       HGA2      CG321       HGA2
   73    74    75	5 ;      CG321      CG321      CG321
   73    74   106	5 ;      CG321      CG321       HGA2
   73    74   107	5 ;      CG321      CG321       HGA2
   75    74   106	5 ;      CG321      CG321       HGA2
   75    74   107	5 ;      CG321      CG321       HGA2
  106    74   107	5 ;       HGA2      CG321       HGA2
   74    75    76	5 ;      CG321      CG321     CG2DC1
   74    75   108	5 ;      CG321      CG321       HGA2
   74    75   109	5 ;      CG321      CG321       HGA2
   76    75   108	5 ;     CG2DC1      CG321       HGA2
   76    75   109	5 ;     CG2DC1      CG321       HGA2
  108    75   109	5 ;       HGA2      CG321       HGA2
   75    76    77	5 ;      CG321     CG2DC1     CG2DC1
   75    76    84	5 ;      CG321     CG2DC1      CG2O5
   77    76    84	5 ;     CG2DC1     CG2DC1      CG2O5
   76    77    78	5 ;     CG2DC1     CG2DC1      CG331
   76    77    79	5 ;     CG2DC1     CG2DC1      CG2O5
   78    77    79	5 ;      CG331     CG2DC1      CG2O5
   77    78   110	5 ;     CG2DC1      CG331       HGA3
   77    78   111	5 ;     CG2DC1      CG331       HGA3
   77    78   112	5 ;     CG2DC1      CG331       HGA3
  110    78   111	5 ;       HGA3      CG331       HGA3
  110    78   112	5 ;       HGA3      CG331       HGA3
  111    78   112	5 ;       HGA3      CG331       HGA3
   77    79    80	5 ;     CG2DC1      CG2O5     CG2D1O
   77    79    86	5 ;     CG2DC1      CG2O5      OG2D3
   80    79    86	5 ;     CG2D1O      CG2O5      OG2D3
   79    80    82	5 ;      CG2O5     CG2D1O     CG2D1O
   79    80    87	5 ;      CG2O5     CG2D1O      OG301
   82    80    87	5 ;     CG2D1O     CG2D1O      OG301
  113    81   114	5 ;       HGA3      CG331       HGA3
  113    81   115	5 ;       HGA3      CG331       HGA3
  113    81    87	5 ;       HGA3      CG331      OG301
  114    81   115	5 ;       HGA3      CG331       HGA3
  114    81    87	5 ;       HGA3      CG331      OG301
  115    81    87	5 ;       HGA3      CG331      OG301
   80    82    84	5 ;     CG2D1O     CG2D1O      CG2O5
   80    82    88	5 ;     CG2D1O     CG2D1O      OG301
   84    82    88	5 ;      CG2O5     CG2D1O      OG301
  116    83   117	5 ;       HGA3      CG331       HGA3
  116    83   118	5 ;       HGA3      CG331       HGA3
  116    83    88	5 ;       HGA3      CG331      OG301
  117    83   118	5 ;       HGA3      CG331       HGA3
  117    83    88	5 ;       HGA3      CG331      OG301
  118    83    88	5 ;       HGA3      CG331      OG301
   76    84    82	5 ;     CG2DC1      CG2O5     CG2D1O
   76    84    89	5 ;     CG2DC1      CG2O5      OG2D3
   82    84    89	5 ;     CG2D1O      CG2O5      OG2D3
   19    85    66	5 ;      CG301      OG301      CG321
   80    87    81	5 ;     CG2D1O      OG301      CG331
   82    88    83	5 ;     CG2D1O      OG301      CG331

[ dihedrals ]
;	ai	  aj	ak	  al funct			  c0			c1			  c2			c3			  c4			c5
   23     1     2     3	 9 ;       HGA3      CG331      CG321      CG321
   23     1     2    26	 9 ;       HGA3      CG331      CG321       HGA2
   23     1     2    27	 9 ;       HGA3      CG331      CG321       HGA2
   24     1     2     3	 9 ;       HGA3      CG331      CG321      CG321
   24     1     2    26	 9 ;       HGA3      CG331      CG321       HGA2
   24     1     2    27	 9 ;       HGA3      CG331      CG321       HGA2
   25     1     2     3	 9 ;       HGA3      CG331      CG321      CG321
   25     1     2    26	 9 ;       HGA3      CG331      CG321       HGA2
   25     1     2    27	 9 ;       HGA3      CG331      CG321       HGA2
    1     2     3     4	 9 ;      CG331      CG321      CG321      CG321
    1     2     3    28	 9 ;      CG331      CG321      CG321       HGA2
    1     2     3    29	 9 ;      CG331      CG321      CG321       HGA2
   26     2     3     4	 9 ;       HGA2      CG321      CG321      CG321
   26     2     3    28	 9 ;       HGA2      CG321      CG321       HGA2
   26     2     3    29	 9 ;       HGA2      CG321      CG321       HGA2
   27     2     3     4	 9 ;       HGA2      CG321      CG321      CG321
   27     2     3    28	 9 ;       HGA2      CG321      CG321       HGA2
   27     2     3    29	 9 ;       HGA2      CG321      CG321       HGA2
    2     3     4     5	 9 ;      CG321      CG321      CG321      CG321
    2     3     4    30	 9 ;      CG321      CG321      CG321       HGA2
    2     3     4    31	 9 ;      CG321      CG321      CG321       HGA2
   28     3     4     5	 9 ;       HGA2      CG321      CG321      CG321
   28     3     4    30	 9 ;       HGA2      CG321      CG321       HGA2
   28     3     4    31	 9 ;       HGA2      CG321      CG321       HGA2
   29     3     4     5	 9 ;       HGA2      CG321      CG321      CG321
   29     3     4    30	 9 ;       HGA2      CG321      CG321       HGA2
   29     3     4    31	 9 ;       HGA2      CG321      CG321       HGA2
    3     4     5     6	 9 ;      CG321      CG321      CG321      CG321
    3     4     5    32	 9 ;      CG321      CG321      CG321       HGA2
    3     4     5    33	 9 ;      CG321      CG321      CG321       HGA2
   30     4     5     6	 9 ;       HGA2      CG321      CG321      CG321
   30     4     5    32	 9 ;       HGA2      CG321      CG321       HGA2
   30     4     5    33	 9 ;       HGA2      CG321      CG321       HGA2
   31     4     5     6	 9 ;       HGA2      CG321      CG321      CG321
   31     4     5    32	 9 ;       HGA2      CG321      CG321       HGA2
   31     4     5    33	 9 ;       HGA2      CG321      CG321       HGA2
    4     5     6     7	 9 ;      CG321      CG321      CG321      CG321
    4     5     6    34	 9 ;      CG321      CG321      CG321       HGA2
    4     5     6    35	 9 ;      CG321      CG321      CG321       HGA2
   32     5     6     7	 9 ;       HGA2      CG321      CG321      CG321
   32     5     6    34	 9 ;       HGA2      CG321      CG321       HGA2
   32     5     6    35	 9 ;       HGA2      CG321      CG321       HGA2
   33     5     6     7	 9 ;       HGA2      CG321      CG321      CG321
   33     5     6    34	 9 ;       HGA2      CG321      CG321       HGA2
   33     5     6    35	 9 ;       HGA2      CG321      CG321       HGA2
    5     6     7     8	 9 ;      CG321      CG321      CG321      CG321
    5     6     7    36	 9 ;      CG321      CG321      CG321       HGA2
    5     6     7    37	 9 ;      CG321      CG321      CG321       HGA2
   34     6     7     8	 9 ;       HGA2      CG321      CG321      CG321
   34     6     7    36	 9 ;       HGA2      CG321      CG321       HGA2
   34     6     7    37	 9 ;       HGA2      CG321      CG321       HGA2
   35     6     7     8	 9 ;       HGA2      CG321      CG321      CG321
   35     6     7    36	 9 ;       HGA2      CG321      CG321       HGA2
   35     6     7    37	 9 ;       HGA2      CG321      CG321       HGA2
    6     7     8     9	 9 ;      CG321      CG321      CG321      CG321
    6     7     8    38	 9 ;      CG321      CG321      CG321       HGA2
    6     7     8    39	 9 ;      CG321      CG321      CG321       HGA2
   36     7     8     9	 9 ;       HGA2      CG321      CG321      CG321
   36     7     8    38	 9 ;       HGA2      CG321      CG321       HGA2
   36     7     8    39	 9 ;       HGA2      CG321      CG321       HGA2
   37     7     8     9	 9 ;       HGA2      CG321      CG321      CG321
   37     7     8    38	 9 ;       HGA2      CG321      CG321       HGA2
   37     7     8    39	 9 ;       HGA2      CG321      CG321       HGA2
    7     8     9    10	 9 ;      CG321      CG321      CG321      CG321
    7     8     9    40	 9 ;      CG321      CG321      CG321       HGA2
    7     8     9    41	 9 ;      CG321      CG321      CG321       HGA2
   38     8     9    10	 9 ;       HGA2      CG321      CG321      CG321
   38     8     9    40	 9 ;       HGA2      CG321      CG321       HGA2
   38     8     9    41	 9 ;       HGA2      CG321      CG321       HGA2
   39     8     9    10	 9 ;       HGA2      CG321      CG321      CG321
   39     8     9    40	 9 ;       HGA2      CG321      CG321       HGA2
   39     8     9    41	 9 ;       HGA2      CG321      CG321       HGA2
    8     9    10    11	 9 ;      CG321      CG321      CG321      CG321
    8     9    10    42	 9 ;      CG321      CG321      CG321       HGA2
    8     9    10    43	 9 ;      CG321      CG321      CG321       HGA2
   40     9    10    11	 9 ;       HGA2      CG321      CG321      CG321
   40     9    10    42	 9 ;       HGA2      CG321      CG321       HGA2
   40     9    10    43	 9 ;       HGA2      CG321      CG321       HGA2
   41     9    10    11	 9 ;       HGA2      CG321      CG321      CG321
   41     9    10    42	 9 ;       HGA2      CG321      CG321       HGA2
   41     9    10    43	 9 ;       HGA2      CG321      CG321       HGA2
    9    10    11    12	 9 ;      CG321      CG321      CG321      CG321
    9    10    11    44	 9 ;      CG321      CG321      CG321       HGA2
    9    10    11    45	 9 ;      CG321      CG321      CG321       HGA2
   42    10    11    12	 9 ;       HGA2      CG321      CG321      CG321
   42    10    11    44	 9 ;       HGA2      CG321      CG321       HGA2
   42    10    11    45	 9 ;       HGA2      CG321      CG321       HGA2
   43    10    11    12	 9 ;       HGA2      CG321      CG321      CG321
   43    10    11    44	 9 ;       HGA2      CG321      CG321       HGA2
   43    10    11    45	 9 ;       HGA2      CG321      CG321       HGA2
   10    11    12    13	 9 ;      CG321      CG321      CG321      CG321
   10    11    12    46	 9 ;      CG321      CG321      CG321       HGA2
   10    11    12    47	 9 ;      CG321      CG321      CG321       HGA2
   44    11    12    13	 9 ;       HGA2      CG321      CG321      CG321
   44    11    12    46	 9 ;       HGA2      CG321      CG321       HGA2
   44    11    12    47	 9 ;       HGA2      CG321      CG321       HGA2
   45    11    12    13	 9 ;       HGA2      CG321      CG321      CG321
   45    11    12    46	 9 ;       HGA2      CG321      CG321       HGA2
   45    11    12    47	 9 ;       HGA2      CG321      CG321       HGA2
   11    12    13    14	 9 ;      CG321      CG321      CG321      CG321
   11    12    13    48	 9 ;      CG321      CG321      CG321       HGA2
   11    12    13    49	 9 ;      CG321      CG321      CG321       HGA2
   46    12    13    14	 9 ;       HGA2      CG321      CG321      CG321
   46    12    13    48	 9 ;       HGA2      CG321      CG321       HGA2
   46    12    13    49	 9 ;       HGA2      CG321      CG321       HGA2
   47    12    13    14	 9 ;       HGA2      CG321      CG321      CG321
   47    12    13    48	 9 ;       HGA2      CG321      CG321       HGA2
   47    12    13    49	 9 ;       HGA2      CG321      CG321       HGA2
   12    13    14    15	 9 ;      CG321      CG321      CG321      CG321
   12    13    14    50	 9 ;      CG321      CG321      CG321       HGA2
   12    13    14    51	 9 ;      CG321      CG321      CG321       HGA2
   48    13    14    15	 9 ;       HGA2      CG321      CG321      CG321
   48    13    14    50	 9 ;       HGA2      CG321      CG321       HGA2
   48    13    14    51	 9 ;       HGA2      CG321      CG321       HGA2
   49    13    14    15	 9 ;       HGA2      CG321      CG321      CG321
   49    13    14    50	 9 ;       HGA2      CG321      CG321       HGA2
   49    13    14    51	 9 ;       HGA2      CG321      CG321       HGA2
   13    14    15    16	 9 ;      CG321      CG321      CG321      CG321
   13    14    15    52	 9 ;      CG321      CG321      CG321       HGA2
   13    14    15    53	 9 ;      CG321      CG321      CG321       HGA2
   50    14    15    16	 9 ;       HGA2      CG321      CG321      CG321
   50    14    15    52	 9 ;       HGA2      CG321      CG321       HGA2
   50    14    15    53	 9 ;       HGA2      CG321      CG321       HGA2
   51    14    15    16	 9 ;       HGA2      CG321      CG321      CG321
   51    14    15    52	 9 ;       HGA2      CG321      CG321       HGA2
   51    14    15    53	 9 ;       HGA2      CG321      CG321       HGA2
   14    15    16    17	 9 ;      CG321      CG321      CG321      CG321
   14    15    16    54	 9 ;      CG321      CG321      CG321       HGA2
   14    15    16    55	 9 ;      CG321      CG321      CG321       HGA2
   52    15    16    17	 9 ;       HGA2      CG321      CG321      CG321
   52    15    16    54	 9 ;       HGA2      CG321      CG321       HGA2
   52    15    16    55	 9 ;       HGA2      CG321      CG321       HGA2
   53    15    16    17	 9 ;       HGA2      CG321      CG321      CG321
   53    15    16    54	 9 ;       HGA2      CG321      CG321       HGA2
   53    15    16    55	 9 ;       HGA2      CG321      CG321       HGA2
   15    16    17    18	 9 ;      CG321      CG321      CG321      CG321
   15    16    17    56	 9 ;      CG321      CG321      CG321       HGA2
   15    16    17    57	 9 ;      CG321      CG321      CG321       HGA2
   54    16    17    18	 9 ;       HGA2      CG321      CG321      CG321
   54    16    17    56	 9 ;       HGA2      CG321      CG321       HGA2
   54    16    17    57	 9 ;       HGA2      CG321      CG321       HGA2
   55    16    17    18	 9 ;       HGA2      CG321      CG321      CG321
   55    16    17    56	 9 ;       HGA2      CG321      CG321       HGA2
   55    16    17    57	 9 ;       HGA2      CG321      CG321       HGA2
   16    17    18    22	 9 ;      CG321      CG321      CG321      OG301
   16    17    18    58	 9 ;      CG321      CG321      CG321       HGA2
   16    17    18    59	 9 ;      CG321      CG321      CG321       HGA2
   56    17    18    22	 9 ;       HGA2      CG321      CG321      OG301
   56    17    18    58	 9 ;       HGA2      CG321      CG321       HGA2
   56    17    18    59	 9 ;       HGA2      CG321      CG321       HGA2
   57    17    18    22	 9 ;       HGA2      CG321      CG321      OG301
   57    17    18    58	 9 ;       HGA2      CG321      CG321       HGA2
   57    17    18    59	 9 ;       HGA2      CG321      CG321       HGA2
   17    18    22    19	 9 ;      CG321      CG321      OG301      CG301
   58    18    22    19	 9 ;       HGA2      CG321      OG301      CG301
   59    18    22    19	 9 ;       HGA2      CG321      OG301      CG301
   21    19    20    60	 9 ;      CG331      CG301      CG331       HGA3
   21    19    20    61	 9 ;      CG331      CG301      CG331       HGA3
   21    19    20    62	 9 ;      CG331      CG301      CG331       HGA3
   85    19    20    60	 9 ;      OG301      CG301      CG331       HGA3
   85    19    20    61	 9 ;      OG301      CG301      CG331       HGA3
   85    19    20    62	 9 ;      OG301      CG301      CG331       HGA3
   22    19    20    60	 9 ;      OG301      CG301      CG331       HGA3
   22    19    20    61	 9 ;      OG301      CG301      CG331       HGA3
   22    19    20    62	 9 ;      OG301      CG301      CG331       HGA3
   20    19    21    63	 9 ;      CG331      CG301      CG331       HGA3
   20    19    21    64	 9 ;      CG331      CG301      CG331       HGA3
   20    19    21    65	 9 ;      CG331      CG301      CG331       HGA3
   85    19    21    63	 9 ;      OG301      CG301      CG331       HGA3
   85    19    21    64	 9 ;      OG301      CG301      CG331       HGA3
   85    19    21    65	 9 ;      OG301      CG301      CG331       HGA3
   22    19    21    63	 9 ;      OG301      CG301      CG331       HGA3
   22    19    21    64	 9 ;      OG301      CG301      CG331       HGA3
   22    19    21    65	 9 ;      OG301      CG301      CG331       HGA3
   20    19    85    66	 9 ;      CG331      CG301      OG301      CG321
   21    19    85    66	 9 ;      CG331      CG301      OG301      CG321
   22    19    85    66	 9 ;      OG301      CG301      OG301      CG321
   20    19    22    18	 9 ;      CG331      CG301      OG301      CG321
   21    19    22    18	 9 ;      CG331      CG301      OG301      CG321
   85    19    22    18	 9 ;      OG301      CG301      OG301      CG321
   90    66    67    68	 9 ;       HGA2      CG321      CG321      CG321
   90    66    67    92	 9 ;       HGA2      CG321      CG321       HGA2
   90    66    67    93	 9 ;       HGA2      CG321      CG321       HGA2
   91    66    67    68	 9 ;       HGA2      CG321      CG321      CG321
   91    66    67    92	 9 ;       HGA2      CG321      CG321       HGA2
   91    66    67    93	 9 ;       HGA2      CG321      CG321       HGA2
   85    66    67    68	 9 ;      OG301      CG321      CG321      CG321
   85    66    67    92	 9 ;      OG301      CG321      CG321       HGA2
   85    66    67    93	 9 ;      OG301      CG321      CG321       HGA2
   67    66    85    19	 9 ;      CG321      CG321      OG301      CG301
   90    66    85    19	 9 ;       HGA2      CG321      OG301      CG301
   91    66    85    19	 9 ;       HGA2      CG321      OG301      CG301
   66    67    68    69	 9 ;      CG321      CG321      CG321      CG321
   66    67    68    94	 9 ;      CG321      CG321      CG321       HGA2
   66    67    68    95	 9 ;      CG321      CG321      CG321       HGA2
   92    67    68    69	 9 ;       HGA2      CG321      CG321      CG321
   92    67    68    94	 9 ;       HGA2      CG321      CG321       HGA2
   92    67    68    95	 9 ;       HGA2      CG321      CG321       HGA2
   93    67    68    69	 9 ;       HGA2      CG321      CG321      CG321
   93    67    68    94	 9 ;       HGA2      CG321      CG321       HGA2
   93    67    68    95	 9 ;       HGA2      CG321      CG321       HGA2
   67    68    69    70	 9 ;      CG321      CG321      CG321      CG321
   67    68    69    96	 9 ;      CG321      CG321      CG321       HGA2
   67    68    69    97	 9 ;      CG321      CG321      CG321       HGA2
   94    68    69    70	 9 ;       HGA2      CG321      CG321      CG321
   94    68    69    96	 9 ;       HGA2      CG321      CG321       HGA2
   94    68    69    97	 9 ;       HGA2      CG321      CG321       HGA2
   95    68    69    70	 9 ;       HGA2      CG321      CG321      CG321
   95    68    69    96	 9 ;       HGA2      CG321      CG321       HGA2
   95    68    69    97	 9 ;       HGA2      CG321      CG321       HGA2
   68    69    70    71	 9 ;      CG321      CG321      CG321      CG321
   68    69    70    98	 9 ;      CG321      CG321      CG321       HGA2
   68    69    70    99	 9 ;      CG321      CG321      CG321       HGA2
   96    69    70    71	 9 ;       HGA2      CG321      CG321      CG321
   96    69    70    98	 9 ;       HGA2      CG321      CG321       HGA2
   96    69    70    99	 9 ;       HGA2      CG321      CG321       HGA2
   97    69    70    71	 9 ;       HGA2      CG321      CG321      CG321
   97    69    70    98	 9 ;       HGA2      CG321      CG321       HGA2
   97    69    70    99	 9 ;       HGA2      CG321      CG321       HGA2
   69    70    71    72	 9 ;      CG321      CG321      CG321      CG321
   69    70    71   100	 9 ;      CG321      CG321      CG321       HGA2
   69    70    71   101	 9 ;      CG321      CG321      CG321       HGA2
   98    70    71    72	 9 ;       HGA2      CG321      CG321      CG321
   98    70    71   100	 9 ;       HGA2      CG321      CG321       HGA2
   98    70    71   101	 9 ;       HGA2      CG321      CG321       HGA2
   99    70    71    72	 9 ;       HGA2      CG321      CG321      CG321
   99    70    71   100	 9 ;       HGA2      CG321      CG321       HGA2
   99    70    71   101	 9 ;       HGA2      CG321      CG321       HGA2
   70    71    72    73	 9 ;      CG321      CG321      CG321      CG321
   70    71    72   102	 9 ;      CG321      CG321      CG321       HGA2
   70    71    72   103	 9 ;      CG321      CG321      CG321       HGA2
  100    71    72    73	 9 ;       HGA2      CG321      CG321      CG321
  100    71    72   102	 9 ;       HGA2      CG321      CG321       HGA2
  100    71    72   103	 9 ;       HGA2      CG321      CG321       HGA2
  101    71    72    73	 9 ;       HGA2      CG321      CG321      CG321
  101    71    72   102	 9 ;       HGA2      CG321      CG321       HGA2
  101    71    72   103	 9 ;       HGA2      CG321      CG321       HGA2
   71    72    73    74	 9 ;      CG321      CG321      CG321      CG321
   71    72    73   104	 9 ;      CG321      CG321      CG321       HGA2
   71    72    73   105	 9 ;      CG321      CG321      CG321       HGA2
  102    72    73    74	 9 ;       HGA2      CG321      CG321      CG321
  102    72    73   104	 9 ;       HGA2      CG321      CG321       HGA2
  102    72    73   105	 9 ;       HGA2      CG321      CG321       HGA2
  103    72    73    74	 9 ;       HGA2      CG321      CG321      CG321
  103    72    73   104	 9 ;       HGA2      CG321      CG321       HGA2
  103    72    73   105	 9 ;       HGA2      CG321      CG321       HGA2
   72    73    74    75	 9 ;      CG321      CG321      CG321      CG321
   72    73    74   106	 9 ;      CG321      CG321      CG321       HGA2
   72    73    74   107	 9 ;      CG321      CG321      CG321       HGA2
  104    73    74    75	 9 ;       HGA2      CG321      CG321      CG321
  104    73    74   106	 9 ;       HGA2      CG321      CG321       HGA2
  104    73    74   107	 9 ;       HGA2      CG321      CG321       HGA2
  105    73    74    75	 9 ;       HGA2      CG321      CG321      CG321
  105    73    74   106	 9 ;       HGA2      CG321      CG321       HGA2
  105    73    74   107	 9 ;       HGA2      CG321      CG321       HGA2
   73    74    75    76	 9 ;      CG321      CG321      CG321     CG2DC1
   73    74    75   108	 9 ;      CG321      CG321      CG321       HGA2
   73    74    75   109	 9 ;      CG321      CG321      CG321       HGA2
  106    74    75    76	 9 ;       HGA2      CG321      CG321     CG2DC1
  106    74    75   108	 9 ;       HGA2      CG321      CG321       HGA2
  106    74    75   109	 9 ;       HGA2      CG321      CG321       HGA2
  107    74    75    76	 9 ;       HGA2      CG321      CG321     CG2DC1
  107    74    75   108	 9 ;       HGA2      CG321      CG321       HGA2
  107    74    75   109	 9 ;       HGA2      CG321      CG321       HGA2
   74    75    76    77	 9 ;      CG321      CG321     CG2DC1     CG2DC1
   74    75    76    84	 9 ;      CG321      CG321     CG2DC1      CG2O5
  108    75    76    77	 9 ;       HGA2      CG321     CG2DC1     CG2DC1
  108    75    76    84	 9 ;       HGA2      CG321     CG2DC1      CG2O5
  109    75    76    77	 9 ;       HGA2      CG321     CG2DC1     CG2DC1
  109    75    76    84	 9 ;       HGA2      CG321     CG2DC1      CG2O5
   75    76    77    78	 9 ;      CG321     CG2DC1     CG2DC1      CG331
   75    76    77    79	 9 ;      CG321     CG2DC1     CG2DC1      CG2O5
   84    76    77    78	 9 ;      CG2O5     CG2DC1     CG2DC1      CG331
   84    76    77    79	 9 ;      CG2O5     CG2DC1     CG2DC1      CG2O5
   75    76    84    82	 9 ;      CG321     CG2DC1      CG2O5     CG2D1O
   75    76    84    89	 9 ;      CG321     CG2DC1      CG2O5      OG2D3
   77    76    84    82	 9 ;     CG2DC1     CG2DC1      CG2O5     CG2D1O
   77    76    84    89	 9 ;     CG2DC1     CG2DC1      CG2O5      OG2D3
   76    77    78   110	 9 ;     CG2DC1     CG2DC1      CG331       HGA3
   76    77    78   111	 9 ;     CG2DC1     CG2DC1      CG331       HGA3
   76    77    78   112	 9 ;     CG2DC1     CG2DC1      CG331       HGA3
   79    77    78   110	 9 ;      CG2O5     CG2DC1      CG331       HGA3
   79    77    78   111	 9 ;      CG2O5     CG2DC1      CG331       HGA3
   79    77    78   112	 9 ;      CG2O5     CG2DC1      CG331       HGA3
   76    77    79    80	 9 ;     CG2DC1     CG2DC1      CG2O5     CG2D1O
   76    77    79    86	 9 ;     CG2DC1     CG2DC1      CG2O5      OG2D3
   78    77    79    80	 9 ;      CG331     CG2DC1      CG2O5     CG2D1O
   78    77    79    86	 9 ;      CG331     CG2DC1      CG2O5      OG2D3
   77    79    80    82	 9 ;     CG2DC1      CG2O5     CG2D1O     CG2D1O
   77    79    80    87	 9 ;     CG2DC1      CG2O5     CG2D1O      OG301
   86    79    80    82	 9 ;      OG2D3      CG2O5     CG2D1O     CG2D1O
   86    79    80    87	 9 ;      OG2D3      CG2O5     CG2D1O      OG301
   79    80    82    84	 9 ;      CG2O5     CG2D1O     CG2D1O      CG2O5
   79    80    82    88	 9 ;      CG2O5     CG2D1O     CG2D1O      OG301
   87    80    82    84	 9 ;      OG301     CG2D1O     CG2D1O      CG2O5
   87    80    82    88	 9 ;      OG301     CG2D1O     CG2D1O      OG301
   79    80    87    81	 9 ;      CG2O5     CG2D1O      OG301      CG331
   82    80    87    81	 9 ;     CG2D1O     CG2D1O      OG301      CG331
  113    81    87    80	 9 ;       HGA3      CG331      OG301     CG2D1O
  114    81    87    80	 9 ;       HGA3      CG331      OG301     CG2D1O
  115    81    87    80	 9 ;       HGA3      CG331      OG301     CG2D1O
   80    82    84    76	 9 ;     CG2D1O     CG2D1O      CG2O5     CG2DC1
   80    82    84    89	 9 ;     CG2D1O     CG2D1O      CG2O5      OG2D3
   88    82    84    76	 9 ;      OG301     CG2D1O      CG2O5     CG2DC1
   88    82    84    89	 9 ;      OG301     CG2D1O      CG2O5      OG2D3
   80    82    88    83	 9 ;     CG2D1O     CG2D1O      OG301      CG331
   84    82    88    83	 9 ;      CG2O5     CG2D1O      OG301      CG331
  116    83    88    82	 9 ;       HGA3      CG331      OG301     CG2D1O
  117    83    88    82	 9 ;       HGA3      CG331      OG301     CG2D1O
  118    83    88    82	 9 ;       HGA3      CG331      OG301     CG2D1O

[ dihedrals ]
;	ai	  aj	ak	  al funct			  c0			c1			  c2			c3
   79    80    77    86	 2
   84    82    76    89	 2

