; Created by cgenff_charmm2gmx.py

[ moleculetype ]
; Name			   nrexcl
PTX				 3

[ atoms ]
;	 nr		  type	resnr residue  atom   cgnr	   charge		mass  typeB    chargeB		massB
; residue	 1 PTX rtp PTX q	qsum
     1      CG331      1    PTL     C1      1     -0.273     12.011   ;
     2      CG321      1    PTL     C2      2     -0.177     12.011   ;
     3      CG321      1    PTL     C3      3     -0.181     12.011   ;
     4      CG321      1    PTL     C4      4     -0.179     12.011   ;
     5      CG321      1    PTL     C5      5     -0.180     12.011   ;
     6      CG321      1    PTL     C6      6     -0.180     12.011   ;
     7      CG321      1    PTL     C7      7     -0.180     12.011   ;
     8      CG321      1    PTL     C8      8     -0.180     12.011   ;
     9      CG321      1    PTL     C9      9     -0.180     12.011   ;
    10      CG321      1    PTL    C10     10      0.036     12.011   ;
    11      CG301      1    PTL    C11     11      0.391     12.011   ;
    12      CG331      1    PTL    C12     12     -0.269     12.011   ;
    13      CG331      1    PTL    C13     13     -0.269     12.011   ;
    14      OG301      1    PTL     O1     14     -0.402     15.999   ;
    15       HGA3      1    PTL     H1     15      0.090      1.008   ;
    16       HGA3      1    PTL     H2     16      0.090      1.008   ;
    17       HGA3      1    PTL     H3     17      0.090      1.008   ;
    18       HGA2      1    PTL     H4     18      0.090      1.008   ;
    19       HGA2      1    PTL     H5     19      0.090      1.008   ;
    20       HGA2      1    PTL     H6     20      0.090      1.008   ;
    21       HGA2      1    PTL     H7     21      0.090      1.008   ;
    22       HGA2      1    PTL     H8     22      0.090      1.008   ;
    23       HGA2      1    PTL     H9     23      0.090      1.008   ;
    24       HGA2      1    PTL    H10     24      0.090      1.008   ;
    25       HGA2      1    PTL    H11     25      0.090      1.008   ;
    26       HGA2      1    PTL    H12     26      0.090      1.008   ;
    27       HGA2      1    PTL    H13     27      0.090      1.008   ;
    28       HGA2      1    PTL    H14     28      0.090      1.008   ;
    29       HGA2      1    PTL    H15     29      0.090      1.008   ;
    30       HGA2      1    PTL    H16     30      0.090      1.008   ;
    31       HGA2      1    PTL    H17     31      0.090      1.008   ;
    32       HGA2      1    PTL    H18     32      0.090      1.008   ;
    33       HGA2      1    PTL    H19     33      0.090      1.008   ;
    34       HGA2      1    PTL    H20     34      0.090      1.008   ;
    35       HGA2      1    PTL    H21     35      0.090      1.008   ;
    36       HGA3      1    PTL    H22     36      0.090      1.008   ;
    37       HGA3      1    PTL    H23     37      0.090      1.008   ;
    38       HGA3      1    PTL    H24     38      0.090      1.008   ;
    39       HGA3      1    PTL    H25     39      0.090      1.008   ;
    40       HGA3      1    PTL    H26     40      0.090      1.008   ;
    41       HGA3      1    PTL    H27     41      0.090      1.008   ;
    42      NG2S1      1    PTX      N     42     -0.404     14.007   ;
    43      CG311      1    PTX    C14     43      0.183     12.011   ;
    44      CG2O2      1    PTX    C15     44      0.850     12.011   ;
    45      CG311      1    PTX    C16     45      0.272     12.011   ;
    46      CG321      1    PTX    C17     46     -0.212     12.011   ;
    47      CG301      1    PTX    C18     47      0.186     12.011   ;
    48      CG311      1    PTX    C19     48      0.133     12.011   ;
    49      CG2O2      1    PTX    C20     49      0.459     12.011   ;
    50     CG2R61      1    PTX    C21     50      0.086     12.011   ;
    51     CG2R61      1    PTX    C22     51     -0.110     12.011   ;
    52     CG2R61      1    PTX    C23     52     -0.114     12.011   ;
    53     CG2R61      1    PTX    C24     53     -0.115     12.011   ;
    54     CG2R61      1    PTX    C25     54     -0.114     12.011   ;
    55     CG2R61      1    PTX    C26     55     -0.110     12.011   ;
    56      CG311      1    PTX    C27     56     -0.074     12.011   ;
    57      CG301      1    PTX    C28     57      0.081     12.011   ;
    58      CG331      1    PTX    C29     58     -0.263     12.011   ;
    59      CG2O5      1    PTX    C30     59      0.297     12.011   ;
    60      CG311      1    PTX    C31     60      0.432     12.011   ;
    61      CG2O2      1    PTX    C32     61      0.834     12.011   ;
    62      CG331      1    PTX    C33     62     -0.311     12.011   ;
    63      CG2D1      1    PTX    C34     63     -0.113     12.011   ;
    64      CG2D1      1    PTX    C35     64     -0.153     12.011   ;
    65      CG331      1    PTX    C36     65     -0.265     12.011   ;
    66      CG301      1    PTX    C37     66      0.016     12.011   ;
    67      CG331      1    PTX    C38     67     -0.269     12.011   ;
    68      CG331      1    PTX    C39     68     -0.269     12.011   ;
    69      CG311      1    PTX    C40     69      0.166     12.011   ;
    70      CG321      1    PTX    C41     70     -0.201     12.011   ;
    71     CG3RC1      1    PTX    C42     71      0.015     12.011   ;
    72     CG3C41      1    PTX    C43     72     -0.106     12.011   ;
    73     CG3RC1      1    PTX    C44     73      0.366     12.011   ;
    74      CG2O2      1    PTX    C45     74      0.885     12.011   ;
    75      CG331      1    PTX    C46     75     -0.313     12.011   ;
    76      CG311      1    PTX    C47     76      0.127     12.011   ;
    77      CG2O1      1    PTX    C48     77      0.341     12.011   ;
    78     CG2R61      1    PTX    C49     78     -0.137     12.011   ;
    79     CG2R61      1    PTX    C50     79     -0.024     12.011   ;
    80     CG2R61      1    PTX    C51     80     -0.109     12.011   ;
    81     CG2R61      1    PTX    C52     81     -0.115     12.011   ;
    82     CG2R61      1    PTX    C53     82     -0.109     12.011   ;
    83     CG2R61      1    PTX    C54     83     -0.024     12.011   ;
    84     CG2R61      1    PTX    C55     84     -0.040     12.011   ;
    85     CG2R61      1    PTX    C56     85     -0.106     12.011   ;
    86     CG2R61      1    PTX    C57     86     -0.115     12.011   ;
    87     CG2R61      1    PTX    C58     87     -0.115     12.011   ;
    88     CG2R61      1    PTX    C59     88     -0.115     12.011   ;
    89     CG2R61      1    PTX    C60     89     -0.106     12.011   ;
    90      OG301      1    PTX     O2     90     -0.506     15.999   ;
    91      OG2D1      1    PTX     O3     91     -0.623     15.999   ;
    92      OG302      1    PTX     O4     92     -0.432     15.999   ;
    93      OG311      1    PTX     O5     93     -0.460     15.999   ;
    94      OG302      1    PTX     O6     94     -0.310     15.999   ;
    95      OG2D1      1    PTX     O7     95     -0.496     15.999   ;
    96      OG2D3      1    PTX     O8     96     -0.515     15.999   ;
    97      OG302      1    PTX     O9     97     -0.427     15.999   ;
    98      OG2D1      1    PTX    O10     98     -0.625     15.999   ;
    99      OG311      1    PTX    O11     99     -0.642     15.999   ;
   100     OG3C51      1    PTX    O12    100     -0.343     15.999   ;
   101      OG302      1    PTX    O13    101     -0.422     15.999   ;
   102      OG2D1      1    PTX    O14    102     -0.617     15.999   ;
   103      OG2D1      1    PTX    O15    103     -0.458     15.999   ;
   104       HGA1      1    PTX    H28    104      0.090      1.008   ;
   105       HGA1      1    PTX    H29    105      0.090      1.008   ;
   106       HGA2      1    PTX    H30    106      0.090      1.008   ;
   107       HGA2      1    PTX    H31    107      0.090      1.008   ;
   108       HGP1      1    PTX    H32    108      0.292      1.008   ;
   109       HGA1      1    PTX    H33    109      0.090      1.008   ;
   110      HGR61      1    PTX    H34    110      0.115      1.008   ;
   111      HGR61      1    PTX    H35    111      0.115      1.008   ;
   112      HGR61      1    PTX    H36    112      0.115      1.008   ;
   113      HGR61      1    PTX    H37    113      0.115      1.008   ;
   114      HGR61      1    PTX    H38    114      0.115      1.008   ;
   115       HGA1      1    PTX    H39    115      0.090      1.008   ;
   116       HGA3      1    PTX    H40    116      0.090      1.008   ;
   117       HGA3      1    PTX    H41    117      0.090      1.008   ;
   118       HGA3      1    PTX    H42    118      0.090      1.008   ;
   119       HGA1      1    PTX    H43    119      0.090      1.008   ;
   120       HGA3      1    PTX    H44    120      0.090      1.008   ;
   121       HGA3      1    PTX    H45    121      0.090      1.008   ;
   122       HGA3      1    PTX    H46    122      0.090      1.008   ;
   123       HGA3      1    PTX    H47    123      0.090      1.008   ;
   124       HGA3      1    PTX    H48    124      0.090      1.008   ;
   125       HGA3      1    PTX    H49    125      0.090      1.008   ;
   126       HGA3      1    PTX    H50    126      0.090      1.008   ;
   127       HGA3      1    PTX    H51    127      0.090      1.008   ;
   128       HGA3      1    PTX    H52    128      0.090      1.008   ;
   129       HGA3      1    PTX    H53    129      0.090      1.008   ;
   130       HGA3      1    PTX    H54    130      0.090      1.008   ;
   131       HGA3      1    PTX    H55    131      0.090      1.008   ;
   132       HGA1      1    PTX    H56    132      0.090      1.008   ;
   133       HGP1      1    PTX    H57    133      0.400      1.008   ;
   134       HGA2      1    PTX    H58    134      0.090      1.008   ;
   135       HGA2      1    PTX    H59    135      0.090      1.008   ;
   136       HGA1      1    PTX    H60    136      0.090      1.008   ;
   137       HGA2      1    PTX    H61    137      0.090      1.008   ;
   138       HGA2      1    PTX    H62    138      0.090      1.008   ;
   139       HGA3      1    PTX    H63    139      0.090      1.008   ;
   140       HGA3      1    PTX    H64    140      0.090      1.008   ;
   141       HGA3      1    PTX    H65    141      0.090      1.008   ;
   142       HGA1      1    PTX    H66    142      0.090      1.008   ;
   143       HGP1      1    PTX    H67    143      0.274      1.008   ;
   144      HGR61      1    PTX    H68    144      0.115      1.008   ;
   145      HGR61      1    PTX    H69    145      0.115      1.008   ;
   146      HGR61      1    PTX    H70    146      0.115      1.008   ;
   147      HGR61      1    PTX    H71    147      0.115      1.008   ;
   148      HGR61      1    PTX    H72    148      0.115      1.008   ;
   149      HGR61      1    PTX    H73    149      0.115      1.008   ;
   150      HGR61      1    PTX    H74    150      0.115      1.008   ;
   151      HGR61      1    PTX    H75    151      0.115      1.008   ;
   152      HGR61      1    PTX    H76    152      0.115      1.008   ;
   153      HGR61      1    PTX    H77    153      0.115      1.008   ;

[ bonds ]
;	ai	  aj funct			  c0			c1			  c2			c3
    1     2	 1 ;       CG331      CG321
    1    15	 1 ;       CG331       HGA3
    1    16	 1 ;       CG331       HGA3
    1    17	 1 ;       CG331       HGA3
    2     3	 1 ;       CG321      CG321
    2    18	 1 ;       CG321       HGA2
    2    19	 1 ;       CG321       HGA2
    3     4	 1 ;       CG321      CG321
    3    20	 1 ;       CG321       HGA2
    3    21	 1 ;       CG321       HGA2
    4     5	 1 ;       CG321      CG321
    4    22	 1 ;       CG321       HGA2
    4    23	 1 ;       CG321       HGA2
    5     6	 1 ;       CG321      CG321
    5    24	 1 ;       CG321       HGA2
    5    25	 1 ;       CG321       HGA2
    6     7	 1 ;       CG321      CG321
    6    26	 1 ;       CG321       HGA2
    6    27	 1 ;       CG321       HGA2
    7     8	 1 ;       CG321      CG321
    7    28	 1 ;       CG321       HGA2
    7    29	 1 ;       CG321       HGA2
    8     9	 1 ;       CG321      CG321
    8    30	 1 ;       CG321       HGA2
    8    31	 1 ;       CG321       HGA2
    9    10	 1 ;       CG321      CG321
    9    32	 1 ;       CG321       HGA2
    9    33	 1 ;       CG321       HGA2
   10    14	 1 ;       CG321      OG301
   10    34	 1 ;       CG321       HGA2
   10    35	 1 ;       CG321       HGA2
   11    12	 1 ;       CG301      CG331
   11    13	 1 ;       CG301      CG331
   11    90	 1 ;       CG301      OG301
   11    14	 1 ;       CG301      OG301
   12    36	 1 ;       CG331       HGA3
   12    37	 1 ;       CG331       HGA3
   12    38	 1 ;       CG331       HGA3
   13    39	 1 ;       CG331       HGA3
   13    40	 1 ;       CG331       HGA3
   13    41	 1 ;       CG331       HGA3
   42    77	 1 ;       NG2S1      CG2O1
   42   143	 1 ;       NG2S1       HGP1
   42    76	 1 ;       NG2S1      CG311
   43    44	 1 ;       CG311      CG2O2
   43    76	 1 ;       CG311      CG311
   43   104	 1 ;       CG311       HGA1
   43    90	 1 ;       CG311      OG301
   44    91	 1 ;       CG2O2      OG2D1
   44    92	 1 ;       CG2O2      OG302
   45    46	 1 ;       CG311      CG321
   45    64	 1 ;       CG311      CG2D1
   45   105	 1 ;       CG311       HGA1
   45    92	 1 ;       CG311      OG302
   46    47	 1 ;       CG321      CG301
   46   106	 1 ;       CG321       HGA2
   46   107	 1 ;       CG321       HGA2
   47    48	 1 ;       CG301      CG311
   47    66	 1 ;       CG301      CG301
   47    93	 1 ;       CG301      OG311
   48    56	 1 ;       CG311      CG311
   48    94	 1 ;       CG311      OG302
   48   109	 1 ;       CG311       HGA1
   49    50	 1 ;       CG2O2     CG2R61
   49    95	 1 ;       CG2O2      OG2D1
   49    94	 1 ;       CG2O2      OG302
   50    51	 1 ;      CG2R61     CG2R61
   50    55	 1 ;      CG2R61     CG2R61
   51    52	 1 ;      CG2R61     CG2R61
   51   110	 1 ;      CG2R61      HGR61
   52    53	 1 ;      CG2R61     CG2R61
   52   111	 1 ;      CG2R61      HGR61
   53    54	 1 ;      CG2R61     CG2R61
   53   112	 1 ;      CG2R61      HGR61
   54    55	 1 ;      CG2R61     CG2R61
   54   113	 1 ;      CG2R61      HGR61
   55   114	 1 ;      CG2R61      HGR61
   56    57	 1 ;       CG311      CG301
   56    73	 1 ;       CG311     CG3RC1
   56   115	 1 ;       CG311       HGA1
   57    58	 1 ;       CG301      CG331
   57    59	 1 ;       CG301      CG2O5
   57    69	 1 ;       CG301      CG311
   58   116	 1 ;       CG331       HGA3
   58   117	 1 ;       CG331       HGA3
   58   118	 1 ;       CG331       HGA3
   59    60	 1 ;       CG2O5      CG311
   59    96	 1 ;       CG2O5      OG2D3
   60    63	 1 ;       CG311      CG2D1
   60    97	 1 ;       CG311      OG302
   60   119	 1 ;       CG311       HGA1
   61    62	 1 ;       CG2O2      CG331
   61    98	 1 ;       CG2O2      OG2D1
   61    97	 1 ;       CG2O2      OG302
   62   120	 1 ;       CG331       HGA3
   62   121	 1 ;       CG331       HGA3
   62   122	 1 ;       CG331       HGA3
   63    64	 1 ;       CG2D1      CG2D1
   63    66	 1 ;       CG2D1      CG301
   64    65	 1 ;       CG2D1      CG331
   65   123	 1 ;       CG331       HGA3
   65   124	 1 ;       CG331       HGA3
   65   125	 1 ;       CG331       HGA3
   66    67	 1 ;       CG301      CG331
   66    68	 1 ;       CG301      CG331
   67   126	 1 ;       CG331       HGA3
   67   127	 1 ;       CG331       HGA3
   67   128	 1 ;       CG331       HGA3
   68   129	 1 ;       CG331       HGA3
   68   130	 1 ;       CG331       HGA3
   68   131	 1 ;       CG331       HGA3
   69    70	 1 ;       CG311      CG321
   69    99	 1 ;       CG311      OG311
   69   132	 1 ;       CG311       HGA1
   70    71	 1 ;       CG321     CG3RC1
   70   134	 1 ;       CG321       HGA2
   70   135	 1 ;       CG321       HGA2
   71    73	 1 ;      CG3RC1     CG3RC1
   71   100	 1 ;      CG3RC1     OG3C51
   71   136	 1 ;      CG3RC1       HGA1
   72    73	 1 ;      CG3C41     CG3RC1
   72   137	 1 ;      CG3C41       HGA2
   72   138	 1 ;      CG3C41       HGA2
   72   100	 1 ;      CG3C41     OG3C51
   73   101	 1 ;      CG3RC1      OG302
   74    75	 1 ;       CG2O2      CG331
   74   102	 1 ;       CG2O2      OG2D1
   74   101	 1 ;       CG2O2      OG302
   75   139	 1 ;       CG331       HGA3
   75   140	 1 ;       CG331       HGA3
   75   141	 1 ;       CG331       HGA3
   76    84	 1 ;       CG311     CG2R61
   76   142	 1 ;       CG311       HGA1
   77    78	 1 ;       CG2O1     CG2R61
   77   103	 1 ;       CG2O1      OG2D1
   78    79	 1 ;      CG2R61     CG2R61
   78    83	 1 ;      CG2R61     CG2R61
   79    80	 1 ;      CG2R61     CG2R61
   79   144	 1 ;      CG2R61      HGR61
   80    81	 1 ;      CG2R61     CG2R61
   80   145	 1 ;      CG2R61      HGR61
   81    82	 1 ;      CG2R61     CG2R61
   81   146	 1 ;      CG2R61      HGR61
   82    83	 1 ;      CG2R61     CG2R61
   82   147	 1 ;      CG2R61      HGR61
   83   148	 1 ;      CG2R61      HGR61
   84    85	 1 ;      CG2R61     CG2R61
   84    89	 1 ;      CG2R61     CG2R61
   85    86	 1 ;      CG2R61     CG2R61
   85   149	 1 ;      CG2R61      HGR61
   86    87	 1 ;      CG2R61     CG2R61
   86   150	 1 ;      CG2R61      HGR61
   87    88	 1 ;      CG2R61     CG2R61
   87   151	 1 ;      CG2R61      HGR61
   88    89	 1 ;      CG2R61     CG2R61
   88   152	 1 ;      CG2R61      HGR61
   89   153	 1 ;      CG2R61      HGR61
   93   108	 1 ;       OG311       HGP1
   99   133	 1 ;       OG311       HGP1

[ pairs ]
;	ai	  aj funct			  c0			c1			  c2			c3
    1     4	 1
    1    20	 1
    1    21	 1
    2     5	 1
    2    22	 1
    2    23	 1
    3    15	 1
    3    16	 1
    3    17	 1
    3     6	 1
    3    24	 1
    3    25	 1
    4    18	 1
    4    19	 1
    4     7	 1
    4    26	 1
    4    27	 1
    5    20	 1
    5    21	 1
    5     8	 1
    5    28	 1
    5    29	 1
    6    22	 1
    6    23	 1
    6     9	 1
    6    30	 1
    6    31	 1
    7    24	 1
    7    25	 1
    7    10	 1
    7    32	 1
    7    33	 1
    8    26	 1
    8    27	 1
    8    14	 1
    8    34	 1
    8    35	 1
    9    28	 1
    9    29	 1
    9    11	 1
   10    30	 1
   10    31	 1
   10    12	 1
   10    13	 1
   10    90	 1
   11    34	 1
   11    35	 1
   11    44	 1
   11    76	 1
   11   104	 1
   12    39	 1
   12    40	 1
   12    41	 1
   12    43	 1
   13    36	 1
   13    37	 1
   13    38	 1
   13    43	 1
   14    32	 1
   14    33	 1
   14    36	 1
   14    37	 1
   14    38	 1
   14    39	 1
   14    40	 1
   14    41	 1
   14    43	 1
   15    18	 1
   15    19	 1
   16    18	 1
   16    19	 1
   17    18	 1
   17    19	 1
   18    20	 1
   18    21	 1
   19    20	 1
   19    21	 1
   20    22	 1
   20    23	 1
   21    22	 1
   21    23	 1
   22    24	 1
   22    25	 1
   23    24	 1
   23    25	 1
   24    26	 1
   24    27	 1
   25    26	 1
   25    27	 1
   26    28	 1
   26    29	 1
   27    28	 1
   27    29	 1
   28    30	 1
   28    31	 1
   29    30	 1
   29    31	 1
   30    32	 1
   30    33	 1
   31    32	 1
   31    33	 1
   32    34	 1
   32    35	 1
   33    34	 1
   33    35	 1
   36    90	 1
   37    90	 1
   38    90	 1
   39    90	 1
   40    90	 1
   41    90	 1
   42    44	 1
   42   104	 1
   42    90	 1
   42    85	 1
   42    89	 1
   42    79	 1
   42    83	 1
   43    77	 1
   43   143	 1
   43    45	 1
   43    85	 1
   43    89	 1
   44    84	 1
   44   142	 1
   44    46	 1
   44    64	 1
   44   105	 1
   45    91	 1
   45    48	 1
   45    66	 1
   45    93	 1
   45    60	 1
   45   123	 1
   45   124	 1
   45   125	 1
   46    63	 1
   46    65	 1
   46    56	 1
   46    94	 1
   46   109	 1
   46    67	 1
   46    68	 1
   46   108	 1
   47    64	 1
   47   105	 1
   47    92	 1
   47    57	 1
   47    73	 1
   47   115	 1
   47    49	 1
   47    60	 1
   47   126	 1
   47   127	 1
   47   128	 1
   47   129	 1
   47   130	 1
   47   131	 1
   48   106	 1
   48   107	 1
   48    63	 1
   48    67	 1
   48    68	 1
   48   108	 1
   48    50	 1
   48    95	 1
   48    58	 1
   48    59	 1
   48    69	 1
   48    71	 1
   48    72	 1
   48   101	 1
   49    56	 1
   49   109	 1
   49    52	 1
   49   110	 1
   49    54	 1
   49   114	 1
   50    53	 1
   50   111	 1
   50   113	 1
   51    95	 1
   51    94	 1
   51    54	 1
   51   114	 1
   51   112	 1
   52    55	 1
   52   113	 1
   53   110	 1
   53   114	 1
   54   111	 1
   55    95	 1
   55    94	 1
   55   110	 1
   55   112	 1
   56    66	 1
   56    93	 1
   56   116	 1
   56   117	 1
   56   118	 1
   56    60	 1
   56    96	 1
   56    70	 1
   56    99	 1
   56   132	 1
   56   100	 1
   56   136	 1
   56   137	 1
   56   138	 1
   56    74	 1
   57    94	 1
   57   109	 1
   57    71	 1
   57    72	 1
   57   101	 1
   57    63	 1
   57    97	 1
   57   119	 1
   57   134	 1
   57   135	 1
   57   133	 1
   58    73	 1
   58   115	 1
   58    60	 1
   58    96	 1
   58    70	 1
   58    99	 1
   58   132	 1
   59    73	 1
   59   115	 1
   59   116	 1
   59   117	 1
   59   118	 1
   59    70	 1
   59    99	 1
   59   132	 1
   59    64	 1
   59    66	 1
   59    61	 1
   60    69	 1
   60    62	 1
   60    98	 1
   60    65	 1
   60    67	 1
   60    68	 1
   61    63	 1
   61   119	 1
   63   105	 1
   63    92	 1
   63    93	 1
   63    96	 1
   63   123	 1
   63   124	 1
   63   125	 1
   63   126	 1
   63   127	 1
   63   128	 1
   63   129	 1
   63   130	 1
   63   131	 1
   64   106	 1
   64   107	 1
   64    97	 1
   64   119	 1
   64    67	 1
   64    68	 1
   65   105	 1
   65    92	 1
   65    66	 1
   66   106	 1
   66   107	 1
   66    94	 1
   66   109	 1
   66   108	 1
   66    97	 1
   66   119	 1
   67    93	 1
   67   129	 1
   67   130	 1
   67   131	 1
   68    93	 1
   68   126	 1
   68   127	 1
   68   128	 1
   69    73	 1
   69   115	 1
   69   116	 1
   69   117	 1
   69   118	 1
   69    96	 1
   69   100	 1
   69   136	 1
   70   133	 1
   70    72	 1
   70   101	 1
   71   115	 1
   71    99	 1
   71   132	 1
   71   137	 1
   71   138	 1
   71    74	 1
   72   115	 1
   72   136	 1
   72    74	 1
   73    94	 1
   73   109	 1
   73   134	 1
   73   135	 1
   73    75	 1
   73   102	 1
   76    78	 1
   76   103	 1
   76    91	 1
   76    92	 1
   76    86	 1
   76   149	 1
   76    88	 1
   76   153	 1
   77    84	 1
   77   142	 1
   77    80	 1
   77   144	 1
   77    82	 1
   77   148	 1
   78   143	 1
   78    81	 1
   78   145	 1
   78   147	 1
   79   103	 1
   79    82	 1
   79   148	 1
   79   146	 1
   80    83	 1
   80   147	 1
   81   144	 1
   81   148	 1
   82   145	 1
   83   103	 1
   83   144	 1
   83   146	 1
   84   143	 1
   84   104	 1
   84    90	 1
   84    87	 1
   84   150	 1
   84   152	 1
   85   142	 1
   85    88	 1
   85   153	 1
   85   151	 1
   86    89	 1
   86   152	 1
   87   149	 1
   87   153	 1
   88   150	 1
   89   142	 1
   89   149	 1
   89   151	 1
   90    91	 1
   90    92	 1
   90   142	 1
   91   104	 1
   92   104	 1
   92   106	 1
   92   107	 1
   93   106	 1
   93   107	 1
   93    94	 1
   93   109	 1
   94   115	 1
   96    97	 1
   96   119	 1
   97   120	 1
   97   121	 1
   97   122	 1
   98   120	 1
   98   121	 1
   98   122	 1
   99   134	 1
   99   135	 1
  100   134	 1
  100   135	 1
  100   101	 1
  101   115	 1
  101   136	 1
  101   137	 1
  101   138	 1
  101   139	 1
  101   140	 1
  101   141	 1
  102   139	 1
  102   140	 1
  102   141	 1
  103   143	 1
  104   142	 1
  105   106	 1
  105   107	 1
  109   115	 1
  110   111	 1
  111   112	 1
  112   113	 1
  113   114	 1
  132   134	 1
  132   135	 1
  132   133	 1
  134   136	 1
  135   136	 1
  142   143	 1
  144   145	 1
  145   146	 1
  146   147	 1
  147   148	 1
  149   150	 1
  150   151	 1
  151   152	 1
  152   153	 1

[ angles ]
;	ai	  aj	ak funct			c0			  c1			c2			  c3
    2     1    15	5 ;      CG321      CG331       HGA3
    2     1    16	5 ;      CG321      CG331       HGA3
    2     1    17	5 ;      CG321      CG331       HGA3
   15     1    16	5 ;       HGA3      CG331       HGA3
   15     1    17	5 ;       HGA3      CG331       HGA3
   16     1    17	5 ;       HGA3      CG331       HGA3
    1     2     3	5 ;      CG331      CG321      CG321
    1     2    18	5 ;      CG331      CG321       HGA2
    1     2    19	5 ;      CG331      CG321       HGA2
    3     2    18	5 ;      CG321      CG321       HGA2
    3     2    19	5 ;      CG321      CG321       HGA2
   18     2    19	5 ;       HGA2      CG321       HGA2
    2     3     4	5 ;      CG321      CG321      CG321
    2     3    20	5 ;      CG321      CG321       HGA2
    2     3    21	5 ;      CG321      CG321       HGA2
    4     3    20	5 ;      CG321      CG321       HGA2
    4     3    21	5 ;      CG321      CG321       HGA2
   20     3    21	5 ;       HGA2      CG321       HGA2
    3     4     5	5 ;      CG321      CG321      CG321
    3     4    22	5 ;      CG321      CG321       HGA2
    3     4    23	5 ;      CG321      CG321       HGA2
    5     4    22	5 ;      CG321      CG321       HGA2
    5     4    23	5 ;      CG321      CG321       HGA2
   22     4    23	5 ;       HGA2      CG321       HGA2
    4     5     6	5 ;      CG321      CG321      CG321
    4     5    24	5 ;      CG321      CG321       HGA2
    4     5    25	5 ;      CG321      CG321       HGA2
    6     5    24	5 ;      CG321      CG321       HGA2
    6     5    25	5 ;      CG321      CG321       HGA2
   24     5    25	5 ;       HGA2      CG321       HGA2
    5     6     7	5 ;      CG321      CG321      CG321
    5     6    26	5 ;      CG321      CG321       HGA2
    5     6    27	5 ;      CG321      CG321       HGA2
    7     6    26	5 ;      CG321      CG321       HGA2
    7     6    27	5 ;      CG321      CG321       HGA2
   26     6    27	5 ;       HGA2      CG321       HGA2
    6     7     8	5 ;      CG321      CG321      CG321
    6     7    28	5 ;      CG321      CG321       HGA2
    6     7    29	5 ;      CG321      CG321       HGA2
    8     7    28	5 ;      CG321      CG321       HGA2
    8     7    29	5 ;      CG321      CG321       HGA2
   28     7    29	5 ;       HGA2      CG321       HGA2
    7     8     9	5 ;      CG321      CG321      CG321
    7     8    30	5 ;      CG321      CG321       HGA2
    7     8    31	5 ;      CG321      CG321       HGA2
    9     8    30	5 ;      CG321      CG321       HGA2
    9     8    31	5 ;      CG321      CG321       HGA2
   30     8    31	5 ;       HGA2      CG321       HGA2
    8     9    10	5 ;      CG321      CG321      CG321
    8     9    32	5 ;      CG321      CG321       HGA2
    8     9    33	5 ;      CG321      CG321       HGA2
   10     9    32	5 ;      CG321      CG321       HGA2
   10     9    33	5 ;      CG321      CG321       HGA2
   32     9    33	5 ;       HGA2      CG321       HGA2
    9    10    14	5 ;      CG321      CG321      OG301
    9    10    34	5 ;      CG321      CG321       HGA2
    9    10    35	5 ;      CG321      CG321       HGA2
   14    10    34	5 ;      OG301      CG321       HGA2
   14    10    35	5 ;      OG301      CG321       HGA2
   34    10    35	5 ;       HGA2      CG321       HGA2
   12    11    13	5 ;      CG331      CG301      CG331
   12    11    90	5 ;      CG331      CG301      OG301
   12    11    14	5 ;      CG331      CG301      OG301
   13    11    90	5 ;      CG331      CG301      OG301
   13    11    14	5 ;      CG331      CG301      OG301
   90    11    14	5 ;      OG301      CG301      OG301
   11    12    36	5 ;      CG301      CG331       HGA3
   11    12    37	5 ;      CG301      CG331       HGA3
   11    12    38	5 ;      CG301      CG331       HGA3
   36    12    37	5 ;       HGA3      CG331       HGA3
   36    12    38	5 ;       HGA3      CG331       HGA3
   37    12    38	5 ;       HGA3      CG331       HGA3
   11    13    39	5 ;      CG301      CG331       HGA3
   11    13    40	5 ;      CG301      CG331       HGA3
   11    13    41	5 ;      CG301      CG331       HGA3
   39    13    40	5 ;       HGA3      CG331       HGA3
   39    13    41	5 ;       HGA3      CG331       HGA3
   40    13    41	5 ;       HGA3      CG331       HGA3
   10    14    11	5 ;      CG321      OG301      CG301
   77    42   143	5 ;      CG2O1      NG2S1       HGP1
   77    42    76	5 ;      CG2O1      NG2S1      CG311
  143    42    76	5 ;       HGP1      NG2S1      CG311
   44    43    76	5 ;      CG2O2      CG311      CG311
   44    43   104	5 ;      CG2O2      CG311       HGA1
   44    43    90	5 ;      CG2O2      CG311      OG301
   76    43   104	5 ;      CG311      CG311       HGA1
   76    43    90	5 ;      CG311      CG311      OG301
  104    43    90	5 ;       HGA1      CG311      OG301
   43    44    91	5 ;      CG311      CG2O2      OG2D1
   43    44    92	5 ;      CG311      CG2O2      OG302
   91    44    92	5 ;      OG2D1      CG2O2      OG302
   46    45    64	5 ;      CG321      CG311      CG2D1
   46    45   105	5 ;      CG321      CG311       HGA1
   46    45    92	5 ;      CG321      CG311      OG302
   64    45   105	5 ;      CG2D1      CG311       HGA1
   64    45    92	5 ;      CG2D1      CG311      OG302
  105    45    92	5 ;       HGA1      CG311      OG302
   45    46    47	5 ;      CG311      CG321      CG301
   45    46   106	5 ;      CG311      CG321       HGA2
   45    46   107	5 ;      CG311      CG321       HGA2
   47    46   106	5 ;      CG301      CG321       HGA2
   47    46   107	5 ;      CG301      CG321       HGA2
  106    46   107	5 ;       HGA2      CG321       HGA2
   46    47    48	5 ;      CG321      CG301      CG311
   46    47    66	5 ;      CG321      CG301      CG301
   46    47    93	5 ;      CG321      CG301      OG311
   48    47    66	5 ;      CG311      CG301      CG301
   48    47    93	5 ;      CG311      CG301      OG311
   66    47    93	5 ;      CG301      CG301      OG311
   47    48    56	5 ;      CG301      CG311      CG311
   47    48    94	5 ;      CG301      CG311      OG302
   47    48   109	5 ;      CG301      CG311       HGA1
   56    48    94	5 ;      CG311      CG311      OG302
   56    48   109	5 ;      CG311      CG311       HGA1
   94    48   109	5 ;      OG302      CG311       HGA1
   50    49    95	5 ;     CG2R61      CG2O2      OG2D1
   50    49    94	5 ;     CG2R61      CG2O2      OG302
   95    49    94	5 ;      OG2D1      CG2O2      OG302
   49    50    51	5 ;      CG2O2     CG2R61     CG2R61
   49    50    55	5 ;      CG2O2     CG2R61     CG2R61
   51    50    55	5 ;     CG2R61     CG2R61     CG2R61
   50    51    52	5 ;     CG2R61     CG2R61     CG2R61
   50    51   110	5 ;     CG2R61     CG2R61      HGR61
   52    51   110	5 ;     CG2R61     CG2R61      HGR61
   51    52    53	5 ;     CG2R61     CG2R61     CG2R61
   51    52   111	5 ;     CG2R61     CG2R61      HGR61
   53    52   111	5 ;     CG2R61     CG2R61      HGR61
   52    53    54	5 ;     CG2R61     CG2R61     CG2R61
   52    53   112	5 ;     CG2R61     CG2R61      HGR61
   54    53   112	5 ;     CG2R61     CG2R61      HGR61
   53    54    55	5 ;     CG2R61     CG2R61     CG2R61
   53    54   113	5 ;     CG2R61     CG2R61      HGR61
   55    54   113	5 ;     CG2R61     CG2R61      HGR61
   50    55    54	5 ;     CG2R61     CG2R61     CG2R61
   50    55   114	5 ;     CG2R61     CG2R61      HGR61
   54    55   114	5 ;     CG2R61     CG2R61      HGR61
   48    56    57	5 ;      CG311      CG311      CG301
   48    56    73	5 ;      CG311      CG311     CG3RC1
   48    56   115	5 ;      CG311      CG311       HGA1
   57    56    73	5 ;      CG301      CG311     CG3RC1
   57    56   115	5 ;      CG301      CG311       HGA1
   73    56   115	5 ;     CG3RC1      CG311       HGA1
   56    57    58	5 ;      CG311      CG301      CG331
   56    57    59	5 ;      CG311      CG301      CG2O5
   56    57    69	5 ;      CG311      CG301      CG311
   58    57    59	5 ;      CG331      CG301      CG2O5
   58    57    69	5 ;      CG331      CG301      CG311
   59    57    69	5 ;      CG2O5      CG301      CG311
   57    58   116	5 ;      CG301      CG331       HGA3
   57    58   117	5 ;      CG301      CG331       HGA3
   57    58   118	5 ;      CG301      CG331       HGA3
  116    58   117	5 ;       HGA3      CG331       HGA3
  116    58   118	5 ;       HGA3      CG331       HGA3
  117    58   118	5 ;       HGA3      CG331       HGA3
   57    59    60	5 ;      CG301      CG2O5      CG311
   57    59    96	5 ;      CG301      CG2O5      OG2D3
   60    59    96	5 ;      CG311      CG2O5      OG2D3
   59    60    63	5 ;      CG2O5      CG311      CG2D1
   59    60    97	5 ;      CG2O5      CG311      OG302
   59    60   119	5 ;      CG2O5      CG311       HGA1
   63    60    97	5 ;      CG2D1      CG311      OG302
   63    60   119	5 ;      CG2D1      CG311       HGA1
   97    60   119	5 ;      OG302      CG311       HGA1
   62    61    98	5 ;      CG331      CG2O2      OG2D1
   62    61    97	5 ;      CG331      CG2O2      OG302
   98    61    97	5 ;      OG2D1      CG2O2      OG302
   61    62   120	5 ;      CG2O2      CG331       HGA3
   61    62   121	5 ;      CG2O2      CG331       HGA3
   61    62   122	5 ;      CG2O2      CG331       HGA3
  120    62   121	5 ;       HGA3      CG331       HGA3
  120    62   122	5 ;       HGA3      CG331       HGA3
  121    62   122	5 ;       HGA3      CG331       HGA3
   60    63    64	5 ;      CG311      CG2D1      CG2D1
   60    63    66	5 ;      CG311      CG2D1      CG301
   64    63    66	5 ;      CG2D1      CG2D1      CG301
   45    64    63	5 ;      CG311      CG2D1      CG2D1
   45    64    65	5 ;      CG311      CG2D1      CG331
   63    64    65	5 ;      CG2D1      CG2D1      CG331
   64    65   123	5 ;      CG2D1      CG331       HGA3
   64    65   124	5 ;      CG2D1      CG331       HGA3
   64    65   125	5 ;      CG2D1      CG331       HGA3
  123    65   124	5 ;       HGA3      CG331       HGA3
  123    65   125	5 ;       HGA3      CG331       HGA3
  124    65   125	5 ;       HGA3      CG331       HGA3
   47    66    63	5 ;      CG301      CG301      CG2D1
   47    66    67	5 ;      CG301      CG301      CG331
   47    66    68	5 ;      CG301      CG301      CG331
   63    66    67	5 ;      CG2D1      CG301      CG331
   63    66    68	5 ;      CG2D1      CG301      CG331
   67    66    68	5 ;      CG331      CG301      CG331
   66    67   126	5 ;      CG301      CG331       HGA3
   66    67   127	5 ;      CG301      CG331       HGA3
   66    67   128	5 ;      CG301      CG331       HGA3
  126    67   127	5 ;       HGA3      CG331       HGA3
  126    67   128	5 ;       HGA3      CG331       HGA3
  127    67   128	5 ;       HGA3      CG331       HGA3
   66    68   129	5 ;      CG301      CG331       HGA3
   66    68   130	5 ;      CG301      CG331       HGA3
   66    68   131	5 ;      CG301      CG331       HGA3
  129    68   130	5 ;       HGA3      CG331       HGA3
  129    68   131	5 ;       HGA3      CG331       HGA3
  130    68   131	5 ;       HGA3      CG331       HGA3
   57    69    70	5 ;      CG301      CG311      CG321
   57    69    99	5 ;      CG301      CG311      OG311
   57    69   132	5 ;      CG301      CG311       HGA1
   70    69    99	5 ;      CG321      CG311      OG311
   70    69   132	5 ;      CG321      CG311       HGA1
   99    69   132	5 ;      OG311      CG311       HGA1
   69    70    71	5 ;      CG311      CG321     CG3RC1
   69    70   134	5 ;      CG311      CG321       HGA2
   69    70   135	5 ;      CG311      CG321       HGA2
   71    70   134	5 ;     CG3RC1      CG321       HGA2
   71    70   135	5 ;     CG3RC1      CG321       HGA2
  134    70   135	5 ;       HGA2      CG321       HGA2
   70    71    73	5 ;      CG321     CG3RC1     CG3RC1
   70    71   100	5 ;      CG321     CG3RC1     OG3C51
   70    71   136	5 ;      CG321     CG3RC1       HGA1
   73    71   100	5 ;     CG3RC1     CG3RC1     OG3C51
   73    71   136	5 ;     CG3RC1     CG3RC1       HGA1
  100    71   136	5 ;     OG3C51     CG3RC1       HGA1
   73    72   137	5 ;     CG3RC1     CG3C41       HGA2
   73    72   138	5 ;     CG3RC1     CG3C41       HGA2
   73    72   100	5 ;     CG3RC1     CG3C41     OG3C51
  137    72   138	5 ;       HGA2     CG3C41       HGA2
  137    72   100	5 ;       HGA2     CG3C41     OG3C51
  138    72   100	5 ;       HGA2     CG3C41     OG3C51
   56    73    71	5 ;      CG311     CG3RC1     CG3RC1
   56    73    72	5 ;      CG311     CG3RC1     CG3C41
   56    73   101	5 ;      CG311     CG3RC1      OG302
   71    73    72	5 ;     CG3RC1     CG3RC1     CG3C41
   71    73   101	5 ;     CG3RC1     CG3RC1      OG302
   72    73   101	5 ;     CG3C41     CG3RC1      OG302
   75    74   102	5 ;      CG331      CG2O2      OG2D1
   75    74   101	5 ;      CG331      CG2O2      OG302
  102    74   101	5 ;      OG2D1      CG2O2      OG302
   74    75   139	5 ;      CG2O2      CG331       HGA3
   74    75   140	5 ;      CG2O2      CG331       HGA3
   74    75   141	5 ;      CG2O2      CG331       HGA3
  139    75   140	5 ;       HGA3      CG331       HGA3
  139    75   141	5 ;       HGA3      CG331       HGA3
  140    75   141	5 ;       HGA3      CG331       HGA3
   43    76    42	5 ;      CG311      CG311      NG2S1
   43    76    84	5 ;      CG311      CG311     CG2R61
   43    76   142	5 ;      CG311      CG311       HGA1
   42    76    84	5 ;      NG2S1      CG311     CG2R61
   42    76   142	5 ;      NG2S1      CG311       HGA1
   84    76   142	5 ;     CG2R61      CG311       HGA1
   42    77    78	5 ;      NG2S1      CG2O1     CG2R61
   42    77   103	5 ;      NG2S1      CG2O1      OG2D1
   78    77   103	5 ;     CG2R61      CG2O1      OG2D1
   77    78    79	5 ;      CG2O1     CG2R61     CG2R61
   77    78    83	5 ;      CG2O1     CG2R61     CG2R61
   79    78    83	5 ;     CG2R61     CG2R61     CG2R61
   78    79    80	5 ;     CG2R61     CG2R61     CG2R61
   78    79   144	5 ;     CG2R61     CG2R61      HGR61
   80    79   144	5 ;     CG2R61     CG2R61      HGR61
   79    80    81	5 ;     CG2R61     CG2R61     CG2R61
   79    80   145	5 ;     CG2R61     CG2R61      HGR61
   81    80   145	5 ;     CG2R61     CG2R61      HGR61
   80    81    82	5 ;     CG2R61     CG2R61     CG2R61
   80    81   146	5 ;     CG2R61     CG2R61      HGR61
   82    81   146	5 ;     CG2R61     CG2R61      HGR61
   81    82    83	5 ;     CG2R61     CG2R61     CG2R61
   81    82   147	5 ;     CG2R61     CG2R61      HGR61
   83    82   147	5 ;     CG2R61     CG2R61      HGR61
   78    83    82	5 ;     CG2R61     CG2R61     CG2R61
   78    83   148	5 ;     CG2R61     CG2R61      HGR61
   82    83   148	5 ;     CG2R61     CG2R61      HGR61
   76    84    85	5 ;      CG311     CG2R61     CG2R61
   76    84    89	5 ;      CG311     CG2R61     CG2R61
   85    84    89	5 ;     CG2R61     CG2R61     CG2R61
   84    85    86	5 ;     CG2R61     CG2R61     CG2R61
   84    85   149	5 ;     CG2R61     CG2R61      HGR61
   86    85   149	5 ;     CG2R61     CG2R61      HGR61
   85    86    87	5 ;     CG2R61     CG2R61     CG2R61
   85    86   150	5 ;     CG2R61     CG2R61      HGR61
   87    86   150	5 ;     CG2R61     CG2R61      HGR61
   86    87    88	5 ;     CG2R61     CG2R61     CG2R61
   86    87   151	5 ;     CG2R61     CG2R61      HGR61
   88    87   151	5 ;     CG2R61     CG2R61      HGR61
   87    88    89	5 ;     CG2R61     CG2R61     CG2R61
   87    88   152	5 ;     CG2R61     CG2R61      HGR61
   89    88   152	5 ;     CG2R61     CG2R61      HGR61
   84    89    88	5 ;     CG2R61     CG2R61     CG2R61
   84    89   153	5 ;     CG2R61     CG2R61      HGR61
   88    89   153	5 ;     CG2R61     CG2R61      HGR61
   11    90    43	5 ;      CG301      OG301      CG311
   44    92    45	5 ;      CG2O2      OG302      CG311
   47    93   108	5 ;      CG301      OG311       HGP1
   48    94    49	5 ;      CG311      OG302      CG2O2
   60    97    61	5 ;      CG311      OG302      CG2O2
   69    99   133	5 ;      CG311      OG311       HGP1
   71   100    72	5 ;     CG3RC1     OG3C51     CG3C41
   73   101    74	5 ;     CG3RC1      OG302      CG2O2

[ dihedrals ]
;	ai	  aj	ak	  al funct			  c0			c1			  c2			c3			  c4			c5
   15     1     2     3	 9 ;       HGA3      CG331      CG321      CG321
   15     1     2    18	 9 ;       HGA3      CG331      CG321       HGA2
   15     1     2    19	 9 ;       HGA3      CG331      CG321       HGA2
   16     1     2     3	 9 ;       HGA3      CG331      CG321      CG321
   16     1     2    18	 9 ;       HGA3      CG331      CG321       HGA2
   16     1     2    19	 9 ;       HGA3      CG331      CG321       HGA2
   17     1     2     3	 9 ;       HGA3      CG331      CG321      CG321
   17     1     2    18	 9 ;       HGA3      CG331      CG321       HGA2
   17     1     2    19	 9 ;       HGA3      CG331      CG321       HGA2
    1     2     3     4	 9 ;      CG331      CG321      CG321      CG321
    1     2     3    20	 9 ;      CG331      CG321      CG321       HGA2
    1     2     3    21	 9 ;      CG331      CG321      CG321       HGA2
   18     2     3     4	 9 ;       HGA2      CG321      CG321      CG321
   18     2     3    20	 9 ;       HGA2      CG321      CG321       HGA2
   18     2     3    21	 9 ;       HGA2      CG321      CG321       HGA2
   19     2     3     4	 9 ;       HGA2      CG321      CG321      CG321
   19     2     3    20	 9 ;       HGA2      CG321      CG321       HGA2
   19     2     3    21	 9 ;       HGA2      CG321      CG321       HGA2
    2     3     4     5	 9 ;      CG321      CG321      CG321      CG321
    2     3     4    22	 9 ;      CG321      CG321      CG321       HGA2
    2     3     4    23	 9 ;      CG321      CG321      CG321       HGA2
   20     3     4     5	 9 ;       HGA2      CG321      CG321      CG321
   20     3     4    22	 9 ;       HGA2      CG321      CG321       HGA2
   20     3     4    23	 9 ;       HGA2      CG321      CG321       HGA2
   21     3     4     5	 9 ;       HGA2      CG321      CG321      CG321
   21     3     4    22	 9 ;       HGA2      CG321      CG321       HGA2
   21     3     4    23	 9 ;       HGA2      CG321      CG321       HGA2
    3     4     5     6	 9 ;      CG321      CG321      CG321      CG321
    3     4     5    24	 9 ;      CG321      CG321      CG321       HGA2
    3     4     5    25	 9 ;      CG321      CG321      CG321       HGA2
   22     4     5     6	 9 ;       HGA2      CG321      CG321      CG321
   22     4     5    24	 9 ;       HGA2      CG321      CG321       HGA2
   22     4     5    25	 9 ;       HGA2      CG321      CG321       HGA2
   23     4     5     6	 9 ;       HGA2      CG321      CG321      CG321
   23     4     5    24	 9 ;       HGA2      CG321      CG321       HGA2
   23     4     5    25	 9 ;       HGA2      CG321      CG321       HGA2
    4     5     6     7	 9 ;      CG321      CG321      CG321      CG321
    4     5     6    26	 9 ;      CG321      CG321      CG321       HGA2
    4     5     6    27	 9 ;      CG321      CG321      CG321       HGA2
   24     5     6     7	 9 ;       HGA2      CG321      CG321      CG321
   24     5     6    26	 9 ;       HGA2      CG321      CG321       HGA2
   24     5     6    27	 9 ;       HGA2      CG321      CG321       HGA2
   25     5     6     7	 9 ;       HGA2      CG321      CG321      CG321
   25     5     6    26	 9 ;       HGA2      CG321      CG321       HGA2
   25     5     6    27	 9 ;       HGA2      CG321      CG321       HGA2
    5     6     7     8	 9 ;      CG321      CG321      CG321      CG321
    5     6     7    28	 9 ;      CG321      CG321      CG321       HGA2
    5     6     7    29	 9 ;      CG321      CG321      CG321       HGA2
   26     6     7     8	 9 ;       HGA2      CG321      CG321      CG321
   26     6     7    28	 9 ;       HGA2      CG321      CG321       HGA2
   26     6     7    29	 9 ;       HGA2      CG321      CG321       HGA2
   27     6     7     8	 9 ;       HGA2      CG321      CG321      CG321
   27     6     7    28	 9 ;       HGA2      CG321      CG321       HGA2
   27     6     7    29	 9 ;       HGA2      CG321      CG321       HGA2
    6     7     8     9	 9 ;      CG321      CG321      CG321      CG321
    6     7     8    30	 9 ;      CG321      CG321      CG321       HGA2
    6     7     8    31	 9 ;      CG321      CG321      CG321       HGA2
   28     7     8     9	 9 ;       HGA2      CG321      CG321      CG321
   28     7     8    30	 9 ;       HGA2      CG321      CG321       HGA2
   28     7     8    31	 9 ;       HGA2      CG321      CG321       HGA2
   29     7     8     9	 9 ;       HGA2      CG321      CG321      CG321
   29     7     8    30	 9 ;       HGA2      CG321      CG321       HGA2
   29     7     8    31	 9 ;       HGA2      CG321      CG321       HGA2
    7     8     9    10	 9 ;      CG321      CG321      CG321      CG321
    7     8     9    32	 9 ;      CG321      CG321      CG321       HGA2
    7     8     9    33	 9 ;      CG321      CG321      CG321       HGA2
   30     8     9    10	 9 ;       HGA2      CG321      CG321      CG321
   30     8     9    32	 9 ;       HGA2      CG321      CG321       HGA2
   30     8     9    33	 9 ;       HGA2      CG321      CG321       HGA2
   31     8     9    10	 9 ;       HGA2      CG321      CG321      CG321
   31     8     9    32	 9 ;       HGA2      CG321      CG321       HGA2
   31     8     9    33	 9 ;       HGA2      CG321      CG321       HGA2
    8     9    10    14	 9 ;      CG321      CG321      CG321      OG301
    8     9    10    34	 9 ;      CG321      CG321      CG321       HGA2
    8     9    10    35	 9 ;      CG321      CG321      CG321       HGA2
   32     9    10    14	 9 ;       HGA2      CG321      CG321      OG301
   32     9    10    34	 9 ;       HGA2      CG321      CG321       HGA2
   32     9    10    35	 9 ;       HGA2      CG321      CG321       HGA2
   33     9    10    14	 9 ;       HGA2      CG321      CG321      OG301
   33     9    10    34	 9 ;       HGA2      CG321      CG321       HGA2
   33     9    10    35	 9 ;       HGA2      CG321      CG321       HGA2
    9    10    14    11	 9 ;      CG321      CG321      OG301      CG301
   34    10    14    11	 9 ;       HGA2      CG321      OG301      CG301
   35    10    14    11	 9 ;       HGA2      CG321      OG301      CG301
   13    11    12    36	 9 ;      CG331      CG301      CG331       HGA3
   13    11    12    37	 9 ;      CG331      CG301      CG331       HGA3
   13    11    12    38	 9 ;      CG331      CG301      CG331       HGA3
   90    11    12    36	 9 ;      OG301      CG301      CG331       HGA3
   90    11    12    37	 9 ;      OG301      CG301      CG331       HGA3
   90    11    12    38	 9 ;      OG301      CG301      CG331       HGA3
   14    11    12    36	 9 ;      OG301      CG301      CG331       HGA3
   14    11    12    37	 9 ;      OG301      CG301      CG331       HGA3
   14    11    12    38	 9 ;      OG301      CG301      CG331       HGA3
   12    11    13    39	 9 ;      CG331      CG301      CG331       HGA3
   12    11    13    40	 9 ;      CG331      CG301      CG331       HGA3
   12    11    13    41	 9 ;      CG331      CG301      CG331       HGA3
   90    11    13    39	 9 ;      OG301      CG301      CG331       HGA3
   90    11    13    40	 9 ;      OG301      CG301      CG331       HGA3
   90    11    13    41	 9 ;      OG301      CG301      CG331       HGA3
   14    11    13    39	 9 ;      OG301      CG301      CG331       HGA3
   14    11    13    40	 9 ;      OG301      CG301      CG331       HGA3
   14    11    13    41	 9 ;      OG301      CG301      CG331       HGA3
   12    11    90    43	 9 ;      CG331      CG301      OG301      CG311
   13    11    90    43	 9 ;      CG331      CG301      OG301      CG311
   14    11    90    43	 9 ;      OG301      CG301      OG301      CG311
   12    11    14    10	 9 ;      CG331      CG301      OG301      CG321
   13    11    14    10	 9 ;      CG331      CG301      OG301      CG321
   90    11    14    10	 9 ;      OG301      CG301      OG301      CG321
  143    42    77    78	 9 ;       HGP1      NG2S1      CG2O1     CG2R61
  143    42    77   103	 9 ;       HGP1      NG2S1      CG2O1      OG2D1
   76    42    77    78	 9 ;      CG311      NG2S1      CG2O1     CG2R61
   76    42    77   103	 9 ;      CG311      NG2S1      CG2O1      OG2D1
   77    42    76    43	 9 ;      CG2O1      NG2S1      CG311      CG311
   77    42    76    84	 9 ;      CG2O1      NG2S1      CG311     CG2R61
   77    42    76   142	 9 ;      CG2O1      NG2S1      CG311       HGA1
  143    42    76    43	 9 ;       HGP1      NG2S1      CG311      CG311
  143    42    76    84	 9 ;       HGP1      NG2S1      CG311     CG2R61
  143    42    76   142	 9 ;       HGP1      NG2S1      CG311       HGA1
   76    43    44    91	 9 ;      CG311      CG311      CG2O2      OG2D1
   76    43    44    92	 9 ;      CG311      CG311      CG2O2      OG302
  104    43    44    91	 9 ;       HGA1      CG311      CG2O2      OG2D1
  104    43    44    92	 9 ;       HGA1      CG311      CG2O2      OG302
   90    43    44    91	 9 ;      OG301      CG311      CG2O2      OG2D1
   90    43    44    92	 9 ;      OG301      CG311      CG2O2      OG302
   44    43    76    42	 9 ;      CG2O2      CG311      CG311      NG2S1
   44    43    76    84	 9 ;      CG2O2      CG311      CG311     CG2R61
   44    43    76   142	 9 ;      CG2O2      CG311      CG311       HGA1
  104    43    76    42	 9 ;       HGA1      CG311      CG311      NG2S1
  104    43    76    84	 9 ;       HGA1      CG311      CG311     CG2R61
  104    43    76   142	 9 ;       HGA1      CG311      CG311       HGA1
   90    43    76    42	 9 ;      OG301      CG311      CG311      NG2S1
   90    43    76    84	 9 ;      OG301      CG311      CG311     CG2R61
   90    43    76   142	 9 ;      OG301      CG311      CG311       HGA1
   44    43    90    11	 9 ;      CG2O2      CG311      OG301      CG301
   76    43    90    11	 9 ;      CG311      CG311      OG301      CG301
  104    43    90    11	 9 ;       HGA1      CG311      OG301      CG301
   43    44    92    45	 9 ;      CG311      CG2O2      OG302      CG311
   91    44    92    45	 9 ;      OG2D1      CG2O2      OG302      CG311
   64    45    46    47	 9 ;      CG2D1      CG311      CG321      CG301
   64    45    46   106	 9 ;      CG2D1      CG311      CG321       HGA2
   64    45    46   107	 9 ;      CG2D1      CG311      CG321       HGA2
  105    45    46    47	 9 ;       HGA1      CG311      CG321      CG301
  105    45    46   106	 9 ;       HGA1      CG311      CG321       HGA2
  105    45    46   107	 9 ;       HGA1      CG311      CG321       HGA2
   92    45    46    47	 9 ;      OG302      CG311      CG321      CG301
   92    45    46   106	 9 ;      OG302      CG311      CG321       HGA2
   92    45    46   107	 9 ;      OG302      CG311      CG321       HGA2
   46    45    64    63	 9 ;      CG321      CG311      CG2D1      CG2D1
   46    45    64    65	 9 ;      CG321      CG311      CG2D1      CG331
  105    45    64    63	 9 ;       HGA1      CG311      CG2D1      CG2D1
  105    45    64    65	 9 ;       HGA1      CG311      CG2D1      CG331
   92    45    64    63	 9 ;      OG302      CG311      CG2D1      CG2D1
   92    45    64    65	 9 ;      OG302      CG311      CG2D1      CG331
   46    45    92    44	 9 ;      CG321      CG311      OG302      CG2O2
   64    45    92    44	 9 ;      CG2D1      CG311      OG302      CG2O2
  105    45    92    44	 9 ;       HGA1      CG311      OG302      CG2O2
   45    46    47    48	 9 ;      CG311      CG321      CG301      CG311
   45    46    47    66	 9 ;      CG311      CG321      CG301      CG301
   45    46    47    93	 9 ;      CG311      CG321      CG301      OG311
  106    46    47    48	 9 ;       HGA2      CG321      CG301      CG311
  106    46    47    66	 9 ;       HGA2      CG321      CG301      CG301
  106    46    47    93	 9 ;       HGA2      CG321      CG301      OG311
  107    46    47    48	 9 ;       HGA2      CG321      CG301      CG311
  107    46    47    66	 9 ;       HGA2      CG321      CG301      CG301
  107    46    47    93	 9 ;       HGA2      CG321      CG301      OG311
   46    47    48    56	 9 ;      CG321      CG301      CG311      CG311
   46    47    48    94	 9 ;      CG321      CG301      CG311      OG302
   46    47    48   109	 9 ;      CG321      CG301      CG311       HGA1
   66    47    48    56	 9 ;      CG301      CG301      CG311      CG311
   66    47    48    94	 9 ;      CG301      CG301      CG311      OG302
   66    47    48   109	 9 ;      CG301      CG301      CG311       HGA1
   93    47    48    56	 9 ;      OG311      CG301      CG311      CG311
   93    47    48    94	 9 ;      OG311      CG301      CG311      OG302
   93    47    48   109	 9 ;      OG311      CG301      CG311       HGA1
   46    47    66    63	 9 ;      CG321      CG301      CG301      CG2D1
   46    47    66    67	 9 ;      CG321      CG301      CG301      CG331
   46    47    66    68	 9 ;      CG321      CG301      CG301      CG331
   48    47    66    63	 9 ;      CG311      CG301      CG301      CG2D1
   48    47    66    67	 9 ;      CG311      CG301      CG301      CG331
   48    47    66    68	 9 ;      CG311      CG301      CG301      CG331
   93    47    66    63	 9 ;      OG311      CG301      CG301      CG2D1
   93    47    66    67	 9 ;      OG311      CG301      CG301      CG331
   93    47    66    68	 9 ;      OG311      CG301      CG301      CG331
   46    47    93   108	 9 ;      CG321      CG301      OG311       HGP1
   48    47    93   108	 9 ;      CG311      CG301      OG311       HGP1
   66    47    93   108	 9 ;      CG301      CG301      OG311       HGP1
   47    48    56    57	 9 ;      CG301      CG311      CG311      CG301
   47    48    56    73	 9 ;      CG301      CG311      CG311     CG3RC1
   47    48    56   115	 9 ;      CG301      CG311      CG311       HGA1
   94    48    56    57	 9 ;      OG302      CG311      CG311      CG301
   94    48    56    73	 9 ;      OG302      CG311      CG311     CG3RC1
   94    48    56   115	 9 ;      OG302      CG311      CG311       HGA1
  109    48    56    57	 9 ;       HGA1      CG311      CG311      CG301
  109    48    56    73	 9 ;       HGA1      CG311      CG311     CG3RC1
  109    48    56   115	 9 ;       HGA1      CG311      CG311       HGA1
   47    48    94    49	 9 ;      CG301      CG311      OG302      CG2O2
   56    48    94    49	 9 ;      CG311      CG311      OG302      CG2O2
  109    48    94    49	 9 ;       HGA1      CG311      OG302      CG2O2
   95    49    50    51	 9 ;      OG2D1      CG2O2     CG2R61     CG2R61
   95    49    50    55	 9 ;      OG2D1      CG2O2     CG2R61     CG2R61
   94    49    50    51	 9 ;      OG302      CG2O2     CG2R61     CG2R61
   94    49    50    55	 9 ;      OG302      CG2O2     CG2R61     CG2R61
   50    49    94    48	 9 ;     CG2R61      CG2O2      OG302      CG311
   95    49    94    48	 9 ;      OG2D1      CG2O2      OG302      CG311
   49    50    51    52	 9 ;      CG2O2     CG2R61     CG2R61     CG2R61
   49    50    51   110	 9 ;      CG2O2     CG2R61     CG2R61      HGR61
   55    50    51    52	 9 ;     CG2R61     CG2R61     CG2R61     CG2R61
   55    50    51   110	 9 ;     CG2R61     CG2R61     CG2R61      HGR61
   49    50    55    54	 9 ;      CG2O2     CG2R61     CG2R61     CG2R61
   49    50    55   114	 9 ;      CG2O2     CG2R61     CG2R61      HGR61
   51    50    55    54	 9 ;     CG2R61     CG2R61     CG2R61     CG2R61
   51    50    55   114	 9 ;     CG2R61     CG2R61     CG2R61      HGR61
   50    51    52    53	 9 ;     CG2R61     CG2R61     CG2R61     CG2R61
   50    51    52   111	 9 ;     CG2R61     CG2R61     CG2R61      HGR61
  110    51    52    53	 9 ;      HGR61     CG2R61     CG2R61     CG2R61
  110    51    52   111	 9 ;      HGR61     CG2R61     CG2R61      HGR61
   51    52    53    54	 9 ;     CG2R61     CG2R61     CG2R61     CG2R61
   51    52    53   112	 9 ;     CG2R61     CG2R61     CG2R61      HGR61
  111    52    53    54	 9 ;      HGR61     CG2R61     CG2R61     CG2R61
  111    52    53   112	 9 ;      HGR61     CG2R61     CG2R61      HGR61
   52    53    54    55	 9 ;     CG2R61     CG2R61     CG2R61     CG2R61
   52    53    54   113	 9 ;     CG2R61     CG2R61     CG2R61      HGR61
  112    53    54    55	 9 ;      HGR61     CG2R61     CG2R61     CG2R61
  112    53    54   113	 9 ;      HGR61     CG2R61     CG2R61      HGR61
   53    54    55    50	 9 ;     CG2R61     CG2R61     CG2R61     CG2R61
   53    54    55   114	 9 ;     CG2R61     CG2R61     CG2R61      HGR61
  113    54    55    50	 9 ;      HGR61     CG2R61     CG2R61     CG2R61
  113    54    55   114	 9 ;      HGR61     CG2R61     CG2R61      HGR61
   48    56    57    58	 9 ;      CG311      CG311      CG301      CG331
   48    56    57    59	 9 ;      CG311      CG311      CG301      CG2O5
   48    56    57    69	 9 ;      CG311      CG311      CG301      CG311
   73    56    57    58	 9 ;     CG3RC1      CG311      CG301      CG331
   73    56    57    59	 9 ;     CG3RC1      CG311      CG301      CG2O5
   73    56    57    69	 9 ;     CG3RC1      CG311      CG301      CG311
  115    56    57    58	 9 ;       HGA1      CG311      CG301      CG331
  115    56    57    59	 9 ;       HGA1      CG311      CG301      CG2O5
  115    56    57    69	 9 ;       HGA1      CG311      CG301      CG311
   48    56    73    71	 9 ;      CG311      CG311     CG3RC1     CG3RC1
   48    56    73    72	 9 ;      CG311      CG311     CG3RC1     CG3C41
   48    56    73   101	 9 ;      CG311      CG311     CG3RC1      OG302
   57    56    73    71	 9 ;      CG301      CG311     CG3RC1     CG3RC1
   57    56    73    72	 9 ;      CG301      CG311     CG3RC1     CG3C41
   57    56    73   101	 9 ;      CG301      CG311     CG3RC1      OG302
  115    56    73    71	 9 ;       HGA1      CG311     CG3RC1     CG3RC1
  115    56    73    72	 9 ;       HGA1      CG311     CG3RC1     CG3C41
  115    56    73   101	 9 ;       HGA1      CG311     CG3RC1      OG302
   56    57    58   116	 9 ;      CG311      CG301      CG331       HGA3
   56    57    58   117	 9 ;      CG311      CG301      CG331       HGA3
   56    57    58   118	 9 ;      CG311      CG301      CG331       HGA3
   59    57    58   116	 9 ;      CG2O5      CG301      CG331       HGA3
   59    57    58   117	 9 ;      CG2O5      CG301      CG331       HGA3
   59    57    58   118	 9 ;      CG2O5      CG301      CG331       HGA3
   69    57    58   116	 9 ;      CG311      CG301      CG331       HGA3
   69    57    58   117	 9 ;      CG311      CG301      CG331       HGA3
   69    57    58   118	 9 ;      CG311      CG301      CG331       HGA3
   56    57    59    60	 9 ;      CG311      CG301      CG2O5      CG311
   56    57    59    96	 9 ;      CG311      CG301      CG2O5      OG2D3
   58    57    59    60	 9 ;      CG331      CG301      CG2O5      CG311
   58    57    59    96	 9 ;      CG331      CG301      CG2O5      OG2D3
   69    57    59    60	 9 ;      CG311      CG301      CG2O5      CG311
   69    57    59    96	 9 ;      CG311      CG301      CG2O5      OG2D3
   56    57    69    70	 9 ;      CG311      CG301      CG311      CG321
   56    57    69    99	 9 ;      CG311      CG301      CG311      OG311
   56    57    69   132	 9 ;      CG311      CG301      CG311       HGA1
   58    57    69    70	 9 ;      CG331      CG301      CG311      CG321
   58    57    69    99	 9 ;      CG331      CG301      CG311      OG311
   58    57    69   132	 9 ;      CG331      CG301      CG311       HGA1
   59    57    69    70	 9 ;      CG2O5      CG301      CG311      CG321
   59    57    69    99	 9 ;      CG2O5      CG301      CG311      OG311
   59    57    69   132	 9 ;      CG2O5      CG301      CG311       HGA1
   57    59    60    63	 9 ;      CG301      CG2O5      CG311      CG2D1
   57    59    60    97	 9 ;      CG301      CG2O5      CG311      OG302
   57    59    60   119	 9 ;      CG301      CG2O5      CG311       HGA1
   96    59    60    63	 9 ;      OG2D3      CG2O5      CG311      CG2D1
   96    59    60    97	 9 ;      OG2D3      CG2O5      CG311      OG302
   96    59    60   119	 9 ;      OG2D3      CG2O5      CG311       HGA1
   59    60    63    64	 9 ;      CG2O5      CG311      CG2D1      CG2D1
   59    60    63    66	 9 ;      CG2O5      CG311      CG2D1      CG301
   97    60    63    64	 9 ;      OG302      CG311      CG2D1      CG2D1
   97    60    63    66	 9 ;      OG302      CG311      CG2D1      CG301
  119    60    63    64	 9 ;       HGA1      CG311      CG2D1      CG2D1
  119    60    63    66	 9 ;       HGA1      CG311      CG2D1      CG301
   59    60    97    61	 9 ;      CG2O5      CG311      OG302      CG2O2
   63    60    97    61	 9 ;      CG2D1      CG311      OG302      CG2O2
  119    60    97    61	 9 ;       HGA1      CG311      OG302      CG2O2
   98    61    62   120	 9 ;      OG2D1      CG2O2      CG331       HGA3
   98    61    62   121	 9 ;      OG2D1      CG2O2      CG331       HGA3
   98    61    62   122	 9 ;      OG2D1      CG2O2      CG331       HGA3
   97    61    62   120	 9 ;      OG302      CG2O2      CG331       HGA3
   97    61    62   121	 9 ;      OG302      CG2O2      CG331       HGA3
   97    61    62   122	 9 ;      OG302      CG2O2      CG331       HGA3
   62    61    97    60	 9 ;      CG331      CG2O2      OG302      CG311
   98    61    97    60	 9 ;      OG2D1      CG2O2      OG302      CG311
   60    63    64    45	 9 ;      CG311      CG2D1      CG2D1      CG311
   60    63    64    65	 9 ;      CG311      CG2D1      CG2D1      CG331
   66    63    64    45	 9 ;      CG301      CG2D1      CG2D1      CG311
   66    63    64    65	 9 ;      CG301      CG2D1      CG2D1      CG331
   60    63    66    47	 9 ;      CG311      CG2D1      CG301      CG301
   60    63    66    67	 9 ;      CG311      CG2D1      CG301      CG331
   60    63    66    68	 9 ;      CG311      CG2D1      CG301      CG331
   64    63    66    47	 9 ;      CG2D1      CG2D1      CG301      CG301
   64    63    66    67	 9 ;      CG2D1      CG2D1      CG301      CG331
   64    63    66    68	 9 ;      CG2D1      CG2D1      CG301      CG331
   45    64    65   123	 9 ;      CG311      CG2D1      CG331       HGA3
   45    64    65   124	 9 ;      CG311      CG2D1      CG331       HGA3
   45    64    65   125	 9 ;      CG311      CG2D1      CG331       HGA3
   63    64    65   123	 9 ;      CG2D1      CG2D1      CG331       HGA3
   63    64    65   124	 9 ;      CG2D1      CG2D1      CG331       HGA3
   63    64    65   125	 9 ;      CG2D1      CG2D1      CG331       HGA3
   47    66    67   126	 9 ;      CG301      CG301      CG331       HGA3
   47    66    67   127	 9 ;      CG301      CG301      CG331       HGA3
   47    66    67   128	 9 ;      CG301      CG301      CG331       HGA3
   63    66    67   126	 9 ;      CG2D1      CG301      CG331       HGA3
   63    66    67   127	 9 ;      CG2D1      CG301      CG331       HGA3
   63    66    67   128	 9 ;      CG2D1      CG301      CG331       HGA3
   68    66    67   126	 9 ;      CG331      CG301      CG331       HGA3
   68    66    67   127	 9 ;      CG331      CG301      CG331       HGA3
   68    66    67   128	 9 ;      CG331      CG301      CG331       HGA3
   47    66    68   129	 9 ;      CG301      CG301      CG331       HGA3
   47    66    68   130	 9 ;      CG301      CG301      CG331       HGA3
   47    66    68   131	 9 ;      CG301      CG301      CG331       HGA3
   63    66    68   129	 9 ;      CG2D1      CG301      CG331       HGA3
   63    66    68   130	 9 ;      CG2D1      CG301      CG331       HGA3
   63    66    68   131	 9 ;      CG2D1      CG301      CG331       HGA3
   67    66    68   129	 9 ;      CG331      CG301      CG331       HGA3
   67    66    68   130	 9 ;      CG331      CG301      CG331       HGA3
   67    66    68   131	 9 ;      CG331      CG301      CG331       HGA3
   57    69    70    71	 9 ;      CG301      CG311      CG321     CG3RC1
   57    69    70   134	 9 ;      CG301      CG311      CG321       HGA2
   57    69    70   135	 9 ;      CG301      CG311      CG321       HGA2
   99    69    70    71	 9 ;      OG311      CG311      CG321     CG3RC1
   99    69    70   134	 9 ;      OG311      CG311      CG321       HGA2
   99    69    70   135	 9 ;      OG311      CG311      CG321       HGA2
  132    69    70    71	 9 ;       HGA1      CG311      CG321     CG3RC1
  132    69    70   134	 9 ;       HGA1      CG311      CG321       HGA2
  132    69    70   135	 9 ;       HGA1      CG311      CG321       HGA2
   57    69    99   133	 9 ;      CG301      CG311      OG311       HGP1
   70    69    99   133	 9 ;      CG321      CG311      OG311       HGP1
  132    69    99   133	 9 ;       HGA1      CG311      OG311       HGP1
   69    70    71    73	 9 ;      CG311      CG321     CG3RC1     CG3RC1
   69    70    71   100	 9 ;      CG311      CG321     CG3RC1     OG3C51
   69    70    71   136	 9 ;      CG311      CG321     CG3RC1       HGA1
  134    70    71    73	 9 ;       HGA2      CG321     CG3RC1     CG3RC1
  134    70    71   100	 9 ;       HGA2      CG321     CG3RC1     OG3C51
  134    70    71   136	 9 ;       HGA2      CG321     CG3RC1       HGA1
  135    70    71    73	 9 ;       HGA2      CG321     CG3RC1     CG3RC1
  135    70    71   100	 9 ;       HGA2      CG321     CG3RC1     OG3C51
  135    70    71   136	 9 ;       HGA2      CG321     CG3RC1       HGA1
   70    71    73    56	 9 ;      CG321     CG3RC1     CG3RC1      CG311
   70    71    73    72	 9 ;      CG321     CG3RC1     CG3RC1     CG3C41
   70    71    73   101	 9 ;      CG321     CG3RC1     CG3RC1      OG302
  100    71    73    56	 9 ;     OG3C51     CG3RC1     CG3RC1      CG311
  100    71    73    72	 9 ;     OG3C51     CG3RC1     CG3RC1     CG3C41
  100    71    73   101	 9 ;     OG3C51     CG3RC1     CG3RC1      OG302
  136    71    73    56	 9 ;       HGA1     CG3RC1     CG3RC1      CG311
  136    71    73    72	 9 ;       HGA1     CG3RC1     CG3RC1     CG3C41
  136    71    73   101	 9 ;       HGA1     CG3RC1     CG3RC1      OG302
   70    71   100    72	 9 ;      CG321     CG3RC1     OG3C51     CG3C41
   73    71   100    72	 9 ;     CG3RC1     CG3RC1     OG3C51     CG3C41
  136    71   100    72	 9 ;       HGA1     CG3RC1     OG3C51     CG3C41
  137    72    73    56	 9 ;       HGA2     CG3C41     CG3RC1      CG311
  137    72    73    71	 9 ;       HGA2     CG3C41     CG3RC1     CG3RC1
  137    72    73   101	 9 ;       HGA2     CG3C41     CG3RC1      OG302
  138    72    73    56	 9 ;       HGA2     CG3C41     CG3RC1      CG311
  138    72    73    71	 9 ;       HGA2     CG3C41     CG3RC1     CG3RC1
  138    72    73   101	 9 ;       HGA2     CG3C41     CG3RC1      OG302
  100    72    73    56	 9 ;     OG3C51     CG3C41     CG3RC1      CG311
  100    72    73    71	 9 ;     OG3C51     CG3C41     CG3RC1     CG3RC1
  100    72    73   101	 9 ;     OG3C51     CG3C41     CG3RC1      OG302
   73    72   100    71	 9 ;     CG3RC1     CG3C41     OG3C51     CG3RC1
  137    72   100    71	 9 ;       HGA2     CG3C41     OG3C51     CG3RC1
  138    72   100    71	 9 ;       HGA2     CG3C41     OG3C51     CG3RC1
   56    73   101    74	 9 ;      CG311     CG3RC1      OG302      CG2O2
   71    73   101    74	 9 ;     CG3RC1     CG3RC1      OG302      CG2O2
   72    73   101    74	 9 ;     CG3C41     CG3RC1      OG302      CG2O2
  102    74    75   139	 9 ;      OG2D1      CG2O2      CG331       HGA3
  102    74    75   140	 9 ;      OG2D1      CG2O2      CG331       HGA3
  102    74    75   141	 9 ;      OG2D1      CG2O2      CG331       HGA3
  101    74    75   139	 9 ;      OG302      CG2O2      CG331       HGA3
  101    74    75   140	 9 ;      OG302      CG2O2      CG331       HGA3
  101    74    75   141	 9 ;      OG302      CG2O2      CG331       HGA3
   75    74   101    73	 9 ;      CG331      CG2O2      OG302     CG3RC1
  102    74   101    73	 9 ;      OG2D1      CG2O2      OG302     CG3RC1
   43    76    84    85	 9 ;      CG311      CG311     CG2R61     CG2R61
   43    76    84    89	 9 ;      CG311      CG311     CG2R61     CG2R61
   42    76    84    85	 9 ;      NG2S1      CG311     CG2R61     CG2R61
   42    76    84    89	 9 ;      NG2S1      CG311     CG2R61     CG2R61
  142    76    84    85	 9 ;       HGA1      CG311     CG2R61     CG2R61
  142    76    84    89	 9 ;       HGA1      CG311     CG2R61     CG2R61
   42    77    78    79	 9 ;      NG2S1      CG2O1     CG2R61     CG2R61
   42    77    78    83	 9 ;      NG2S1      CG2O1     CG2R61     CG2R61
  103    77    78    79	 9 ;      OG2D1      CG2O1     CG2R61     CG2R61
  103    77    78    83	 9 ;      OG2D1      CG2O1     CG2R61     CG2R61
   77    78    79    80	 9 ;      CG2O1     CG2R61     CG2R61     CG2R61
   77    78    79   144	 9 ;      CG2O1     CG2R61     CG2R61      HGR61
   83    78    79    80	 9 ;     CG2R61     CG2R61     CG2R61     CG2R61
   83    78    79   144	 9 ;     CG2R61     CG2R61     CG2R61      HGR61
   77    78    83    82	 9 ;      CG2O1     CG2R61     CG2R61     CG2R61
   77    78    83   148	 9 ;      CG2O1     CG2R61     CG2R61      HGR61
   79    78    83    82	 9 ;     CG2R61     CG2R61     CG2R61     CG2R61
   79    78    83   148	 9 ;     CG2R61     CG2R61     CG2R61      HGR61
   78    79    80    81	 9 ;     CG2R61     CG2R61     CG2R61     CG2R61
   78    79    80   145	 9 ;     CG2R61     CG2R61     CG2R61      HGR61
  144    79    80    81	 9 ;      HGR61     CG2R61     CG2R61     CG2R61
  144    79    80   145	 9 ;      HGR61     CG2R61     CG2R61      HGR61
   79    80    81    82	 9 ;     CG2R61     CG2R61     CG2R61     CG2R61
   79    80    81   146	 9 ;     CG2R61     CG2R61     CG2R61      HGR61
  145    80    81    82	 9 ;      HGR61     CG2R61     CG2R61     CG2R61
  145    80    81   146	 9 ;      HGR61     CG2R61     CG2R61      HGR61
   80    81    82    83	 9 ;     CG2R61     CG2R61     CG2R61     CG2R61
   80    81    82   147	 9 ;     CG2R61     CG2R61     CG2R61      HGR61
  146    81    82    83	 9 ;      HGR61     CG2R61     CG2R61     CG2R61
  146    81    82   147	 9 ;      HGR61     CG2R61     CG2R61      HGR61
   81    82    83    78	 9 ;     CG2R61     CG2R61     CG2R61     CG2R61
   81    82    83   148	 9 ;     CG2R61     CG2R61     CG2R61      HGR61
  147    82    83    78	 9 ;      HGR61     CG2R61     CG2R61     CG2R61
  147    82    83   148	 9 ;      HGR61     CG2R61     CG2R61      HGR61
   76    84    85    86	 9 ;      CG311     CG2R61     CG2R61     CG2R61
   76    84    85   149	 9 ;      CG311     CG2R61     CG2R61      HGR61
   89    84    85    86	 9 ;     CG2R61     CG2R61     CG2R61     CG2R61
   89    84    85   149	 9 ;     CG2R61     CG2R61     CG2R61      HGR61
   76    84    89    88	 9 ;      CG311     CG2R61     CG2R61     CG2R61
   76    84    89   153	 9 ;      CG311     CG2R61     CG2R61      HGR61
   85    84    89    88	 9 ;     CG2R61     CG2R61     CG2R61     CG2R61
   85    84    89   153	 9 ;     CG2R61     CG2R61     CG2R61      HGR61
   84    85    86    87	 9 ;     CG2R61     CG2R61     CG2R61     CG2R61
   84    85    86   150	 9 ;     CG2R61     CG2R61     CG2R61      HGR61
  149    85    86    87	 9 ;      HGR61     CG2R61     CG2R61     CG2R61
  149    85    86   150	 9 ;      HGR61     CG2R61     CG2R61      HGR61
   85    86    87    88	 9 ;     CG2R61     CG2R61     CG2R61     CG2R61
   85    86    87   151	 9 ;     CG2R61     CG2R61     CG2R61      HGR61
  150    86    87    88	 9 ;      HGR61     CG2R61     CG2R61     CG2R61
  150    86    87   151	 9 ;      HGR61     CG2R61     CG2R61      HGR61
   86    87    88    89	 9 ;     CG2R61     CG2R61     CG2R61     CG2R61
   86    87    88   152	 9 ;     CG2R61     CG2R61     CG2R61      HGR61
  151    87    88    89	 9 ;      HGR61     CG2R61     CG2R61     CG2R61
  151    87    88   152	 9 ;      HGR61     CG2R61     CG2R61      HGR61
   87    88    89    84	 9 ;     CG2R61     CG2R61     CG2R61     CG2R61
   87    88    89   153	 9 ;     CG2R61     CG2R61     CG2R61      HGR61
  152    88    89    84	 9 ;      HGR61     CG2R61     CG2R61     CG2R61
  152    88    89   153	 9 ;      HGR61     CG2R61     CG2R61      HGR61

[ dihedrals ]
;	ai	  aj	ak	  al funct			  c0			c1			  c2			c3
   44    43    91    92	 2
   49    50    95    94	 2
   59    57    60    96	 2
   61    62    98    97	 2
   74    75   102   101	 2
   77    78    42   103	 2

