; Created by cgenff_charmm2gmx.py

[ moleculetype ]
; Name			   nrexcl
PTX				 3

[ atoms ]
;	 nr		  type	resnr residue  atom   cgnr	   charge		mass  typeB    chargeB		massB
; residue	 1 PTX rtp PTX q	qsum
     1      CG2O6      1    PTL     C1      1      0.007     12.011   ;
     2      CG321      1    PTL     C2      2      0.140     12.011   ;
     3     CG2R61      1    PTL     C3      3      0.013     12.011   ;
     4     CG2R61      1    PTL     C4      4     -0.118     12.011   ;
     5     CG2R61      1    PTL     C5      5     -0.108     12.011   ;
     6     CG2R61      1    PTL     C6      6      0.238     12.011   ;
     7      CG301      1    PTL     C7      7      0.383     12.011   ;
     8      CG321      1    PTL     C8      8      0.036     12.011   ;
     9      CG321      1    PTL     C9      9     -0.009     12.011   ;
    10      CG321      1    PTL    C10     10     -0.009     12.011   ;
    11      CG321      1    PTL    C11     11     -0.180     12.011   ;
    12      CG321      1    PTL    C12     12     -0.180     12.011   ;
    13      CG321      1    PTL    C13     13     -0.180     12.011   ;
    14      CG321      1    PTL    C14     14     -0.180     12.011   ;
    15      CG321      1    PTL    C15     15     -0.180     12.011   ;
    16      CG321      1    PTL    C16     16     -0.180     12.011   ;
    17      CG321      1    PTL    C17     17     -0.180     12.011   ;
    18      CG321      1    PTL    C18     18     -0.180     12.011   ;
    19      CG321      1    PTL    C19     19     -0.180     12.011   ;
    20      CG321      1    PTL    C20     20     -0.180     12.011   ;
    21      CG321      1    PTL    C21     21     -0.180     12.011   ;
    22      CG321      1    PTL    C22     22     -0.180     12.011   ;
    23      CG321      1    PTL    C23     23     -0.180     12.011   ;
    24      CG321      1    PTL    C24     24     -0.179     12.011   ;
    25      CG321      1    PTL    C25     25     -0.181     12.011   ;
    26      CG321      1    PTL    C26     26     -0.177     12.011   ;
    27      CG331      1    PTL    C27     27     -0.273     12.011   ;
    28      CG331      1    PTL    C28     28     -0.274     12.011   ;
    29      CG331      1    PTL    C29     29     -0.274     12.011   ;
    30     CG2R61      1    PTL    C30     30     -0.108     12.011   ;
    31     CG2R61      1    PTL    C31     31     -0.118     12.011   ;
    32      OG2D1      1    PTL     O1     32     -0.395     15.999   ;
    33      OG302      1    PTL     O2     33     -0.134     15.999   ;
    34      OG301      1    PTL     O3     34     -0.426     15.999   ;
    35      OG301      1    PTL     O4     35     -0.403     15.999   ;
    36      OG301      1    PTL     O5     36     -0.342     15.999   ;
    37       HGA2      1    PTL     H1     37      0.090      1.008   ;
    38       HGA2      1    PTL     H2     38      0.090      1.008   ;
    39      HGR61      1    PTL     H3     39      0.115      1.008   ;
    40      HGR61      1    PTL     H4     40      0.115      1.008   ;
    41       HGA2      1    PTL     H5     41      0.090      1.008   ;
    42       HGA2      1    PTL     H6     42      0.090      1.008   ;
    43       HGA2      1    PTL     H7     43      0.090      1.008   ;
    44       HGA2      1    PTL     H8     44      0.090      1.008   ;
    45       HGA2      1    PTL     H9     45      0.090      1.008   ;
    46       HGA2      1    PTL    H10     46      0.090      1.008   ;
    47       HGA2      1    PTL    H11     47      0.090      1.008   ;
    48       HGA2      1    PTL    H12     48      0.090      1.008   ;
    49       HGA2      1    PTL    H13     49      0.090      1.008   ;
    50       HGA2      1    PTL    H14     50      0.090      1.008   ;
    51       HGA2      1    PTL    H15     51      0.090      1.008   ;
    52       HGA2      1    PTL    H16     52      0.090      1.008   ;
    53       HGA2      1    PTL    H17     53      0.090      1.008   ;
    54       HGA2      1    PTL    H18     54      0.090      1.008   ;
    55       HGA2      1    PTL    H19     55      0.090      1.008   ;
    56       HGA2      1    PTL    H20     56      0.090      1.008   ;
    57       HGA2      1    PTL    H21     57      0.090      1.008   ;
    58       HGA2      1    PTL    H22     58      0.090      1.008   ;
    59       HGA2      1    PTL    H23     59      0.090      1.008   ;
    60       HGA2      1    PTL    H24     60      0.090      1.008   ;
    61       HGA2      1    PTL    H25     61      0.090      1.008   ;
    62       HGA2      1    PTL    H26     62      0.090      1.008   ;
    63       HGA2      1    PTL    H27     63      0.090      1.008   ;
    64       HGA2      1    PTL    H28     64      0.090      1.008   ;
    65       HGA2      1    PTL    H29     65      0.090      1.008   ;
    66       HGA2      1    PTL    H30     66      0.090      1.008   ;
    67       HGA2      1    PTL    H31     67      0.090      1.008   ;
    68       HGA2      1    PTL    H32     68      0.090      1.008   ;
    69       HGA2      1    PTL    H33     69      0.090      1.008   ;
    70       HGA2      1    PTL    H34     70      0.090      1.008   ;
    71       HGA2      1    PTL    H35     71      0.090      1.008   ;
    72       HGA2      1    PTL    H36     72      0.090      1.008   ;
    73       HGA2      1    PTL    H37     73      0.090      1.008   ;
    74       HGA2      1    PTL    H38     74      0.090      1.008   ;
    75       HGA2      1    PTL    H39     75      0.090      1.008   ;
    76       HGA2      1    PTL    H40     76      0.090      1.008   ;
    77       HGA2      1    PTL    H41     77      0.090      1.008   ;
    78       HGA2      1    PTL    H42     78      0.090      1.008   ;
    79       HGA3      1    PTL    H43     79      0.090      1.008   ;
    80       HGA3      1    PTL    H44     80      0.090      1.008   ;
    81       HGA3      1    PTL    H45     81      0.090      1.008   ;
    82       HGA3      1    PTL    H46     82      0.090      1.008   ;
    83       HGA3      1    PTL    H47     83      0.090      1.008   ;
    84       HGA3      1    PTL    H48     84      0.090      1.008   ;
    85       HGA3      1    PTL    H49     85      0.090      1.008   ;
    86       HGA3      1    PTL    H50     86      0.090      1.008   ;
    87       HGA3      1    PTL    H51     87      0.090      1.008   ;
    88      HGR61      1    PTL    H52     88      0.115      1.008   ;
    89      HGR61      1    PTL    H53     89      0.115      1.008   ;
    90      NG2S1      1    PTX      N     90     -0.404     14.007   ;
    91      CG311      1    PTX    C32     91      0.247     12.011   ;
    92      CG2O2      1    PTX    C33     92      0.844     12.011   ;
    93      CG311      1    PTX    C34     93      0.272     12.011   ;
    94      CG321      1    PTX    C35     94     -0.212     12.011   ;
    95      CG301      1    PTX    C36     95      0.186     12.011   ;
    96      CG311      1    PTX    C37     96      0.133     12.011   ;
    97      CG311      1    PTX    C38     97     -0.074     12.011   ;
    98     CG3RC1      1    PTX    C39     98      0.366     12.011   ;
    99     CG3C41      1    PTX    C40     99     -0.106     12.011   ;
   100     CG3RC1      1    PTX    C41    100      0.015     12.011   ;
   101      CG321      1    PTX    C42    101     -0.201     12.011   ;
   102      CG311      1    PTX    C43    102      0.166     12.011   ;
   103      CG301      1    PTX    C44    103      0.081     12.011   ;
   104      CG331      1    PTX    C45    104     -0.263     12.011   ;
   105      CG2O5      1    PTX    C46    105      0.297     12.011   ;
   106      CG311      1    PTX    C47    106      0.432     12.011   ;
   107      CG2O2      1    PTX    C48    107      0.834     12.011   ;
   108      CG331      1    PTX    C49    108     -0.311     12.011   ;
   109      CG2D1      1    PTX    C50    109     -0.113     12.011   ;
   110      CG301      1    PTX    C51    110      0.016     12.011   ;
   111      CG331      1    PTX    C52    111     -0.269     12.011   ;
   112      CG331      1    PTX    C53    112     -0.269     12.011   ;
   113      CG2D1      1    PTX    C54    113     -0.153     12.011   ;
   114      CG331      1    PTX    C55    114     -0.265     12.011   ;
   115      CG2O2      1    PTX    C56    115      0.885     12.011   ;
   116      CG331      1    PTX    C57    116     -0.313     12.011   ;
   117      CG2O2      1    PTX    C58    117      0.459     12.011   ;
   118     CG2R61      1    PTX    C59    118      0.086     12.011   ;
   119     CG2R61      1    PTX    C60    119     -0.110     12.011   ;
   120     CG2R61      1    PTX    C61    120     -0.114     12.011   ;
   121     CG2R61      1    PTX    C62    121     -0.115     12.011   ;
   122     CG2R61      1    PTX    C63    122     -0.114     12.011   ;
   123     CG2R61      1    PTX    C64    123     -0.110     12.011   ;
   124      CG311      1    PTX    C65    124      0.124     12.011   ;
   125      CG2O1      1    PTX    C66    125      0.341     12.011   ;
   126     CG2R61      1    PTX    C67    126     -0.137     12.011   ;
   127     CG2R61      1    PTX    C68    127     -0.024     12.011   ;
   128     CG2R61      1    PTX    C69    128     -0.109     12.011   ;
   129     CG2R61      1    PTX    C70    129     -0.115     12.011   ;
   130     CG2R61      1    PTX    C71    130     -0.109     12.011   ;
   131     CG2R61      1    PTX    C72    131     -0.024     12.011   ;
   132     CG2R61      1    PTX    C73    132     -0.040     12.011   ;
   133     CG2R61      1    PTX    C74    133     -0.106     12.011   ;
   134     CG2R61      1    PTX    C75    134     -0.115     12.011   ;
   135     CG2R61      1    PTX    C76    135     -0.115     12.011   ;
   136     CG2R61      1    PTX    C77    136     -0.115     12.011   ;
   137     CG2R61      1    PTX    C78    137     -0.106     12.011   ;
   138      OG302      1    PTX     O6    138     -0.173     15.999   ;
   139      OG2D1      1    PTX     O7    139     -0.623     15.999   ;
   140      OG302      1    PTX     O8    140     -0.432     15.999   ;
   141      OG311      1    PTX     O9    141     -0.460     15.999   ;
   142     OG3C51      1    PTX    O10    142     -0.343     15.999   ;
   143      OG311      1    PTX    O11    143     -0.642     15.999   ;
   144      OG2D3      1    PTX    O12    144     -0.515     15.999   ;
   145      OG302      1    PTX    O13    145     -0.427     15.999   ;
   146      OG2D1      1    PTX    O14    146     -0.625     15.999   ;
   147      OG302      1    PTX    O15    147     -0.422     15.999   ;
   148      OG2D1      1    PTX    O16    148     -0.617     15.999   ;
   149      OG302      1    PTX    O17    149     -0.310     15.999   ;
   150      OG2D1      1    PTX    O18    150     -0.496     15.999   ;
   151      OG2D1      1    PTX    O19    151     -0.458     15.999   ;
   152       HGA1      1    PTX    H54    152      0.090      1.008   ;
   153       HGA1      1    PTX    H55    153      0.090      1.008   ;
   154       HGA2      1    PTX    H56    154      0.090      1.008   ;
   155       HGA2      1    PTX    H57    155      0.090      1.008   ;
   156       HGP1      1    PTX    H58    156      0.292      1.008   ;
   157       HGA1      1    PTX    H59    157      0.090      1.008   ;
   158       HGA1      1    PTX    H60    158      0.090      1.008   ;
   159       HGA2      1    PTX    H61    159      0.090      1.008   ;
   160       HGA2      1    PTX    H62    160      0.090      1.008   ;
   161       HGA1      1    PTX    H63    161      0.090      1.008   ;
   162       HGA2      1    PTX    H64    162      0.090      1.008   ;
   163       HGA2      1    PTX    H65    163      0.090      1.008   ;
   164       HGA1      1    PTX    H66    164      0.090      1.008   ;
   165       HGP1      1    PTX    H67    165      0.400      1.008   ;
   166       HGA3      1    PTX    H68    166      0.090      1.008   ;
   167       HGA3      1    PTX    H69    167      0.090      1.008   ;
   168       HGA3      1    PTX    H70    168      0.090      1.008   ;
   169       HGA1      1    PTX    H71    169      0.090      1.008   ;
   170       HGA3      1    PTX    H72    170      0.090      1.008   ;
   171       HGA3      1    PTX    H73    171      0.090      1.008   ;
   172       HGA3      1    PTX    H74    172      0.090      1.008   ;
   173       HGA3      1    PTX    H75    173      0.090      1.008   ;
   174       HGA3      1    PTX    H76    174      0.090      1.008   ;
   175       HGA3      1    PTX    H77    175      0.090      1.008   ;
   176       HGA3      1    PTX    H78    176      0.090      1.008   ;
   177       HGA3      1    PTX    H79    177      0.090      1.008   ;
   178       HGA3      1    PTX    H80    178      0.090      1.008   ;
   179       HGA3      1    PTX    H81    179      0.090      1.008   ;
   180       HGA3      1    PTX    H82    180      0.090      1.008   ;
   181       HGA3      1    PTX    H83    181      0.090      1.008   ;
   182       HGA3      1    PTX    H84    182      0.090      1.008   ;
   183       HGA3      1    PTX    H85    183      0.090      1.008   ;
   184       HGA3      1    PTX    H86    184      0.090      1.008   ;
   185      HGR61      1    PTX    H87    185      0.115      1.008   ;
   186      HGR61      1    PTX    H88    186      0.115      1.008   ;
   187      HGR61      1    PTX    H89    187      0.115      1.008   ;
   188      HGR61      1    PTX    H90    188      0.115      1.008   ;
   189      HGR61      1    PTX    H91    189      0.115      1.008   ;
   190       HGA1      1    PTX    H92    190      0.090      1.008   ;
   191       HGP1      1    PTX    H93    191      0.274      1.008   ;
   192      HGR61      1    PTX    H94    192      0.115      1.008   ;
   193      HGR61      1    PTX    H95    193      0.115      1.008   ;
   194      HGR61      1    PTX    H96    194      0.115      1.008   ;
   195      HGR61      1    PTX    H97    195      0.115      1.008   ;
   196      HGR61      1    PTX    H98    196      0.115      1.008   ;
   197      HGR61      1    PTX    H99    197      0.115      1.008   ;
   198      HGR61      1    PTX   H100    198      0.115      1.008   ;
   199      HGR61      1    PTX   H101    199      0.115      1.008   ;
   200      HGR61      1    PTX   H102    200      0.115      1.008   ;
   201      HGR61      1    PTX   H103    201      0.115      1.008   ;

[ bonds ]
;	ai	  aj funct			  c0			c1			  c2			c3
    1    33	 1 ;       CG2O6      OG302
    1   138	 1 ;       CG2O6      OG302
    1    32	 1 ;       CG2O6      OG2D1
    2     3	 1 ;       CG321     CG2R61
    2    37	 1 ;       CG321       HGA2
    2    38	 1 ;       CG321       HGA2
    2    33	 1 ;       CG321      OG302
    3     4	 1 ;      CG2R61     CG2R61
    3    31	 1 ;      CG2R61     CG2R61
    4     5	 1 ;      CG2R61     CG2R61
    4    39	 1 ;      CG2R61      HGR61
    5     6	 1 ;      CG2R61     CG2R61
    5    40	 1 ;      CG2R61      HGR61
    6    30	 1 ;      CG2R61     CG2R61
    6    34	 1 ;      CG2R61      OG301
    7    28	 1 ;       CG301      CG331
    7    29	 1 ;       CG301      CG331
    7    35	 1 ;       CG301      OG301
    7    34	 1 ;       CG301      OG301
    8     9	 1 ;       CG321      CG321
    8    41	 1 ;       CG321       HGA2
    8    42	 1 ;       CG321       HGA2
    8    35	 1 ;       CG321      OG301
    9    36	 1 ;       CG321      OG301
    9    43	 1 ;       CG321       HGA2
    9    44	 1 ;       CG321       HGA2
   10    11	 1 ;       CG321      CG321
   10    45	 1 ;       CG321       HGA2
   10    46	 1 ;       CG321       HGA2
   10    36	 1 ;       CG321      OG301
   11    12	 1 ;       CG321      CG321
   11    47	 1 ;       CG321       HGA2
   11    48	 1 ;       CG321       HGA2
   12    13	 1 ;       CG321      CG321
   12    49	 1 ;       CG321       HGA2
   12    50	 1 ;       CG321       HGA2
   13    14	 1 ;       CG321      CG321
   13    51	 1 ;       CG321       HGA2
   13    52	 1 ;       CG321       HGA2
   14    15	 1 ;       CG321      CG321
   14    53	 1 ;       CG321       HGA2
   14    54	 1 ;       CG321       HGA2
   15    16	 1 ;       CG321      CG321
   15    55	 1 ;       CG321       HGA2
   15    56	 1 ;       CG321       HGA2
   16    17	 1 ;       CG321      CG321
   16    57	 1 ;       CG321       HGA2
   16    58	 1 ;       CG321       HGA2
   17    18	 1 ;       CG321      CG321
   17    59	 1 ;       CG321       HGA2
   17    60	 1 ;       CG321       HGA2
   18    19	 1 ;       CG321      CG321
   18    61	 1 ;       CG321       HGA2
   18    62	 1 ;       CG321       HGA2
   19    20	 1 ;       CG321      CG321
   19    63	 1 ;       CG321       HGA2
   19    64	 1 ;       CG321       HGA2
   20    21	 1 ;       CG321      CG321
   20    65	 1 ;       CG321       HGA2
   20    66	 1 ;       CG321       HGA2
   21    22	 1 ;       CG321      CG321
   21    67	 1 ;       CG321       HGA2
   21    68	 1 ;       CG321       HGA2
   22    23	 1 ;       CG321      CG321
   22    69	 1 ;       CG321       HGA2
   22    70	 1 ;       CG321       HGA2
   23    24	 1 ;       CG321      CG321
   23    71	 1 ;       CG321       HGA2
   23    72	 1 ;       CG321       HGA2
   24    25	 1 ;       CG321      CG321
   24    73	 1 ;       CG321       HGA2
   24    74	 1 ;       CG321       HGA2
   25    26	 1 ;       CG321      CG321
   25    75	 1 ;       CG321       HGA2
   25    76	 1 ;       CG321       HGA2
   26    27	 1 ;       CG321      CG331
   26    77	 1 ;       CG321       HGA2
   26    78	 1 ;       CG321       HGA2
   27    79	 1 ;       CG331       HGA3
   27    80	 1 ;       CG331       HGA3
   27    81	 1 ;       CG331       HGA3
   28    82	 1 ;       CG331       HGA3
   28    83	 1 ;       CG331       HGA3
   28    84	 1 ;       CG331       HGA3
   29    85	 1 ;       CG331       HGA3
   29    86	 1 ;       CG331       HGA3
   29    87	 1 ;       CG331       HGA3
   30    31	 1 ;      CG2R61     CG2R61
   30    88	 1 ;      CG2R61      HGR61
   31    89	 1 ;      CG2R61      HGR61
   90   125	 1 ;       NG2S1      CG2O1
   90   191	 1 ;       NG2S1       HGP1
   90   124	 1 ;       NG2S1      CG311
   91    92	 1 ;       CG311      CG2O2
   91   124	 1 ;       CG311      CG311
   91   152	 1 ;       CG311       HGA1
   91   138	 1 ;       CG311      OG302
   92   139	 1 ;       CG2O2      OG2D1
   92   140	 1 ;       CG2O2      OG302
   93    94	 1 ;       CG311      CG321
   93   113	 1 ;       CG311      CG2D1
   93   153	 1 ;       CG311       HGA1
   93   140	 1 ;       CG311      OG302
   94    95	 1 ;       CG321      CG301
   94   154	 1 ;       CG321       HGA2
   94   155	 1 ;       CG321       HGA2
   95    96	 1 ;       CG301      CG311
   95   110	 1 ;       CG301      CG301
   95   141	 1 ;       CG301      OG311
   96    97	 1 ;       CG311      CG311
   96   149	 1 ;       CG311      OG302
   96   157	 1 ;       CG311       HGA1
   97    98	 1 ;       CG311     CG3RC1
   97   103	 1 ;       CG311      CG301
   97   158	 1 ;       CG311       HGA1
   98    99	 1 ;      CG3RC1     CG3C41
   98   100	 1 ;      CG3RC1     CG3RC1
   98   147	 1 ;      CG3RC1      OG302
   99   142	 1 ;      CG3C41     OG3C51
   99   159	 1 ;      CG3C41       HGA2
   99   160	 1 ;      CG3C41       HGA2
  100   101	 1 ;      CG3RC1      CG321
  100   161	 1 ;      CG3RC1       HGA1
  100   142	 1 ;      CG3RC1     OG3C51
  101   102	 1 ;       CG321      CG311
  101   162	 1 ;       CG321       HGA2
  101   163	 1 ;       CG321       HGA2
  102   103	 1 ;       CG311      CG301
  102   143	 1 ;       CG311      OG311
  102   164	 1 ;       CG311       HGA1
  103   104	 1 ;       CG301      CG331
  103   105	 1 ;       CG301      CG2O5
  104   166	 1 ;       CG331       HGA3
  104   167	 1 ;       CG331       HGA3
  104   168	 1 ;       CG331       HGA3
  105   106	 1 ;       CG2O5      CG311
  105   144	 1 ;       CG2O5      OG2D3
  106   109	 1 ;       CG311      CG2D1
  106   145	 1 ;       CG311      OG302
  106   169	 1 ;       CG311       HGA1
  107   108	 1 ;       CG2O2      CG331
  107   146	 1 ;       CG2O2      OG2D1
  107   145	 1 ;       CG2O2      OG302
  108   170	 1 ;       CG331       HGA3
  108   171	 1 ;       CG331       HGA3
  108   172	 1 ;       CG331       HGA3
  109   110	 1 ;       CG2D1      CG301
  109   113	 1 ;       CG2D1      CG2D1
  110   111	 1 ;       CG301      CG331
  110   112	 1 ;       CG301      CG331
  111   173	 1 ;       CG331       HGA3
  111   174	 1 ;       CG331       HGA3
  111   175	 1 ;       CG331       HGA3
  112   176	 1 ;       CG331       HGA3
  112   177	 1 ;       CG331       HGA3
  112   178	 1 ;       CG331       HGA3
  113   114	 1 ;       CG2D1      CG331
  114   179	 1 ;       CG331       HGA3
  114   180	 1 ;       CG331       HGA3
  114   181	 1 ;       CG331       HGA3
  115   116	 1 ;       CG2O2      CG331
  115   148	 1 ;       CG2O2      OG2D1
  115   147	 1 ;       CG2O2      OG302
  116   182	 1 ;       CG331       HGA3
  116   183	 1 ;       CG331       HGA3
  116   184	 1 ;       CG331       HGA3
  117   118	 1 ;       CG2O2     CG2R61
  117   150	 1 ;       CG2O2      OG2D1
  117   149	 1 ;       CG2O2      OG302
  118   119	 1 ;      CG2R61     CG2R61
  118   123	 1 ;      CG2R61     CG2R61
  119   120	 1 ;      CG2R61     CG2R61
  119   185	 1 ;      CG2R61      HGR61
  120   121	 1 ;      CG2R61     CG2R61
  120   186	 1 ;      CG2R61      HGR61
  121   122	 1 ;      CG2R61     CG2R61
  121   187	 1 ;      CG2R61      HGR61
  122   123	 1 ;      CG2R61     CG2R61
  122   188	 1 ;      CG2R61      HGR61
  123   189	 1 ;      CG2R61      HGR61
  124   132	 1 ;       CG311     CG2R61
  124   190	 1 ;       CG311       HGA1
  125   126	 1 ;       CG2O1     CG2R61
  125   151	 1 ;       CG2O1      OG2D1
  126   127	 1 ;      CG2R61     CG2R61
  126   131	 1 ;      CG2R61     CG2R61
  127   128	 1 ;      CG2R61     CG2R61
  127   192	 1 ;      CG2R61      HGR61
  128   129	 1 ;      CG2R61     CG2R61
  128   193	 1 ;      CG2R61      HGR61
  129   130	 1 ;      CG2R61     CG2R61
  129   194	 1 ;      CG2R61      HGR61
  130   131	 1 ;      CG2R61     CG2R61
  130   195	 1 ;      CG2R61      HGR61
  131   196	 1 ;      CG2R61      HGR61
  132   133	 1 ;      CG2R61     CG2R61
  132   137	 1 ;      CG2R61     CG2R61
  133   134	 1 ;      CG2R61     CG2R61
  133   197	 1 ;      CG2R61      HGR61
  134   135	 1 ;      CG2R61     CG2R61
  134   198	 1 ;      CG2R61      HGR61
  135   136	 1 ;      CG2R61     CG2R61
  135   199	 1 ;      CG2R61      HGR61
  136   137	 1 ;      CG2R61     CG2R61
  136   200	 1 ;      CG2R61      HGR61
  137   201	 1 ;      CG2R61      HGR61
  141   156	 1 ;       OG311       HGP1
  143   165	 1 ;       OG311       HGP1

[ pairs ]
;	ai	  aj funct			  c0			c1			  c2			c3
    1     3	 1
    1    37	 1
    1    38	 1
    1    92	 1
    1   124	 1
    1   152	 1
    2   138	 1
    2    32	 1
    2     5	 1
    2    39	 1
    2    30	 1
    2    89	 1
    3     6	 1
    3    40	 1
    3    88	 1
    4    37	 1
    4    38	 1
    4    33	 1
    4    30	 1
    4    89	 1
    4    34	 1
    5    31	 1
    5    88	 1
    5     7	 1
    6    39	 1
    6    28	 1
    6    29	 1
    6    35	 1
    6    89	 1
    7    30	 1
    7     9	 1
    7    41	 1
    7    42	 1
    8    28	 1
    8    29	 1
    8    34	 1
    8    10	 1
    9    11	 1
    9    45	 1
    9    46	 1
   10    43	 1
   10    44	 1
   10    13	 1
   10    49	 1
   10    50	 1
   11    14	 1
   11    51	 1
   11    52	 1
   12    45	 1
   12    46	 1
   12    36	 1
   12    15	 1
   12    53	 1
   12    54	 1
   13    47	 1
   13    48	 1
   13    16	 1
   13    55	 1
   13    56	 1
   14    49	 1
   14    50	 1
   14    17	 1
   14    57	 1
   14    58	 1
   15    51	 1
   15    52	 1
   15    18	 1
   15    59	 1
   15    60	 1
   16    53	 1
   16    54	 1
   16    19	 1
   16    61	 1
   16    62	 1
   17    55	 1
   17    56	 1
   17    20	 1
   17    63	 1
   17    64	 1
   18    57	 1
   18    58	 1
   18    21	 1
   18    65	 1
   18    66	 1
   19    59	 1
   19    60	 1
   19    22	 1
   19    67	 1
   19    68	 1
   20    61	 1
   20    62	 1
   20    23	 1
   20    69	 1
   20    70	 1
   21    63	 1
   21    64	 1
   21    24	 1
   21    71	 1
   21    72	 1
   22    65	 1
   22    66	 1
   22    25	 1
   22    73	 1
   22    74	 1
   23    67	 1
   23    68	 1
   23    26	 1
   23    75	 1
   23    76	 1
   24    69	 1
   24    70	 1
   24    27	 1
   24    77	 1
   24    78	 1
   25    71	 1
   25    72	 1
   25    79	 1
   25    80	 1
   25    81	 1
   26    73	 1
   26    74	 1
   27    75	 1
   27    76	 1
   28    85	 1
   28    86	 1
   28    87	 1
   29    82	 1
   29    83	 1
   29    84	 1
   30    40	 1
   31    37	 1
   31    38	 1
   31    33	 1
   31    39	 1
   31    34	 1
   32    91	 1
   33    91	 1
   34    40	 1
   34    88	 1
   34    82	 1
   34    83	 1
   34    84	 1
   34    85	 1
   34    86	 1
   34    87	 1
   35    82	 1
   35    83	 1
   35    84	 1
   35    85	 1
   35    86	 1
   35    87	 1
   35    36	 1
   35    43	 1
   35    44	 1
   36    41	 1
   36    42	 1
   36    47	 1
   36    48	 1
   39    40	 1
   41    43	 1
   41    44	 1
   42    43	 1
   42    44	 1
   45    47	 1
   45    48	 1
   46    47	 1
   46    48	 1
   47    49	 1
   47    50	 1
   48    49	 1
   48    50	 1
   49    51	 1
   49    52	 1
   50    51	 1
   50    52	 1
   51    53	 1
   51    54	 1
   52    53	 1
   52    54	 1
   53    55	 1
   53    56	 1
   54    55	 1
   54    56	 1
   55    57	 1
   55    58	 1
   56    57	 1
   56    58	 1
   57    59	 1
   57    60	 1
   58    59	 1
   58    60	 1
   59    61	 1
   59    62	 1
   60    61	 1
   60    62	 1
   61    63	 1
   61    64	 1
   62    63	 1
   62    64	 1
   63    65	 1
   63    66	 1
   64    65	 1
   64    66	 1
   65    67	 1
   65    68	 1
   66    67	 1
   66    68	 1
   67    69	 1
   67    70	 1
   68    69	 1
   68    70	 1
   69    71	 1
   69    72	 1
   70    71	 1
   70    72	 1
   71    73	 1
   71    74	 1
   72    73	 1
   72    74	 1
   73    75	 1
   73    76	 1
   74    75	 1
   74    76	 1
   75    77	 1
   75    78	 1
   76    77	 1
   76    78	 1
   77    79	 1
   77    80	 1
   77    81	 1
   78    79	 1
   78    80	 1
   78    81	 1
   88    89	 1
   90    92	 1
   90   152	 1
   90   138	 1
   90   133	 1
   90   137	 1
   90   127	 1
   90   131	 1
   91   125	 1
   91   191	 1
   91    93	 1
   91   133	 1
   91   137	 1
   92   132	 1
   92   190	 1
   92    94	 1
   92   113	 1
   92   153	 1
   93   139	 1
   93    96	 1
   93   110	 1
   93   141	 1
   93   106	 1
   93   179	 1
   93   180	 1
   93   181	 1
   94   109	 1
   94   114	 1
   94    97	 1
   94   149	 1
   94   157	 1
   94   111	 1
   94   112	 1
   94   156	 1
   95   113	 1
   95   153	 1
   95   140	 1
   95    98	 1
   95   103	 1
   95   158	 1
   95   117	 1
   95   106	 1
   95   173	 1
   95   174	 1
   95   175	 1
   95   176	 1
   95   177	 1
   95   178	 1
   96   154	 1
   96   155	 1
   96   109	 1
   96   111	 1
   96   112	 1
   96   156	 1
   96    99	 1
   96   100	 1
   96   147	 1
   96   102	 1
   96   104	 1
   96   105	 1
   96   118	 1
   96   150	 1
   97   110	 1
   97   141	 1
   97   117	 1
   97   142	 1
   97   159	 1
   97   160	 1
   97   101	 1
   97   161	 1
   97   115	 1
   97   143	 1
   97   164	 1
   97   166	 1
   97   167	 1
   97   168	 1
   97   106	 1
   97   144	 1
   98   149	 1
   98   157	 1
   98   102	 1
   98   104	 1
   98   105	 1
   98   162	 1
   98   163	 1
   98   116	 1
   98   148	 1
   99   103	 1
   99   158	 1
   99   101	 1
   99   161	 1
   99   115	 1
  100   103	 1
  100   158	 1
  100   159	 1
  100   160	 1
  100   115	 1
  100   143	 1
  100   164	 1
  101   147	 1
  101   104	 1
  101   105	 1
  101   165	 1
  102   158	 1
  102   161	 1
  102   142	 1
  102   166	 1
  102   167	 1
  102   168	 1
  102   106	 1
  102   144	 1
  103   149	 1
  103   157	 1
  103   147	 1
  103   162	 1
  103   163	 1
  103   165	 1
  103   109	 1
  103   145	 1
  103   169	 1
  104   158	 1
  104   143	 1
  104   164	 1
  104   106	 1
  104   144	 1
  105   158	 1
  105   143	 1
  105   164	 1
  105   166	 1
  105   167	 1
  105   168	 1
  105   110	 1
  105   113	 1
  105   107	 1
  106   108	 1
  106   146	 1
  106   111	 1
  106   112	 1
  106   114	 1
  107   109	 1
  107   169	 1
  109   153	 1
  109   140	 1
  109   141	 1
  109   144	 1
  109   173	 1
  109   174	 1
  109   175	 1
  109   176	 1
  109   177	 1
  109   178	 1
  109   179	 1
  109   180	 1
  109   181	 1
  110   154	 1
  110   155	 1
  110   149	 1
  110   157	 1
  110   156	 1
  110   145	 1
  110   169	 1
  110   114	 1
  111   141	 1
  111   113	 1
  111   176	 1
  111   177	 1
  111   178	 1
  112   141	 1
  112   113	 1
  112   173	 1
  112   174	 1
  112   175	 1
  113   154	 1
  113   155	 1
  113   145	 1
  113   169	 1
  114   153	 1
  114   140	 1
  117   157	 1
  117   120	 1
  117   185	 1
  117   122	 1
  117   189	 1
  118   121	 1
  118   186	 1
  118   188	 1
  119   150	 1
  119   149	 1
  119   122	 1
  119   189	 1
  119   187	 1
  120   123	 1
  120   188	 1
  121   185	 1
  121   189	 1
  122   186	 1
  123   150	 1
  123   149	 1
  123   185	 1
  123   187	 1
  124   126	 1
  124   151	 1
  124   139	 1
  124   140	 1
  124   134	 1
  124   197	 1
  124   136	 1
  124   201	 1
  125   132	 1
  125   190	 1
  125   128	 1
  125   192	 1
  125   130	 1
  125   196	 1
  126   191	 1
  126   129	 1
  126   193	 1
  126   195	 1
  127   151	 1
  127   130	 1
  127   196	 1
  127   194	 1
  128   131	 1
  128   195	 1
  129   192	 1
  129   196	 1
  130   193	 1
  131   151	 1
  131   192	 1
  131   194	 1
  132   191	 1
  132   152	 1
  132   138	 1
  132   135	 1
  132   198	 1
  132   200	 1
  133   190	 1
  133   136	 1
  133   201	 1
  133   199	 1
  134   137	 1
  134   200	 1
  135   197	 1
  135   201	 1
  136   198	 1
  137   190	 1
  137   197	 1
  137   199	 1
  138   139	 1
  138   140	 1
  138   190	 1
  139   152	 1
  140   152	 1
  140   154	 1
  140   155	 1
  141   154	 1
  141   155	 1
  141   149	 1
  141   157	 1
  142   147	 1
  142   162	 1
  142   163	 1
  143   162	 1
  143   163	 1
  144   145	 1
  144   169	 1
  145   170	 1
  145   171	 1
  145   172	 1
  146   170	 1
  146   171	 1
  146   172	 1
  147   158	 1
  147   159	 1
  147   160	 1
  147   161	 1
  147   182	 1
  147   183	 1
  147   184	 1
  148   182	 1
  148   183	 1
  148   184	 1
  149   158	 1
  151   191	 1
  152   190	 1
  153   154	 1
  153   155	 1
  157   158	 1
  161   162	 1
  161   163	 1
  162   164	 1
  163   164	 1
  164   165	 1
  185   186	 1
  186   187	 1
  187   188	 1
  188   189	 1
  190   191	 1
  192   193	 1
  193   194	 1
  194   195	 1
  195   196	 1
  197   198	 1
  198   199	 1
  199   200	 1
  200   201	 1

[ angles ]
;	ai	  aj	ak funct			c0			  c1			c2			  c3
   33     1   138	5 ;      OG302      CG2O6      OG302
   33     1    32	5 ;      OG302      CG2O6      OG2D1
  138     1    32	5 ;      OG302      CG2O6      OG2D1
    3     2    37	5 ;     CG2R61      CG321       HGA2
    3     2    38	5 ;     CG2R61      CG321       HGA2
    3     2    33	5 ;     CG2R61      CG321      OG302
   37     2    38	5 ;       HGA2      CG321       HGA2
   37     2    33	5 ;       HGA2      CG321      OG302
   38     2    33	5 ;       HGA2      CG321      OG302
    2     3     4	5 ;      CG321     CG2R61     CG2R61
    2     3    31	5 ;      CG321     CG2R61     CG2R61
    4     3    31	5 ;     CG2R61     CG2R61     CG2R61
    3     4     5	5 ;     CG2R61     CG2R61     CG2R61
    3     4    39	5 ;     CG2R61     CG2R61      HGR61
    5     4    39	5 ;     CG2R61     CG2R61      HGR61
    4     5     6	5 ;     CG2R61     CG2R61     CG2R61
    4     5    40	5 ;     CG2R61     CG2R61      HGR61
    6     5    40	5 ;     CG2R61     CG2R61      HGR61
    5     6    30	5 ;     CG2R61     CG2R61     CG2R61
    5     6    34	5 ;     CG2R61     CG2R61      OG301
   30     6    34	5 ;     CG2R61     CG2R61      OG301
   28     7    29	5 ;      CG331      CG301      CG331
   28     7    35	5 ;      CG331      CG301      OG301
   28     7    34	5 ;      CG331      CG301      OG301
   29     7    35	5 ;      CG331      CG301      OG301
   29     7    34	5 ;      CG331      CG301      OG301
   35     7    34	5 ;      OG301      CG301      OG301
    9     8    41	5 ;      CG321      CG321       HGA2
    9     8    42	5 ;      CG321      CG321       HGA2
    9     8    35	5 ;      CG321      CG321      OG301
   41     8    42	5 ;       HGA2      CG321       HGA2
   41     8    35	5 ;       HGA2      CG321      OG301
   42     8    35	5 ;       HGA2      CG321      OG301
    8     9    36	5 ;      CG321      CG321      OG301
    8     9    43	5 ;      CG321      CG321       HGA2
    8     9    44	5 ;      CG321      CG321       HGA2
   36     9    43	5 ;      OG301      CG321       HGA2
   36     9    44	5 ;      OG301      CG321       HGA2
   43     9    44	5 ;       HGA2      CG321       HGA2
   11    10    45	5 ;      CG321      CG321       HGA2
   11    10    46	5 ;      CG321      CG321       HGA2
   11    10    36	5 ;      CG321      CG321      OG301
   45    10    46	5 ;       HGA2      CG321       HGA2
   45    10    36	5 ;       HGA2      CG321      OG301
   46    10    36	5 ;       HGA2      CG321      OG301
   10    11    12	5 ;      CG321      CG321      CG321
   10    11    47	5 ;      CG321      CG321       HGA2
   10    11    48	5 ;      CG321      CG321       HGA2
   12    11    47	5 ;      CG321      CG321       HGA2
   12    11    48	5 ;      CG321      CG321       HGA2
   47    11    48	5 ;       HGA2      CG321       HGA2
   11    12    13	5 ;      CG321      CG321      CG321
   11    12    49	5 ;      CG321      CG321       HGA2
   11    12    50	5 ;      CG321      CG321       HGA2
   13    12    49	5 ;      CG321      CG321       HGA2
   13    12    50	5 ;      CG321      CG321       HGA2
   49    12    50	5 ;       HGA2      CG321       HGA2
   12    13    14	5 ;      CG321      CG321      CG321
   12    13    51	5 ;      CG321      CG321       HGA2
   12    13    52	5 ;      CG321      CG321       HGA2
   14    13    51	5 ;      CG321      CG321       HGA2
   14    13    52	5 ;      CG321      CG321       HGA2
   51    13    52	5 ;       HGA2      CG321       HGA2
   13    14    15	5 ;      CG321      CG321      CG321
   13    14    53	5 ;      CG321      CG321       HGA2
   13    14    54	5 ;      CG321      CG321       HGA2
   15    14    53	5 ;      CG321      CG321       HGA2
   15    14    54	5 ;      CG321      CG321       HGA2
   53    14    54	5 ;       HGA2      CG321       HGA2
   14    15    16	5 ;      CG321      CG321      CG321
   14    15    55	5 ;      CG321      CG321       HGA2
   14    15    56	5 ;      CG321      CG321       HGA2
   16    15    55	5 ;      CG321      CG321       HGA2
   16    15    56	5 ;      CG321      CG321       HGA2
   55    15    56	5 ;       HGA2      CG321       HGA2
   15    16    17	5 ;      CG321      CG321      CG321
   15    16    57	5 ;      CG321      CG321       HGA2
   15    16    58	5 ;      CG321      CG321       HGA2
   17    16    57	5 ;      CG321      CG321       HGA2
   17    16    58	5 ;      CG321      CG321       HGA2
   57    16    58	5 ;       HGA2      CG321       HGA2
   16    17    18	5 ;      CG321      CG321      CG321
   16    17    59	5 ;      CG321      CG321       HGA2
   16    17    60	5 ;      CG321      CG321       HGA2
   18    17    59	5 ;      CG321      CG321       HGA2
   18    17    60	5 ;      CG321      CG321       HGA2
   59    17    60	5 ;       HGA2      CG321       HGA2
   17    18    19	5 ;      CG321      CG321      CG321
   17    18    61	5 ;      CG321      CG321       HGA2
   17    18    62	5 ;      CG321      CG321       HGA2
   19    18    61	5 ;      CG321      CG321       HGA2
   19    18    62	5 ;      CG321      CG321       HGA2
   61    18    62	5 ;       HGA2      CG321       HGA2
   18    19    20	5 ;      CG321      CG321      CG321
   18    19    63	5 ;      CG321      CG321       HGA2
   18    19    64	5 ;      CG321      CG321       HGA2
   20    19    63	5 ;      CG321      CG321       HGA2
   20    19    64	5 ;      CG321      CG321       HGA2
   63    19    64	5 ;       HGA2      CG321       HGA2
   19    20    21	5 ;      CG321      CG321      CG321
   19    20    65	5 ;      CG321      CG321       HGA2
   19    20    66	5 ;      CG321      CG321       HGA2
   21    20    65	5 ;      CG321      CG321       HGA2
   21    20    66	5 ;      CG321      CG321       HGA2
   65    20    66	5 ;       HGA2      CG321       HGA2
   20    21    22	5 ;      CG321      CG321      CG321
   20    21    67	5 ;      CG321      CG321       HGA2
   20    21    68	5 ;      CG321      CG321       HGA2
   22    21    67	5 ;      CG321      CG321       HGA2
   22    21    68	5 ;      CG321      CG321       HGA2
   67    21    68	5 ;       HGA2      CG321       HGA2
   21    22    23	5 ;      CG321      CG321      CG321
   21    22    69	5 ;      CG321      CG321       HGA2
   21    22    70	5 ;      CG321      CG321       HGA2
   23    22    69	5 ;      CG321      CG321       HGA2
   23    22    70	5 ;      CG321      CG321       HGA2
   69    22    70	5 ;       HGA2      CG321       HGA2
   22    23    24	5 ;      CG321      CG321      CG321
   22    23    71	5 ;      CG321      CG321       HGA2
   22    23    72	5 ;      CG321      CG321       HGA2
   24    23    71	5 ;      CG321      CG321       HGA2
   24    23    72	5 ;      CG321      CG321       HGA2
   71    23    72	5 ;       HGA2      CG321       HGA2
   23    24    25	5 ;      CG321      CG321      CG321
   23    24    73	5 ;      CG321      CG321       HGA2
   23    24    74	5 ;      CG321      CG321       HGA2
   25    24    73	5 ;      CG321      CG321       HGA2
   25    24    74	5 ;      CG321      CG321       HGA2
   73    24    74	5 ;       HGA2      CG321       HGA2
   24    25    26	5 ;      CG321      CG321      CG321
   24    25    75	5 ;      CG321      CG321       HGA2
   24    25    76	5 ;      CG321      CG321       HGA2
   26    25    75	5 ;      CG321      CG321       HGA2
   26    25    76	5 ;      CG321      CG321       HGA2
   75    25    76	5 ;       HGA2      CG321       HGA2
   25    26    27	5 ;      CG321      CG321      CG331
   25    26    77	5 ;      CG321      CG321       HGA2
   25    26    78	5 ;      CG321      CG321       HGA2
   27    26    77	5 ;      CG331      CG321       HGA2
   27    26    78	5 ;      CG331      CG321       HGA2
   77    26    78	5 ;       HGA2      CG321       HGA2
   26    27    79	5 ;      CG321      CG331       HGA3
   26    27    80	5 ;      CG321      CG331       HGA3
   26    27    81	5 ;      CG321      CG331       HGA3
   79    27    80	5 ;       HGA3      CG331       HGA3
   79    27    81	5 ;       HGA3      CG331       HGA3
   80    27    81	5 ;       HGA3      CG331       HGA3
    7    28    82	5 ;      CG301      CG331       HGA3
    7    28    83	5 ;      CG301      CG331       HGA3
    7    28    84	5 ;      CG301      CG331       HGA3
   82    28    83	5 ;       HGA3      CG331       HGA3
   82    28    84	5 ;       HGA3      CG331       HGA3
   83    28    84	5 ;       HGA3      CG331       HGA3
    7    29    85	5 ;      CG301      CG331       HGA3
    7    29    86	5 ;      CG301      CG331       HGA3
    7    29    87	5 ;      CG301      CG331       HGA3
   85    29    86	5 ;       HGA3      CG331       HGA3
   85    29    87	5 ;       HGA3      CG331       HGA3
   86    29    87	5 ;       HGA3      CG331       HGA3
    6    30    31	5 ;     CG2R61     CG2R61     CG2R61
    6    30    88	5 ;     CG2R61     CG2R61      HGR61
   31    30    88	5 ;     CG2R61     CG2R61      HGR61
    3    31    30	5 ;     CG2R61     CG2R61     CG2R61
    3    31    89	5 ;     CG2R61     CG2R61      HGR61
   30    31    89	5 ;     CG2R61     CG2R61      HGR61
    1    33     2	5 ;      CG2O6      OG302      CG321
    6    34     7	5 ;     CG2R61      OG301      CG301
    7    35     8	5 ;      CG301      OG301      CG321
    9    36    10	5 ;      CG321      OG301      CG321
  125    90   191	5 ;      CG2O1      NG2S1       HGP1
  125    90   124	5 ;      CG2O1      NG2S1      CG311
  191    90   124	5 ;       HGP1      NG2S1      CG311
   92    91   124	5 ;      CG2O2      CG311      CG311
   92    91   152	5 ;      CG2O2      CG311       HGA1
   92    91   138	5 ;      CG2O2      CG311      OG302
  124    91   152	5 ;      CG311      CG311       HGA1
  124    91   138	5 ;      CG311      CG311      OG302
  152    91   138	5 ;       HGA1      CG311      OG302
   91    92   139	5 ;      CG311      CG2O2      OG2D1
   91    92   140	5 ;      CG311      CG2O2      OG302
  139    92   140	5 ;      OG2D1      CG2O2      OG302
   94    93   113	5 ;      CG321      CG311      CG2D1
   94    93   153	5 ;      CG321      CG311       HGA1
   94    93   140	5 ;      CG321      CG311      OG302
  113    93   153	5 ;      CG2D1      CG311       HGA1
  113    93   140	5 ;      CG2D1      CG311      OG302
  153    93   140	5 ;       HGA1      CG311      OG302
   93    94    95	5 ;      CG311      CG321      CG301
   93    94   154	5 ;      CG311      CG321       HGA2
   93    94   155	5 ;      CG311      CG321       HGA2
   95    94   154	5 ;      CG301      CG321       HGA2
   95    94   155	5 ;      CG301      CG321       HGA2
  154    94   155	5 ;       HGA2      CG321       HGA2
   94    95    96	5 ;      CG321      CG301      CG311
   94    95   110	5 ;      CG321      CG301      CG301
   94    95   141	5 ;      CG321      CG301      OG311
   96    95   110	5 ;      CG311      CG301      CG301
   96    95   141	5 ;      CG311      CG301      OG311
  110    95   141	5 ;      CG301      CG301      OG311
   95    96    97	5 ;      CG301      CG311      CG311
   95    96   149	5 ;      CG301      CG311      OG302
   95    96   157	5 ;      CG301      CG311       HGA1
   97    96   149	5 ;      CG311      CG311      OG302
   97    96   157	5 ;      CG311      CG311       HGA1
  149    96   157	5 ;      OG302      CG311       HGA1
   96    97    98	5 ;      CG311      CG311     CG3RC1
   96    97   103	5 ;      CG311      CG311      CG301
   96    97   158	5 ;      CG311      CG311       HGA1
   98    97   103	5 ;     CG3RC1      CG311      CG301
   98    97   158	5 ;     CG3RC1      CG311       HGA1
  103    97   158	5 ;      CG301      CG311       HGA1
   97    98    99	5 ;      CG311     CG3RC1     CG3C41
   97    98   100	5 ;      CG311     CG3RC1     CG3RC1
   97    98   147	5 ;      CG311     CG3RC1      OG302
   99    98   100	5 ;     CG3C41     CG3RC1     CG3RC1
   99    98   147	5 ;     CG3C41     CG3RC1      OG302
  100    98   147	5 ;     CG3RC1     CG3RC1      OG302
   98    99   142	5 ;     CG3RC1     CG3C41     OG3C51
   98    99   159	5 ;     CG3RC1     CG3C41       HGA2
   98    99   160	5 ;     CG3RC1     CG3C41       HGA2
  142    99   159	5 ;     OG3C51     CG3C41       HGA2
  142    99   160	5 ;     OG3C51     CG3C41       HGA2
  159    99   160	5 ;       HGA2     CG3C41       HGA2
   98   100   101	5 ;     CG3RC1     CG3RC1      CG321
   98   100   161	5 ;     CG3RC1     CG3RC1       HGA1
   98   100   142	5 ;     CG3RC1     CG3RC1     OG3C51
  101   100   161	5 ;      CG321     CG3RC1       HGA1
  101   100   142	5 ;      CG321     CG3RC1     OG3C51
  161   100   142	5 ;       HGA1     CG3RC1     OG3C51
  100   101   102	5 ;     CG3RC1      CG321      CG311
  100   101   162	5 ;     CG3RC1      CG321       HGA2
  100   101   163	5 ;     CG3RC1      CG321       HGA2
  102   101   162	5 ;      CG311      CG321       HGA2
  102   101   163	5 ;      CG311      CG321       HGA2
  162   101   163	5 ;       HGA2      CG321       HGA2
  101   102   103	5 ;      CG321      CG311      CG301
  101   102   143	5 ;      CG321      CG311      OG311
  101   102   164	5 ;      CG321      CG311       HGA1
  103   102   143	5 ;      CG301      CG311      OG311
  103   102   164	5 ;      CG301      CG311       HGA1
  143   102   164	5 ;      OG311      CG311       HGA1
   97   103   102	5 ;      CG311      CG301      CG311
   97   103   104	5 ;      CG311      CG301      CG331
   97   103   105	5 ;      CG311      CG301      CG2O5
  102   103   104	5 ;      CG311      CG301      CG331
  102   103   105	5 ;      CG311      CG301      CG2O5
  104   103   105	5 ;      CG331      CG301      CG2O5
  103   104   166	5 ;      CG301      CG331       HGA3
  103   104   167	5 ;      CG301      CG331       HGA3
  103   104   168	5 ;      CG301      CG331       HGA3
  166   104   167	5 ;       HGA3      CG331       HGA3
  166   104   168	5 ;       HGA3      CG331       HGA3
  167   104   168	5 ;       HGA3      CG331       HGA3
  103   105   106	5 ;      CG301      CG2O5      CG311
  103   105   144	5 ;      CG301      CG2O5      OG2D3
  106   105   144	5 ;      CG311      CG2O5      OG2D3
  105   106   109	5 ;      CG2O5      CG311      CG2D1
  105   106   145	5 ;      CG2O5      CG311      OG302
  105   106   169	5 ;      CG2O5      CG311       HGA1
  109   106   145	5 ;      CG2D1      CG311      OG302
  109   106   169	5 ;      CG2D1      CG311       HGA1
  145   106   169	5 ;      OG302      CG311       HGA1
  108   107   146	5 ;      CG331      CG2O2      OG2D1
  108   107   145	5 ;      CG331      CG2O2      OG302
  146   107   145	5 ;      OG2D1      CG2O2      OG302
  107   108   170	5 ;      CG2O2      CG331       HGA3
  107   108   171	5 ;      CG2O2      CG331       HGA3
  107   108   172	5 ;      CG2O2      CG331       HGA3
  170   108   171	5 ;       HGA3      CG331       HGA3
  170   108   172	5 ;       HGA3      CG331       HGA3
  171   108   172	5 ;       HGA3      CG331       HGA3
  106   109   110	5 ;      CG311      CG2D1      CG301
  106   109   113	5 ;      CG311      CG2D1      CG2D1
  110   109   113	5 ;      CG301      CG2D1      CG2D1
   95   110   109	5 ;      CG301      CG301      CG2D1
   95   110   111	5 ;      CG301      CG301      CG331
   95   110   112	5 ;      CG301      CG301      CG331
  109   110   111	5 ;      CG2D1      CG301      CG331
  109   110   112	5 ;      CG2D1      CG301      CG331
  111   110   112	5 ;      CG331      CG301      CG331
  110   111   173	5 ;      CG301      CG331       HGA3
  110   111   174	5 ;      CG301      CG331       HGA3
  110   111   175	5 ;      CG301      CG331       HGA3
  173   111   174	5 ;       HGA3      CG331       HGA3
  173   111   175	5 ;       HGA3      CG331       HGA3
  174   111   175	5 ;       HGA3      CG331       HGA3
  110   112   176	5 ;      CG301      CG331       HGA3
  110   112   177	5 ;      CG301      CG331       HGA3
  110   112   178	5 ;      CG301      CG331       HGA3
  176   112   177	5 ;       HGA3      CG331       HGA3
  176   112   178	5 ;       HGA3      CG331       HGA3
  177   112   178	5 ;       HGA3      CG331       HGA3
   93   113   109	5 ;      CG311      CG2D1      CG2D1
   93   113   114	5 ;      CG311      CG2D1      CG331
  109   113   114	5 ;      CG2D1      CG2D1      CG331
  113   114   179	5 ;      CG2D1      CG331       HGA3
  113   114   180	5 ;      CG2D1      CG331       HGA3
  113   114   181	5 ;      CG2D1      CG331       HGA3
  179   114   180	5 ;       HGA3      CG331       HGA3
  179   114   181	5 ;       HGA3      CG331       HGA3
  180   114   181	5 ;       HGA3      CG331       HGA3
  116   115   148	5 ;      CG331      CG2O2      OG2D1
  116   115   147	5 ;      CG331      CG2O2      OG302
  148   115   147	5 ;      OG2D1      CG2O2      OG302
  115   116   182	5 ;      CG2O2      CG331       HGA3
  115   116   183	5 ;      CG2O2      CG331       HGA3
  115   116   184	5 ;      CG2O2      CG331       HGA3
  182   116   183	5 ;       HGA3      CG331       HGA3
  182   116   184	5 ;       HGA3      CG331       HGA3
  183   116   184	5 ;       HGA3      CG331       HGA3
  118   117   150	5 ;     CG2R61      CG2O2      OG2D1
  118   117   149	5 ;     CG2R61      CG2O2      OG302
  150   117   149	5 ;      OG2D1      CG2O2      OG302
  117   118   119	5 ;      CG2O2     CG2R61     CG2R61
  117   118   123	5 ;      CG2O2     CG2R61     CG2R61
  119   118   123	5 ;     CG2R61     CG2R61     CG2R61
  118   119   120	5 ;     CG2R61     CG2R61     CG2R61
  118   119   185	5 ;     CG2R61     CG2R61      HGR61
  120   119   185	5 ;     CG2R61     CG2R61      HGR61
  119   120   121	5 ;     CG2R61     CG2R61     CG2R61
  119   120   186	5 ;     CG2R61     CG2R61      HGR61
  121   120   186	5 ;     CG2R61     CG2R61      HGR61
  120   121   122	5 ;     CG2R61     CG2R61     CG2R61
  120   121   187	5 ;     CG2R61     CG2R61      HGR61
  122   121   187	5 ;     CG2R61     CG2R61      HGR61
  121   122   123	5 ;     CG2R61     CG2R61     CG2R61
  121   122   188	5 ;     CG2R61     CG2R61      HGR61
  123   122   188	5 ;     CG2R61     CG2R61      HGR61
  118   123   122	5 ;     CG2R61     CG2R61     CG2R61
  118   123   189	5 ;     CG2R61     CG2R61      HGR61
  122   123   189	5 ;     CG2R61     CG2R61      HGR61
   91   124    90	5 ;      CG311      CG311      NG2S1
   91   124   132	5 ;      CG311      CG311     CG2R61
   91   124   190	5 ;      CG311      CG311       HGA1
   90   124   132	5 ;      NG2S1      CG311     CG2R61
   90   124   190	5 ;      NG2S1      CG311       HGA1
  132   124   190	5 ;     CG2R61      CG311       HGA1
   90   125   126	5 ;      NG2S1      CG2O1     CG2R61
   90   125   151	5 ;      NG2S1      CG2O1      OG2D1
  126   125   151	5 ;     CG2R61      CG2O1      OG2D1
  125   126   127	5 ;      CG2O1     CG2R61     CG2R61
  125   126   131	5 ;      CG2O1     CG2R61     CG2R61
  127   126   131	5 ;     CG2R61     CG2R61     CG2R61
  126   127   128	5 ;     CG2R61     CG2R61     CG2R61
  126   127   192	5 ;     CG2R61     CG2R61      HGR61
  128   127   192	5 ;     CG2R61     CG2R61      HGR61
  127   128   129	5 ;     CG2R61     CG2R61     CG2R61
  127   128   193	5 ;     CG2R61     CG2R61      HGR61
  129   128   193	5 ;     CG2R61     CG2R61      HGR61
  128   129   130	5 ;     CG2R61     CG2R61     CG2R61
  128   129   194	5 ;     CG2R61     CG2R61      HGR61
  130   129   194	5 ;     CG2R61     CG2R61      HGR61
  129   130   131	5 ;     CG2R61     CG2R61     CG2R61
  129   130   195	5 ;     CG2R61     CG2R61      HGR61
  131   130   195	5 ;     CG2R61     CG2R61      HGR61
  126   131   130	5 ;     CG2R61     CG2R61     CG2R61
  126   131   196	5 ;     CG2R61     CG2R61      HGR61
  130   131   196	5 ;     CG2R61     CG2R61      HGR61
  124   132   133	5 ;      CG311     CG2R61     CG2R61
  124   132   137	5 ;      CG311     CG2R61     CG2R61
  133   132   137	5 ;     CG2R61     CG2R61     CG2R61
  132   133   134	5 ;     CG2R61     CG2R61     CG2R61
  132   133   197	5 ;     CG2R61     CG2R61      HGR61
  134   133   197	5 ;     CG2R61     CG2R61      HGR61
  133   134   135	5 ;     CG2R61     CG2R61     CG2R61
  133   134   198	5 ;     CG2R61     CG2R61      HGR61
  135   134   198	5 ;     CG2R61     CG2R61      HGR61
  134   135   136	5 ;     CG2R61     CG2R61     CG2R61
  134   135   199	5 ;     CG2R61     CG2R61      HGR61
  136   135   199	5 ;     CG2R61     CG2R61      HGR61
  135   136   137	5 ;     CG2R61     CG2R61     CG2R61
  135   136   200	5 ;     CG2R61     CG2R61      HGR61
  137   136   200	5 ;     CG2R61     CG2R61      HGR61
  132   137   136	5 ;     CG2R61     CG2R61     CG2R61
  132   137   201	5 ;     CG2R61     CG2R61      HGR61
  136   137   201	5 ;     CG2R61     CG2R61      HGR61
    1   138    91	5 ;      CG2O6      OG302      CG311
   92   140    93	5 ;      CG2O2      OG302      CG311
   95   141   156	5 ;      CG301      OG311       HGP1
   99   142   100	5 ;     CG3C41     OG3C51     CG3RC1
  102   143   165	5 ;      CG311      OG311       HGP1
  106   145   107	5 ;      CG311      OG302      CG2O2
   98   147   115	5 ;     CG3RC1      OG302      CG2O2
   96   149   117	5 ;      CG311      OG302      CG2O2

[ dihedrals ]
;	ai	  aj	ak	  al funct			  c0			c1			  c2			c3			  c4			c5
  138     1    33     2	 9 ;      OG302      CG2O6      OG302      CG321
   32     1    33     2	 9 ;      OG2D1      CG2O6      OG302      CG321
   33     1   138    91	 9 ;      OG302      CG2O6      OG302      CG311
   32     1   138    91	 9 ;      OG2D1      CG2O6      OG302      CG311
   37     2     3     4	 9 ;       HGA2      CG321     CG2R61     CG2R61
   37     2     3    31	 9 ;       HGA2      CG321     CG2R61     CG2R61
   38     2     3     4	 9 ;       HGA2      CG321     CG2R61     CG2R61
   38     2     3    31	 9 ;       HGA2      CG321     CG2R61     CG2R61
   33     2     3     4	 9 ;      OG302      CG321     CG2R61     CG2R61
   33     2     3    31	 9 ;      OG302      CG321     CG2R61     CG2R61
    3     2    33     1	 9 ;     CG2R61      CG321      OG302      CG2O6
   37     2    33     1	 9 ;       HGA2      CG321      OG302      CG2O6
   38     2    33     1	 9 ;       HGA2      CG321      OG302      CG2O6
    2     3     4     5	 9 ;      CG321     CG2R61     CG2R61     CG2R61
    2     3     4    39	 9 ;      CG321     CG2R61     CG2R61      HGR61
   31     3     4     5	 9 ;     CG2R61     CG2R61     CG2R61     CG2R61
   31     3     4    39	 9 ;     CG2R61     CG2R61     CG2R61      HGR61
    2     3    31    30	 9 ;      CG321     CG2R61     CG2R61     CG2R61
    2     3    31    89	 9 ;      CG321     CG2R61     CG2R61      HGR61
    4     3    31    30	 9 ;     CG2R61     CG2R61     CG2R61     CG2R61
    4     3    31    89	 9 ;     CG2R61     CG2R61     CG2R61      HGR61
    3     4     5     6	 9 ;     CG2R61     CG2R61     CG2R61     CG2R61
    3     4     5    40	 9 ;     CG2R61     CG2R61     CG2R61      HGR61
   39     4     5     6	 9 ;      HGR61     CG2R61     CG2R61     CG2R61
   39     4     5    40	 9 ;      HGR61     CG2R61     CG2R61      HGR61
    4     5     6    30	 9 ;     CG2R61     CG2R61     CG2R61     CG2R61
    4     5     6    34	 9 ;     CG2R61     CG2R61     CG2R61      OG301
   40     5     6    30	 9 ;      HGR61     CG2R61     CG2R61     CG2R61
   40     5     6    34	 9 ;      HGR61     CG2R61     CG2R61      OG301
    5     6    30    31	 9 ;     CG2R61     CG2R61     CG2R61     CG2R61
    5     6    30    88	 9 ;     CG2R61     CG2R61     CG2R61      HGR61
   34     6    30    31	 9 ;      OG301     CG2R61     CG2R61     CG2R61
   34     6    30    88	 9 ;      OG301     CG2R61     CG2R61      HGR61
    5     6    34     7	 9 ;     CG2R61     CG2R61      OG301      CG301
   30     6    34     7	 9 ;     CG2R61     CG2R61      OG301      CG301
   29     7    28    82	 9 ;      CG331      CG301      CG331       HGA3
   29     7    28    83	 9 ;      CG331      CG301      CG331       HGA3
   29     7    28    84	 9 ;      CG331      CG301      CG331       HGA3
   35     7    28    82	 9 ;      OG301      CG301      CG331       HGA3
   35     7    28    83	 9 ;      OG301      CG301      CG331       HGA3
   35     7    28    84	 9 ;      OG301      CG301      CG331       HGA3
   34     7    28    82	 9 ;      OG301      CG301      CG331       HGA3
   34     7    28    83	 9 ;      OG301      CG301      CG331       HGA3
   34     7    28    84	 9 ;      OG301      CG301      CG331       HGA3
   28     7    29    85	 9 ;      CG331      CG301      CG331       HGA3
   28     7    29    86	 9 ;      CG331      CG301      CG331       HGA3
   28     7    29    87	 9 ;      CG331      CG301      CG331       HGA3
   35     7    29    85	 9 ;      OG301      CG301      CG331       HGA3
   35     7    29    86	 9 ;      OG301      CG301      CG331       HGA3
   35     7    29    87	 9 ;      OG301      CG301      CG331       HGA3
   34     7    29    85	 9 ;      OG301      CG301      CG331       HGA3
   34     7    29    86	 9 ;      OG301      CG301      CG331       HGA3
   34     7    29    87	 9 ;      OG301      CG301      CG331       HGA3
   28     7    35     8	 9 ;      CG331      CG301      OG301      CG321
   29     7    35     8	 9 ;      CG331      CG301      OG301      CG321
   34     7    35     8	 9 ;      OG301      CG301      OG301      CG321
   28     7    34     6	 9 ;      CG331      CG301      OG301     CG2R61
   29     7    34     6	 9 ;      CG331      CG301      OG301     CG2R61
   35     7    34     6	 9 ;      OG301      CG301      OG301     CG2R61
   41     8     9    36	 9 ;       HGA2      CG321      CG321      OG301
   41     8     9    43	 9 ;       HGA2      CG321      CG321       HGA2
   41     8     9    44	 9 ;       HGA2      CG321      CG321       HGA2
   42     8     9    36	 9 ;       HGA2      CG321      CG321      OG301
   42     8     9    43	 9 ;       HGA2      CG321      CG321       HGA2
   42     8     9    44	 9 ;       HGA2      CG321      CG321       HGA2
   35     8     9    36	 9 ;      OG301      CG321      CG321      OG301
   35     8     9    43	 9 ;      OG301      CG321      CG321       HGA2
   35     8     9    44	 9 ;      OG301      CG321      CG321       HGA2
    9     8    35     7	 9 ;      CG321      CG321      OG301      CG301
   41     8    35     7	 9 ;       HGA2      CG321      OG301      CG301
   42     8    35     7	 9 ;       HGA2      CG321      OG301      CG301
    8     9    36    10	 9 ;      CG321      CG321      OG301      CG321
   43     9    36    10	 9 ;       HGA2      CG321      OG301      CG321
   44     9    36    10	 9 ;       HGA2      CG321      OG301      CG321
   45    10    11    12	 9 ;       HGA2      CG321      CG321      CG321
   45    10    11    47	 9 ;       HGA2      CG321      CG321       HGA2
   45    10    11    48	 9 ;       HGA2      CG321      CG321       HGA2
   46    10    11    12	 9 ;       HGA2      CG321      CG321      CG321
   46    10    11    47	 9 ;       HGA2      CG321      CG321       HGA2
   46    10    11    48	 9 ;       HGA2      CG321      CG321       HGA2
   36    10    11    12	 9 ;      OG301      CG321      CG321      CG321
   36    10    11    47	 9 ;      OG301      CG321      CG321       HGA2
   36    10    11    48	 9 ;      OG301      CG321      CG321       HGA2
   11    10    36     9	 9 ;      CG321      CG321      OG301      CG321
   45    10    36     9	 9 ;       HGA2      CG321      OG301      CG321
   46    10    36     9	 9 ;       HGA2      CG321      OG301      CG321
   10    11    12    13	 9 ;      CG321      CG321      CG321      CG321
   10    11    12    49	 9 ;      CG321      CG321      CG321       HGA2
   10    11    12    50	 9 ;      CG321      CG321      CG321       HGA2
   47    11    12    13	 9 ;       HGA2      CG321      CG321      CG321
   47    11    12    49	 9 ;       HGA2      CG321      CG321       HGA2
   47    11    12    50	 9 ;       HGA2      CG321      CG321       HGA2
   48    11    12    13	 9 ;       HGA2      CG321      CG321      CG321
   48    11    12    49	 9 ;       HGA2      CG321      CG321       HGA2
   48    11    12    50	 9 ;       HGA2      CG321      CG321       HGA2
   11    12    13    14	 9 ;      CG321      CG321      CG321      CG321
   11    12    13    51	 9 ;      CG321      CG321      CG321       HGA2
   11    12    13    52	 9 ;      CG321      CG321      CG321       HGA2
   49    12    13    14	 9 ;       HGA2      CG321      CG321      CG321
   49    12    13    51	 9 ;       HGA2      CG321      CG321       HGA2
   49    12    13    52	 9 ;       HGA2      CG321      CG321       HGA2
   50    12    13    14	 9 ;       HGA2      CG321      CG321      CG321
   50    12    13    51	 9 ;       HGA2      CG321      CG321       HGA2
   50    12    13    52	 9 ;       HGA2      CG321      CG321       HGA2
   12    13    14    15	 9 ;      CG321      CG321      CG321      CG321
   12    13    14    53	 9 ;      CG321      CG321      CG321       HGA2
   12    13    14    54	 9 ;      CG321      CG321      CG321       HGA2
   51    13    14    15	 9 ;       HGA2      CG321      CG321      CG321
   51    13    14    53	 9 ;       HGA2      CG321      CG321       HGA2
   51    13    14    54	 9 ;       HGA2      CG321      CG321       HGA2
   52    13    14    15	 9 ;       HGA2      CG321      CG321      CG321
   52    13    14    53	 9 ;       HGA2      CG321      CG321       HGA2
   52    13    14    54	 9 ;       HGA2      CG321      CG321       HGA2
   13    14    15    16	 9 ;      CG321      CG321      CG321      CG321
   13    14    15    55	 9 ;      CG321      CG321      CG321       HGA2
   13    14    15    56	 9 ;      CG321      CG321      CG321       HGA2
   53    14    15    16	 9 ;       HGA2      CG321      CG321      CG321
   53    14    15    55	 9 ;       HGA2      CG321      CG321       HGA2
   53    14    15    56	 9 ;       HGA2      CG321      CG321       HGA2
   54    14    15    16	 9 ;       HGA2      CG321      CG321      CG321
   54    14    15    55	 9 ;       HGA2      CG321      CG321       HGA2
   54    14    15    56	 9 ;       HGA2      CG321      CG321       HGA2
   14    15    16    17	 9 ;      CG321      CG321      CG321      CG321
   14    15    16    57	 9 ;      CG321      CG321      CG321       HGA2
   14    15    16    58	 9 ;      CG321      CG321      CG321       HGA2
   55    15    16    17	 9 ;       HGA2      CG321      CG321      CG321
   55    15    16    57	 9 ;       HGA2      CG321      CG321       HGA2
   55    15    16    58	 9 ;       HGA2      CG321      CG321       HGA2
   56    15    16    17	 9 ;       HGA2      CG321      CG321      CG321
   56    15    16    57	 9 ;       HGA2      CG321      CG321       HGA2
   56    15    16    58	 9 ;       HGA2      CG321      CG321       HGA2
   15    16    17    18	 9 ;      CG321      CG321      CG321      CG321
   15    16    17    59	 9 ;      CG321      CG321      CG321       HGA2
   15    16    17    60	 9 ;      CG321      CG321      CG321       HGA2
   57    16    17    18	 9 ;       HGA2      CG321      CG321      CG321
   57    16    17    59	 9 ;       HGA2      CG321      CG321       HGA2
   57    16    17    60	 9 ;       HGA2      CG321      CG321       HGA2
   58    16    17    18	 9 ;       HGA2      CG321      CG321      CG321
   58    16    17    59	 9 ;       HGA2      CG321      CG321       HGA2
   58    16    17    60	 9 ;       HGA2      CG321      CG321       HGA2
   16    17    18    19	 9 ;      CG321      CG321      CG321      CG321
   16    17    18    61	 9 ;      CG321      CG321      CG321       HGA2
   16    17    18    62	 9 ;      CG321      CG321      CG321       HGA2
   59    17    18    19	 9 ;       HGA2      CG321      CG321      CG321
   59    17    18    61	 9 ;       HGA2      CG321      CG321       HGA2
   59    17    18    62	 9 ;       HGA2      CG321      CG321       HGA2
   60    17    18    19	 9 ;       HGA2      CG321      CG321      CG321
   60    17    18    61	 9 ;       HGA2      CG321      CG321       HGA2
   60    17    18    62	 9 ;       HGA2      CG321      CG321       HGA2
   17    18    19    20	 9 ;      CG321      CG321      CG321      CG321
   17    18    19    63	 9 ;      CG321      CG321      CG321       HGA2
   17    18    19    64	 9 ;      CG321      CG321      CG321       HGA2
   61    18    19    20	 9 ;       HGA2      CG321      CG321      CG321
   61    18    19    63	 9 ;       HGA2      CG321      CG321       HGA2
   61    18    19    64	 9 ;       HGA2      CG321      CG321       HGA2
   62    18    19    20	 9 ;       HGA2      CG321      CG321      CG321
   62    18    19    63	 9 ;       HGA2      CG321      CG321       HGA2
   62    18    19    64	 9 ;       HGA2      CG321      CG321       HGA2
   18    19    20    21	 9 ;      CG321      CG321      CG321      CG321
   18    19    20    65	 9 ;      CG321      CG321      CG321       HGA2
   18    19    20    66	 9 ;      CG321      CG321      CG321       HGA2
   63    19    20    21	 9 ;       HGA2      CG321      CG321      CG321
   63    19    20    65	 9 ;       HGA2      CG321      CG321       HGA2
   63    19    20    66	 9 ;       HGA2      CG321      CG321       HGA2
   64    19    20    21	 9 ;       HGA2      CG321      CG321      CG321
   64    19    20    65	 9 ;       HGA2      CG321      CG321       HGA2
   64    19    20    66	 9 ;       HGA2      CG321      CG321       HGA2
   19    20    21    22	 9 ;      CG321      CG321      CG321      CG321
   19    20    21    67	 9 ;      CG321      CG321      CG321       HGA2
   19    20    21    68	 9 ;      CG321      CG321      CG321       HGA2
   65    20    21    22	 9 ;       HGA2      CG321      CG321      CG321
   65    20    21    67	 9 ;       HGA2      CG321      CG321       HGA2
   65    20    21    68	 9 ;       HGA2      CG321      CG321       HGA2
   66    20    21    22	 9 ;       HGA2      CG321      CG321      CG321
   66    20    21    67	 9 ;       HGA2      CG321      CG321       HGA2
   66    20    21    68	 9 ;       HGA2      CG321      CG321       HGA2
   20    21    22    23	 9 ;      CG321      CG321      CG321      CG321
   20    21    22    69	 9 ;      CG321      CG321      CG321       HGA2
   20    21    22    70	 9 ;      CG321      CG321      CG321       HGA2
   67    21    22    23	 9 ;       HGA2      CG321      CG321      CG321
   67    21    22    69	 9 ;       HGA2      CG321      CG321       HGA2
   67    21    22    70	 9 ;       HGA2      CG321      CG321       HGA2
   68    21    22    23	 9 ;       HGA2      CG321      CG321      CG321
   68    21    22    69	 9 ;       HGA2      CG321      CG321       HGA2
   68    21    22    70	 9 ;       HGA2      CG321      CG321       HGA2
   21    22    23    24	 9 ;      CG321      CG321      CG321      CG321
   21    22    23    71	 9 ;      CG321      CG321      CG321       HGA2
   21    22    23    72	 9 ;      CG321      CG321      CG321       HGA2
   69    22    23    24	 9 ;       HGA2      CG321      CG321      CG321
   69    22    23    71	 9 ;       HGA2      CG321      CG321       HGA2
   69    22    23    72	 9 ;       HGA2      CG321      CG321       HGA2
   70    22    23    24	 9 ;       HGA2      CG321      CG321      CG321
   70    22    23    71	 9 ;       HGA2      CG321      CG321       HGA2
   70    22    23    72	 9 ;       HGA2      CG321      CG321       HGA2
   22    23    24    25	 9 ;      CG321      CG321      CG321      CG321
   22    23    24    73	 9 ;      CG321      CG321      CG321       HGA2
   22    23    24    74	 9 ;      CG321      CG321      CG321       HGA2
   71    23    24    25	 9 ;       HGA2      CG321      CG321      CG321
   71    23    24    73	 9 ;       HGA2      CG321      CG321       HGA2
   71    23    24    74	 9 ;       HGA2      CG321      CG321       HGA2
   72    23    24    25	 9 ;       HGA2      CG321      CG321      CG321
   72    23    24    73	 9 ;       HGA2      CG321      CG321       HGA2
   72    23    24    74	 9 ;       HGA2      CG321      CG321       HGA2
   23    24    25    26	 9 ;      CG321      CG321      CG321      CG321
   23    24    25    75	 9 ;      CG321      CG321      CG321       HGA2
   23    24    25    76	 9 ;      CG321      CG321      CG321       HGA2
   73    24    25    26	 9 ;       HGA2      CG321      CG321      CG321
   73    24    25    75	 9 ;       HGA2      CG321      CG321       HGA2
   73    24    25    76	 9 ;       HGA2      CG321      CG321       HGA2
   74    24    25    26	 9 ;       HGA2      CG321      CG321      CG321
   74    24    25    75	 9 ;       HGA2      CG321      CG321       HGA2
   74    24    25    76	 9 ;       HGA2      CG321      CG321       HGA2
   24    25    26    27	 9 ;      CG321      CG321      CG321      CG331
   24    25    26    77	 9 ;      CG321      CG321      CG321       HGA2
   24    25    26    78	 9 ;      CG321      CG321      CG321       HGA2
   75    25    26    27	 9 ;       HGA2      CG321      CG321      CG331
   75    25    26    77	 9 ;       HGA2      CG321      CG321       HGA2
   75    25    26    78	 9 ;       HGA2      CG321      CG321       HGA2
   76    25    26    27	 9 ;       HGA2      CG321      CG321      CG331
   76    25    26    77	 9 ;       HGA2      CG321      CG321       HGA2
   76    25    26    78	 9 ;       HGA2      CG321      CG321       HGA2
   25    26    27    79	 9 ;      CG321      CG321      CG331       HGA3
   25    26    27    80	 9 ;      CG321      CG321      CG331       HGA3
   25    26    27    81	 9 ;      CG321      CG321      CG331       HGA3
   77    26    27    79	 9 ;       HGA2      CG321      CG331       HGA3
   77    26    27    80	 9 ;       HGA2      CG321      CG331       HGA3
   77    26    27    81	 9 ;       HGA2      CG321      CG331       HGA3
   78    26    27    79	 9 ;       HGA2      CG321      CG331       HGA3
   78    26    27    80	 9 ;       HGA2      CG321      CG331       HGA3
   78    26    27    81	 9 ;       HGA2      CG321      CG331       HGA3
    6    30    31     3	 9 ;     CG2R61     CG2R61     CG2R61     CG2R61
    6    30    31    89	 9 ;     CG2R61     CG2R61     CG2R61      HGR61
   88    30    31     3	 9 ;      HGR61     CG2R61     CG2R61     CG2R61
   88    30    31    89	 9 ;      HGR61     CG2R61     CG2R61      HGR61
  191    90   125   126	 9 ;       HGP1      NG2S1      CG2O1     CG2R61
  191    90   125   151	 9 ;       HGP1      NG2S1      CG2O1      OG2D1
  124    90   125   126	 9 ;      CG311      NG2S1      CG2O1     CG2R61
  124    90   125   151	 9 ;      CG311      NG2S1      CG2O1      OG2D1
  125    90   124    91	 9 ;      CG2O1      NG2S1      CG311      CG311
  125    90   124   132	 9 ;      CG2O1      NG2S1      CG311     CG2R61
  125    90   124   190	 9 ;      CG2O1      NG2S1      CG311       HGA1
  191    90   124    91	 9 ;       HGP1      NG2S1      CG311      CG311
  191    90   124   132	 9 ;       HGP1      NG2S1      CG311     CG2R61
  191    90   124   190	 9 ;       HGP1      NG2S1      CG311       HGA1
  124    91    92   139	 9 ;      CG311      CG311      CG2O2      OG2D1
  124    91    92   140	 9 ;      CG311      CG311      CG2O2      OG302
  152    91    92   139	 9 ;       HGA1      CG311      CG2O2      OG2D1
  152    91    92   140	 9 ;       HGA1      CG311      CG2O2      OG302
  138    91    92   139	 9 ;      OG302      CG311      CG2O2      OG2D1
  138    91    92   140	 9 ;      OG302      CG311      CG2O2      OG302
   92    91   124    90	 9 ;      CG2O2      CG311      CG311      NG2S1
   92    91   124   132	 9 ;      CG2O2      CG311      CG311     CG2R61
   92    91   124   190	 9 ;      CG2O2      CG311      CG311       HGA1
  152    91   124    90	 9 ;       HGA1      CG311      CG311      NG2S1
  152    91   124   132	 9 ;       HGA1      CG311      CG311     CG2R61
  152    91   124   190	 9 ;       HGA1      CG311      CG311       HGA1
  138    91   124    90	 9 ;      OG302      CG311      CG311      NG2S1
  138    91   124   132	 9 ;      OG302      CG311      CG311     CG2R61
  138    91   124   190	 9 ;      OG302      CG311      CG311       HGA1
   92    91   138     1	 9 ;      CG2O2      CG311      OG302      CG2O6
  124    91   138     1	 9 ;      CG311      CG311      OG302      CG2O6
  152    91   138     1	 9 ;       HGA1      CG311      OG302      CG2O6
   91    92   140    93	 9 ;      CG311      CG2O2      OG302      CG311
  139    92   140    93	 9 ;      OG2D1      CG2O2      OG302      CG311
  113    93    94    95	 9 ;      CG2D1      CG311      CG321      CG301
  113    93    94   154	 9 ;      CG2D1      CG311      CG321       HGA2
  113    93    94   155	 9 ;      CG2D1      CG311      CG321       HGA2
  153    93    94    95	 9 ;       HGA1      CG311      CG321      CG301
  153    93    94   154	 9 ;       HGA1      CG311      CG321       HGA2
  153    93    94   155	 9 ;       HGA1      CG311      CG321       HGA2
  140    93    94    95	 9 ;      OG302      CG311      CG321      CG301
  140    93    94   154	 9 ;      OG302      CG311      CG321       HGA2
  140    93    94   155	 9 ;      OG302      CG311      CG321       HGA2
   94    93   113   109	 9 ;      CG321      CG311      CG2D1      CG2D1
   94    93   113   114	 9 ;      CG321      CG311      CG2D1      CG331
  153    93   113   109	 9 ;       HGA1      CG311      CG2D1      CG2D1
  153    93   113   114	 9 ;       HGA1      CG311      CG2D1      CG331
  140    93   113   109	 9 ;      OG302      CG311      CG2D1      CG2D1
  140    93   113   114	 9 ;      OG302      CG311      CG2D1      CG331
   94    93   140    92	 9 ;      CG321      CG311      OG302      CG2O2
  113    93   140    92	 9 ;      CG2D1      CG311      OG302      CG2O2
  153    93   140    92	 9 ;       HGA1      CG311      OG302      CG2O2
   93    94    95    96	 9 ;      CG311      CG321      CG301      CG311
   93    94    95   110	 9 ;      CG311      CG321      CG301      CG301
   93    94    95   141	 9 ;      CG311      CG321      CG301      OG311
  154    94    95    96	 9 ;       HGA2      CG321      CG301      CG311
  154    94    95   110	 9 ;       HGA2      CG321      CG301      CG301
  154    94    95   141	 9 ;       HGA2      CG321      CG301      OG311
  155    94    95    96	 9 ;       HGA2      CG321      CG301      CG311
  155    94    95   110	 9 ;       HGA2      CG321      CG301      CG301
  155    94    95   141	 9 ;       HGA2      CG321      CG301      OG311
   94    95    96    97	 9 ;      CG321      CG301      CG311      CG311
   94    95    96   149	 9 ;      CG321      CG301      CG311      OG302
   94    95    96   157	 9 ;      CG321      CG301      CG311       HGA1
  110    95    96    97	 9 ;      CG301      CG301      CG311      CG311
  110    95    96   149	 9 ;      CG301      CG301      CG311      OG302
  110    95    96   157	 9 ;      CG301      CG301      CG311       HGA1
  141    95    96    97	 9 ;      OG311      CG301      CG311      CG311
  141    95    96   149	 9 ;      OG311      CG301      CG311      OG302
  141    95    96   157	 9 ;      OG311      CG301      CG311       HGA1
   94    95   110   109	 9 ;      CG321      CG301      CG301      CG2D1
   94    95   110   111	 9 ;      CG321      CG301      CG301      CG331
   94    95   110   112	 9 ;      CG321      CG301      CG301      CG331
   96    95   110   109	 9 ;      CG311      CG301      CG301      CG2D1
   96    95   110   111	 9 ;      CG311      CG301      CG301      CG331
   96    95   110   112	 9 ;      CG311      CG301      CG301      CG331
  141    95   110   109	 9 ;      OG311      CG301      CG301      CG2D1
  141    95   110   111	 9 ;      OG311      CG301      CG301      CG331
  141    95   110   112	 9 ;      OG311      CG301      CG301      CG331
   94    95   141   156	 9 ;      CG321      CG301      OG311       HGP1
   96    95   141   156	 9 ;      CG311      CG301      OG311       HGP1
  110    95   141   156	 9 ;      CG301      CG301      OG311       HGP1
   95    96    97    98	 9 ;      CG301      CG311      CG311     CG3RC1
   95    96    97   103	 9 ;      CG301      CG311      CG311      CG301
   95    96    97   158	 9 ;      CG301      CG311      CG311       HGA1
  149    96    97    98	 9 ;      OG302      CG311      CG311     CG3RC1
  149    96    97   103	 9 ;      OG302      CG311      CG311      CG301
  149    96    97   158	 9 ;      OG302      CG311      CG311       HGA1
  157    96    97    98	 9 ;       HGA1      CG311      CG311     CG3RC1
  157    96    97   103	 9 ;       HGA1      CG311      CG311      CG301
  157    96    97   158	 9 ;       HGA1      CG311      CG311       HGA1
   95    96   149   117	 9 ;      CG301      CG311      OG302      CG2O2
   97    96   149   117	 9 ;      CG311      CG311      OG302      CG2O2
  157    96   149   117	 9 ;       HGA1      CG311      OG302      CG2O2
   96    97    98    99	 9 ;      CG311      CG311     CG3RC1     CG3C41
   96    97    98   100	 9 ;      CG311      CG311     CG3RC1     CG3RC1
   96    97    98   147	 9 ;      CG311      CG311     CG3RC1      OG302
  103    97    98    99	 9 ;      CG301      CG311     CG3RC1     CG3C41
  103    97    98   100	 9 ;      CG301      CG311     CG3RC1     CG3RC1
  103    97    98   147	 9 ;      CG301      CG311     CG3RC1      OG302
  158    97    98    99	 9 ;       HGA1      CG311     CG3RC1     CG3C41
  158    97    98   100	 9 ;       HGA1      CG311     CG3RC1     CG3RC1
  158    97    98   147	 9 ;       HGA1      CG311     CG3RC1      OG302
   96    97   103   102	 9 ;      CG311      CG311      CG301      CG311
   96    97   103   104	 9 ;      CG311      CG311      CG301      CG331
   96    97   103   105	 9 ;      CG311      CG311      CG301      CG2O5
   98    97   103   102	 9 ;     CG3RC1      CG311      CG301      CG311
   98    97   103   104	 9 ;     CG3RC1      CG311      CG301      CG331
   98    97   103   105	 9 ;     CG3RC1      CG311      CG301      CG2O5
  158    97   103   102	 9 ;       HGA1      CG311      CG301      CG311
  158    97   103   104	 9 ;       HGA1      CG311      CG301      CG331
  158    97   103   105	 9 ;       HGA1      CG311      CG301      CG2O5
   97    98    99   142	 9 ;      CG311     CG3RC1     CG3C41     OG3C51
   97    98    99   159	 9 ;      CG311     CG3RC1     CG3C41       HGA2
   97    98    99   160	 9 ;      CG311     CG3RC1     CG3C41       HGA2
  100    98    99   142	 9 ;     CG3RC1     CG3RC1     CG3C41     OG3C51
  100    98    99   159	 9 ;     CG3RC1     CG3RC1     CG3C41       HGA2
  100    98    99   160	 9 ;     CG3RC1     CG3RC1     CG3C41       HGA2
  147    98    99   142	 9 ;      OG302     CG3RC1     CG3C41     OG3C51
  147    98    99   159	 9 ;      OG302     CG3RC1     CG3C41       HGA2
  147    98    99   160	 9 ;      OG302     CG3RC1     CG3C41       HGA2
   97    98   100   101	 9 ;      CG311     CG3RC1     CG3RC1      CG321
   97    98   100   161	 9 ;      CG311     CG3RC1     CG3RC1       HGA1
   97    98   100   142	 9 ;      CG311     CG3RC1     CG3RC1     OG3C51
   99    98   100   101	 9 ;     CG3C41     CG3RC1     CG3RC1      CG321
   99    98   100   161	 9 ;     CG3C41     CG3RC1     CG3RC1       HGA1
   99    98   100   142	 9 ;     CG3C41     CG3RC1     CG3RC1     OG3C51
  147    98   100   101	 9 ;      OG302     CG3RC1     CG3RC1      CG321
  147    98   100   161	 9 ;      OG302     CG3RC1     CG3RC1       HGA1
  147    98   100   142	 9 ;      OG302     CG3RC1     CG3RC1     OG3C51
   97    98   147   115	 9 ;      CG311     CG3RC1      OG302      CG2O2
   99    98   147   115	 9 ;     CG3C41     CG3RC1      OG302      CG2O2
  100    98   147   115	 9 ;     CG3RC1     CG3RC1      OG302      CG2O2
   98    99   142   100	 9 ;     CG3RC1     CG3C41     OG3C51     CG3RC1
  159    99   142   100	 9 ;       HGA2     CG3C41     OG3C51     CG3RC1
  160    99   142   100	 9 ;       HGA2     CG3C41     OG3C51     CG3RC1
   98   100   101   102	 9 ;     CG3RC1     CG3RC1      CG321      CG311
   98   100   101   162	 9 ;     CG3RC1     CG3RC1      CG321       HGA2
   98   100   101   163	 9 ;     CG3RC1     CG3RC1      CG321       HGA2
  161   100   101   102	 9 ;       HGA1     CG3RC1      CG321      CG311
  161   100   101   162	 9 ;       HGA1     CG3RC1      CG321       HGA2
  161   100   101   163	 9 ;       HGA1     CG3RC1      CG321       HGA2
  142   100   101   102	 9 ;     OG3C51     CG3RC1      CG321      CG311
  142   100   101   162	 9 ;     OG3C51     CG3RC1      CG321       HGA2
  142   100   101   163	 9 ;     OG3C51     CG3RC1      CG321       HGA2
   98   100   142    99	 9 ;     CG3RC1     CG3RC1     OG3C51     CG3C41
  101   100   142    99	 9 ;      CG321     CG3RC1     OG3C51     CG3C41
  161   100   142    99	 9 ;       HGA1     CG3RC1     OG3C51     CG3C41
  100   101   102   103	 9 ;     CG3RC1      CG321      CG311      CG301
  100   101   102   143	 9 ;     CG3RC1      CG321      CG311      OG311
  100   101   102   164	 9 ;     CG3RC1      CG321      CG311       HGA1
  162   101   102   103	 9 ;       HGA2      CG321      CG311      CG301
  162   101   102   143	 9 ;       HGA2      CG321      CG311      OG311
  162   101   102   164	 9 ;       HGA2      CG321      CG311       HGA1
  163   101   102   103	 9 ;       HGA2      CG321      CG311      CG301
  163   101   102   143	 9 ;       HGA2      CG321      CG311      OG311
  163   101   102   164	 9 ;       HGA2      CG321      CG311       HGA1
  101   102   103    97	 9 ;      CG321      CG311      CG301      CG311
  101   102   103   104	 9 ;      CG321      CG311      CG301      CG331
  101   102   103   105	 9 ;      CG321      CG311      CG301      CG2O5
  143   102   103    97	 9 ;      OG311      CG311      CG301      CG311
  143   102   103   104	 9 ;      OG311      CG311      CG301      CG331
  143   102   103   105	 9 ;      OG311      CG311      CG301      CG2O5
  164   102   103    97	 9 ;       HGA1      CG311      CG301      CG311
  164   102   103   104	 9 ;       HGA1      CG311      CG301      CG331
  164   102   103   105	 9 ;       HGA1      CG311      CG301      CG2O5
  101   102   143   165	 9 ;      CG321      CG311      OG311       HGP1
  103   102   143   165	 9 ;      CG301      CG311      OG311       HGP1
  164   102   143   165	 9 ;       HGA1      CG311      OG311       HGP1
   97   103   104   166	 9 ;      CG311      CG301      CG331       HGA3
   97   103   104   167	 9 ;      CG311      CG301      CG331       HGA3
   97   103   104   168	 9 ;      CG311      CG301      CG331       HGA3
  102   103   104   166	 9 ;      CG311      CG301      CG331       HGA3
  102   103   104   167	 9 ;      CG311      CG301      CG331       HGA3
  102   103   104   168	 9 ;      CG311      CG301      CG331       HGA3
  105   103   104   166	 9 ;      CG2O5      CG301      CG331       HGA3
  105   103   104   167	 9 ;      CG2O5      CG301      CG331       HGA3
  105   103   104   168	 9 ;      CG2O5      CG301      CG331       HGA3
   97   103   105   106	 9 ;      CG311      CG301      CG2O5      CG311
   97   103   105   144	 9 ;      CG311      CG301      CG2O5      OG2D3
  102   103   105   106	 9 ;      CG311      CG301      CG2O5      CG311
  102   103   105   144	 9 ;      CG311      CG301      CG2O5      OG2D3
  104   103   105   106	 9 ;      CG331      CG301      CG2O5      CG311
  104   103   105   144	 9 ;      CG331      CG301      CG2O5      OG2D3
  103   105   106   109	 9 ;      CG301      CG2O5      CG311      CG2D1
  103   105   106   145	 9 ;      CG301      CG2O5      CG311      OG302
  103   105   106   169	 9 ;      CG301      CG2O5      CG311       HGA1
  144   105   106   109	 9 ;      OG2D3      CG2O5      CG311      CG2D1
  144   105   106   145	 9 ;      OG2D3      CG2O5      CG311      OG302
  144   105   106   169	 9 ;      OG2D3      CG2O5      CG311       HGA1
  105   106   109   110	 9 ;      CG2O5      CG311      CG2D1      CG301
  105   106   109   113	 9 ;      CG2O5      CG311      CG2D1      CG2D1
  145   106   109   110	 9 ;      OG302      CG311      CG2D1      CG301
  145   106   109   113	 9 ;      OG302      CG311      CG2D1      CG2D1
  169   106   109   110	 9 ;       HGA1      CG311      CG2D1      CG301
  169   106   109   113	 9 ;       HGA1      CG311      CG2D1      CG2D1
  105   106   145   107	 9 ;      CG2O5      CG311      OG302      CG2O2
  109   106   145   107	 9 ;      CG2D1      CG311      OG302      CG2O2
  169   106   145   107	 9 ;       HGA1      CG311      OG302      CG2O2
  146   107   108   170	 9 ;      OG2D1      CG2O2      CG331       HGA3
  146   107   108   171	 9 ;      OG2D1      CG2O2      CG331       HGA3
  146   107   108   172	 9 ;      OG2D1      CG2O2      CG331       HGA3
  145   107   108   170	 9 ;      OG302      CG2O2      CG331       HGA3
  145   107   108   171	 9 ;      OG302      CG2O2      CG331       HGA3
  145   107   108   172	 9 ;      OG302      CG2O2      CG331       HGA3
  108   107   145   106	 9 ;      CG331      CG2O2      OG302      CG311
  146   107   145   106	 9 ;      OG2D1      CG2O2      OG302      CG311
  106   109   110    95	 9 ;      CG311      CG2D1      CG301      CG301
  106   109   110   111	 9 ;      CG311      CG2D1      CG301      CG331
  106   109   110   112	 9 ;      CG311      CG2D1      CG301      CG331
  113   109   110    95	 9 ;      CG2D1      CG2D1      CG301      CG301
  113   109   110   111	 9 ;      CG2D1      CG2D1      CG301      CG331
  113   109   110   112	 9 ;      CG2D1      CG2D1      CG301      CG331
  106   109   113    93	 9 ;      CG311      CG2D1      CG2D1      CG311
  106   109   113   114	 9 ;      CG311      CG2D1      CG2D1      CG331
  110   109   113    93	 9 ;      CG301      CG2D1      CG2D1      CG311
  110   109   113   114	 9 ;      CG301      CG2D1      CG2D1      CG331
   95   110   111   173	 9 ;      CG301      CG301      CG331       HGA3
   95   110   111   174	 9 ;      CG301      CG301      CG331       HGA3
   95   110   111   175	 9 ;      CG301      CG301      CG331       HGA3
  109   110   111   173	 9 ;      CG2D1      CG301      CG331       HGA3
  109   110   111   174	 9 ;      CG2D1      CG301      CG331       HGA3
  109   110   111   175	 9 ;      CG2D1      CG301      CG331       HGA3
  112   110   111   173	 9 ;      CG331      CG301      CG331       HGA3
  112   110   111   174	 9 ;      CG331      CG301      CG331       HGA3
  112   110   111   175	 9 ;      CG331      CG301      CG331       HGA3
   95   110   112   176	 9 ;      CG301      CG301      CG331       HGA3
   95   110   112   177	 9 ;      CG301      CG301      CG331       HGA3
   95   110   112   178	 9 ;      CG301      CG301      CG331       HGA3
  109   110   112   176	 9 ;      CG2D1      CG301      CG331       HGA3
  109   110   112   177	 9 ;      CG2D1      CG301      CG331       HGA3
  109   110   112   178	 9 ;      CG2D1      CG301      CG331       HGA3
  111   110   112   176	 9 ;      CG331      CG301      CG331       HGA3
  111   110   112   177	 9 ;      CG331      CG301      CG331       HGA3
  111   110   112   178	 9 ;      CG331      CG301      CG331       HGA3
   93   113   114   179	 9 ;      CG311      CG2D1      CG331       HGA3
   93   113   114   180	 9 ;      CG311      CG2D1      CG331       HGA3
   93   113   114   181	 9 ;      CG311      CG2D1      CG331       HGA3
  109   113   114   179	 9 ;      CG2D1      CG2D1      CG331       HGA3
  109   113   114   180	 9 ;      CG2D1      CG2D1      CG331       HGA3
  109   113   114   181	 9 ;      CG2D1      CG2D1      CG331       HGA3
  148   115   116   182	 9 ;      OG2D1      CG2O2      CG331       HGA3
  148   115   116   183	 9 ;      OG2D1      CG2O2      CG331       HGA3
  148   115   116   184	 9 ;      OG2D1      CG2O2      CG331       HGA3
  147   115   116   182	 9 ;      OG302      CG2O2      CG331       HGA3
  147   115   116   183	 9 ;      OG302      CG2O2      CG331       HGA3
  147   115   116   184	 9 ;      OG302      CG2O2      CG331       HGA3
  116   115   147    98	 9 ;      CG331      CG2O2      OG302     CG3RC1
  148   115   147    98	 9 ;      OG2D1      CG2O2      OG302     CG3RC1
  150   117   118   119	 9 ;      OG2D1      CG2O2     CG2R61     CG2R61
  150   117   118   123	 9 ;      OG2D1      CG2O2     CG2R61     CG2R61
  149   117   118   119	 9 ;      OG302      CG2O2     CG2R61     CG2R61
  149   117   118   123	 9 ;      OG302      CG2O2     CG2R61     CG2R61
  118   117   149    96	 9 ;     CG2R61      CG2O2      OG302      CG311
  150   117   149    96	 9 ;      OG2D1      CG2O2      OG302      CG311
  117   118   119   120	 9 ;      CG2O2     CG2R61     CG2R61     CG2R61
  117   118   119   185	 9 ;      CG2O2     CG2R61     CG2R61      HGR61
  123   118   119   120	 9 ;     CG2R61     CG2R61     CG2R61     CG2R61
  123   118   119   185	 9 ;     CG2R61     CG2R61     CG2R61      HGR61
  117   118   123   122	 9 ;      CG2O2     CG2R61     CG2R61     CG2R61
  117   118   123   189	 9 ;      CG2O2     CG2R61     CG2R61      HGR61
  119   118   123   122	 9 ;     CG2R61     CG2R61     CG2R61     CG2R61
  119   118   123   189	 9 ;     CG2R61     CG2R61     CG2R61      HGR61
  118   119   120   121	 9 ;     CG2R61     CG2R61     CG2R61     CG2R61
  118   119   120   186	 9 ;     CG2R61     CG2R61     CG2R61      HGR61
  185   119   120   121	 9 ;      HGR61     CG2R61     CG2R61     CG2R61
  185   119   120   186	 9 ;      HGR61     CG2R61     CG2R61      HGR61
  119   120   121   122	 9 ;     CG2R61     CG2R61     CG2R61     CG2R61
  119   120   121   187	 9 ;     CG2R61     CG2R61     CG2R61      HGR61
  186   120   121   122	 9 ;      HGR61     CG2R61     CG2R61     CG2R61
  186   120   121   187	 9 ;      HGR61     CG2R61     CG2R61      HGR61
  120   121   122   123	 9 ;     CG2R61     CG2R61     CG2R61     CG2R61
  120   121   122   188	 9 ;     CG2R61     CG2R61     CG2R61      HGR61
  187   121   122   123	 9 ;      HGR61     CG2R61     CG2R61     CG2R61
  187   121   122   188	 9 ;      HGR61     CG2R61     CG2R61      HGR61
  121   122   123   118	 9 ;     CG2R61     CG2R61     CG2R61     CG2R61
  121   122   123   189	 9 ;     CG2R61     CG2R61     CG2R61      HGR61
  188   122   123   118	 9 ;      HGR61     CG2R61     CG2R61     CG2R61
  188   122   123   189	 9 ;      HGR61     CG2R61     CG2R61      HGR61
   91   124   132   133	 9 ;      CG311      CG311     CG2R61     CG2R61
   91   124   132   137	 9 ;      CG311      CG311     CG2R61     CG2R61
   90   124   132   133	 9 ;      NG2S1      CG311     CG2R61     CG2R61
   90   124   132   137	 9 ;      NG2S1      CG311     CG2R61     CG2R61
  190   124   132   133	 9 ;       HGA1      CG311     CG2R61     CG2R61
  190   124   132   137	 9 ;       HGA1      CG311     CG2R61     CG2R61
   90   125   126   127	 9 ;      NG2S1      CG2O1     CG2R61     CG2R61
   90   125   126   131	 9 ;      NG2S1      CG2O1     CG2R61     CG2R61
  151   125   126   127	 9 ;      OG2D1      CG2O1     CG2R61     CG2R61
  151   125   126   131	 9 ;      OG2D1      CG2O1     CG2R61     CG2R61
  125   126   127   128	 9 ;      CG2O1     CG2R61     CG2R61     CG2R61
  125   126   127   192	 9 ;      CG2O1     CG2R61     CG2R61      HGR61
  131   126   127   128	 9 ;     CG2R61     CG2R61     CG2R61     CG2R61
  131   126   127   192	 9 ;     CG2R61     CG2R61     CG2R61      HGR61
  125   126   131   130	 9 ;      CG2O1     CG2R61     CG2R61     CG2R61
  125   126   131   196	 9 ;      CG2O1     CG2R61     CG2R61      HGR61
  127   126   131   130	 9 ;     CG2R61     CG2R61     CG2R61     CG2R61
  127   126   131   196	 9 ;     CG2R61     CG2R61     CG2R61      HGR61
  126   127   128   129	 9 ;     CG2R61     CG2R61     CG2R61     CG2R61
  126   127   128   193	 9 ;     CG2R61     CG2R61     CG2R61      HGR61
  192   127   128   129	 9 ;      HGR61     CG2R61     CG2R61     CG2R61
  192   127   128   193	 9 ;      HGR61     CG2R61     CG2R61      HGR61
  127   128   129   130	 9 ;     CG2R61     CG2R61     CG2R61     CG2R61
  127   128   129   194	 9 ;     CG2R61     CG2R61     CG2R61      HGR61
  193   128   129   130	 9 ;      HGR61     CG2R61     CG2R61     CG2R61
  193   128   129   194	 9 ;      HGR61     CG2R61     CG2R61      HGR61
  128   129   130   131	 9 ;     CG2R61     CG2R61     CG2R61     CG2R61
  128   129   130   195	 9 ;     CG2R61     CG2R61     CG2R61      HGR61
  194   129   130   131	 9 ;      HGR61     CG2R61     CG2R61     CG2R61
  194   129   130   195	 9 ;      HGR61     CG2R61     CG2R61      HGR61
  129   130   131   126	 9 ;     CG2R61     CG2R61     CG2R61     CG2R61
  129   130   131   196	 9 ;     CG2R61     CG2R61     CG2R61      HGR61
  195   130   131   126	 9 ;      HGR61     CG2R61     CG2R61     CG2R61
  195   130   131   196	 9 ;      HGR61     CG2R61     CG2R61      HGR61
  124   132   133   134	 9 ;      CG311     CG2R61     CG2R61     CG2R61
  124   132   133   197	 9 ;      CG311     CG2R61     CG2R61      HGR61
  137   132   133   134	 9 ;     CG2R61     CG2R61     CG2R61     CG2R61
  137   132   133   197	 9 ;     CG2R61     CG2R61     CG2R61      HGR61
  124   132   137   136	 9 ;      CG311     CG2R61     CG2R61     CG2R61
  124   132   137   201	 9 ;      CG311     CG2R61     CG2R61      HGR61
  133   132   137   136	 9 ;     CG2R61     CG2R61     CG2R61     CG2R61
  133   132   137   201	 9 ;     CG2R61     CG2R61     CG2R61      HGR61
  132   133   134   135	 9 ;     CG2R61     CG2R61     CG2R61     CG2R61
  132   133   134   198	 9 ;     CG2R61     CG2R61     CG2R61      HGR61
  197   133   134   135	 9 ;      HGR61     CG2R61     CG2R61     CG2R61
  197   133   134   198	 9 ;      HGR61     CG2R61     CG2R61      HGR61
  133   134   135   136	 9 ;     CG2R61     CG2R61     CG2R61     CG2R61
  133   134   135   199	 9 ;     CG2R61     CG2R61     CG2R61      HGR61
  198   134   135   136	 9 ;      HGR61     CG2R61     CG2R61     CG2R61
  198   134   135   199	 9 ;      HGR61     CG2R61     CG2R61      HGR61
  134   135   136   137	 9 ;     CG2R61     CG2R61     CG2R61     CG2R61
  134   135   136   200	 9 ;     CG2R61     CG2R61     CG2R61      HGR61
  199   135   136   137	 9 ;      HGR61     CG2R61     CG2R61     CG2R61
  199   135   136   200	 9 ;      HGR61     CG2R61     CG2R61      HGR61
  135   136   137   132	 9 ;     CG2R61     CG2R61     CG2R61     CG2R61
  135   136   137   201	 9 ;     CG2R61     CG2R61     CG2R61      HGR61
  200   136   137   132	 9 ;      HGR61     CG2R61     CG2R61     CG2R61
  200   136   137   201	 9 ;      HGR61     CG2R61     CG2R61      HGR61

[ dihedrals ]
;	ai	  aj	ak	  al funct			  c0			c1			  c2			c3
    1    33   138    32	 2
   92    91   139   140	 2
  105   103   106   144	 2
  107   108   146   145	 2
  115   116   148   147	 2
  117   118   150   149	 2
  125   126    90   151	 2

