; Created by cgenff_charmm2gmx.py

[ moleculetype ]
; Name			   nrexcl
PPT				 3

[ atoms ]
;	 nr		  type	resnr residue  atom   cgnr	   charge		mass  typeB    chargeB		massB
; residue	 1 PPT rtp PPT q	qsum
     1      CG331      1    PPL     C1      1     -0.273     12.011   ;
     2      CG321      1    PPL     C2      2     -0.177     12.011   ;
     3      CG321      1    PPL     C3      3     -0.181     12.011   ;
     4      CG321      1    PPL     C4      4     -0.179     12.011   ;
     5      CG321      1    PPL     C5      5     -0.180     12.011   ;
     6      CG321      1    PPL     C6      6     -0.180     12.011   ;
     7      CG321      1    PPL     C7      7     -0.180     12.011   ;
     8      CG321      1    PPL     C8      8     -0.180     12.011   ;
     9      CG321      1    PPL     C9      9     -0.180     12.011   ;
    10      CG321      1    PPL    C10     10     -0.180     12.011   ;
    11      CG321      1    PPL    C11     11     -0.180     12.011   ;
    12      CG321      1    PPL    C12     12     -0.180     12.011   ;
    13      CG321      1    PPL    C13     13     -0.180     12.011   ;
    14      CG321      1    PPL    C14     14     -0.180     12.011   ;
    15      CG321      1    PPL    C15     15     -0.180     12.011   ;
    16      CG321      1    PPL    C16     16     -0.180     12.011   ;
    17      CG321      1    PPL    C17     17     -0.180     12.011   ;
    18      CG321      1    PPL    C18     18      0.036     12.011   ;
    19      CG301      1    PPL    C19     19      0.380     12.011   ;
    20      CG331      1    PPL    C20     20     -0.269     12.011   ;
    21      CG331      1    PPL    C21     21     -0.269     12.011   ;
    22      OG301      1    PPL     O1     22     -0.402     15.999   ;
    23       HGA3      1    PPL     H1     23      0.090      1.008   ;
    24       HGA3      1    PPL     H2     24      0.090      1.008   ;
    25       HGA3      1    PPL     H3     25      0.090      1.008   ;
    26       HGA2      1    PPL     H4     26      0.090      1.008   ;
    27       HGA2      1    PPL     H5     27      0.090      1.008   ;
    28       HGA2      1    PPL     H6     28      0.090      1.008   ;
    29       HGA2      1    PPL     H7     29      0.090      1.008   ;
    30       HGA2      1    PPL     H8     30      0.090      1.008   ;
    31       HGA2      1    PPL     H9     31      0.090      1.008   ;
    32       HGA2      1    PPL    H10     32      0.090      1.008   ;
    33       HGA2      1    PPL    H11     33      0.090      1.008   ;
    34       HGA2      1    PPL    H12     34      0.090      1.008   ;
    35       HGA2      1    PPL    H13     35      0.090      1.008   ;
    36       HGA2      1    PPL    H14     36      0.090      1.008   ;
    37       HGA2      1    PPL    H15     37      0.090      1.008   ;
    38       HGA2      1    PPL    H16     38      0.090      1.008   ;
    39       HGA2      1    PPL    H17     39      0.090      1.008   ;
    40       HGA2      1    PPL    H18     40      0.090      1.008   ;
    41       HGA2      1    PPL    H19     41      0.090      1.008   ;
    42       HGA2      1    PPL    H20     42      0.090      1.008   ;
    43       HGA2      1    PPL    H21     43      0.090      1.008   ;
    44       HGA2      1    PPL    H22     44      0.090      1.008   ;
    45       HGA2      1    PPL    H23     45      0.090      1.008   ;
    46       HGA2      1    PPL    H24     46      0.090      1.008   ;
    47       HGA2      1    PPL    H25     47      0.090      1.008   ;
    48       HGA2      1    PPL    H26     48      0.090      1.008   ;
    49       HGA2      1    PPL    H27     49      0.090      1.008   ;
    50       HGA2      1    PPL    H28     50      0.090      1.008   ;
    51       HGA2      1    PPL    H29     51      0.090      1.008   ;
    52       HGA2      1    PPL    H30     52      0.090      1.008   ;
    53       HGA2      1    PPL    H31     53      0.090      1.008   ;
    54       HGA2      1    PPL    H32     54      0.090      1.008   ;
    55       HGA2      1    PPL    H33     55      0.090      1.008   ;
    56       HGA2      1    PPL    H34     56      0.090      1.008   ;
    57       HGA2      1    PPL    H35     57      0.090      1.008   ;
    58       HGA2      1    PPL    H36     58      0.090      1.008   ;
    59       HGA2      1    PPL    H37     59      0.090      1.008   ;
    60       HGA3      1    PPL    H38     60      0.090      1.008   ;
    61       HGA3      1    PPL    H39     61      0.090      1.008   ;
    62       HGA3      1    PPL    H40     62      0.090      1.008   ;
    63       HGA3      1    PPL    H41     63      0.090      1.008   ;
    64       HGA3      1    PPL    H42     64      0.090      1.008   ;
    65       HGA3      1    PPL    H43     65      0.090      1.008   ;
    66      CG311      1    PPT    C22     66      0.132     12.011   ;
    67     CG2R61      1    PPT    C23     67     -0.059     12.011   ;
    68     CG2R61      1    PPT    C24     68     -0.343     12.011   ;
    69     CG2RC0      1    PPT    C25     69      0.099     12.011   ;
    70     CG3C52      1    PPT    C26     70      0.392     12.011   ;
    71     CG2RC0      1    PPT    C27     71      0.099     12.011   ;
    72     CG2R61      1    PPT    C28     72     -0.389     12.011   ;
    73     CG2R61      1    PPT    C29     73      0.004     12.011   ;
    74      CG311      1    PPT    C30     74      0.033     12.011   ;
    75     CG2R61      1    PPT    C31     75      0.025     12.011   ;
    76     CG2R61      1    PPT    C32     76     -0.154     12.011   ;
    77     CG2R61      1    PPT    C33     77      0.221     12.011   ;
    78      CG331      1    PPT    C34     78     -0.101     12.011   ;
    79     CG2R61      1    PPT    C35     79      0.218     12.011   ;
    80      CG331      1    PPT    C36     80     -0.101     12.011   ;
    81     CG2R61      1    PPT    C37     81      0.221     12.011   ;
    82      CG331      1    PPT    C38     82     -0.101     12.011   ;
    83     CG2R61      1    PPT    C39     83     -0.154     12.011   ;
    84     CG3RC1      1    PPT    C40     84      0.185     12.011   ;
    85     CG2R53      1    PPT    C41     85     -0.049     12.011   ;
    86     CG3C52      1    PPT    C42     86      0.083     12.011   ;
    87     CG3RC1      1    PPT    C43     87      0.004     12.011   ;
    88      OG301      1    PPT     O2     88     -0.431     15.999   ;
    89     OG3C51      1    PPT     O3     89     -0.297     15.999   ;
    90     OG3C51      1    PPT     O4     90     -0.297     15.999   ;
    91      OG301      1    PPT     O5     91     -0.389     15.999   ;
    92      OG301      1    PPT     O6     92     -0.389     15.999   ;
    93      OG301      1    PPT     O7     93     -0.389     15.999   ;
    94      OG2D1      1    PPT     O8     94     -0.319     15.999   ;
    95     OG3C51      1    PPT     O9     95     -0.270     15.999   ;
    96       HGA1      1    PPT    H44     96      0.090      1.008   ;
    97      HGR61      1    PPT    H45     97      0.280      1.008   ;
    98       HGA2      1    PPT    H46     98      0.090      1.008   ;
    99       HGA2      1    PPT    H47     99      0.090      1.008   ;
   100      HGR61      1    PPT    H48    100      0.280      1.008   ;
   101       HGA1      1    PPT    H49    101      0.090      1.008   ;
   102      HGR61      1    PPT    H50    102      0.115      1.008   ;
   103       HGA3      1    PPT    H51    103      0.090      1.008   ;
   104       HGA3      1    PPT    H52    104      0.090      1.008   ;
   105       HGA3      1    PPT    H53    105      0.090      1.008   ;
   106       HGA3      1    PPT    H54    106      0.090      1.008   ;
   107       HGA3      1    PPT    H55    107      0.090      1.008   ;
   108       HGA3      1    PPT    H56    108      0.090      1.008   ;
   109       HGA3      1    PPT    H57    109      0.090      1.008   ;
   110       HGA3      1    PPT    H58    110      0.090      1.008   ;
   111       HGA3      1    PPT    H59    111      0.090      1.008   ;
   112      HGR61      1    PPT    H60    112      0.115      1.008   ;
   113       HGA1      1    PPT    H61    113      0.090      1.008   ;
   114       HGA2      1    PPT    H62    114      0.090      1.008   ;
   115       HGA2      1    PPT    H63    115      0.090      1.008   ;
   116       HGA1      1    PPT    H64    116      0.090      1.008   ;

[ bonds ]
;	ai	  aj funct			  c0			c1			  c2			c3
    1     2	 1 ;       CG331      CG321
    1    23	 1 ;       CG331       HGA3
    1    24	 1 ;       CG331       HGA3
    1    25	 1 ;       CG331       HGA3
    2     3	 1 ;       CG321      CG321
    2    26	 1 ;       CG321       HGA2
    2    27	 1 ;       CG321       HGA2
    3     4	 1 ;       CG321      CG321
    3    28	 1 ;       CG321       HGA2
    3    29	 1 ;       CG321       HGA2
    4     5	 1 ;       CG321      CG321
    4    30	 1 ;       CG321       HGA2
    4    31	 1 ;       CG321       HGA2
    5     6	 1 ;       CG321      CG321
    5    32	 1 ;       CG321       HGA2
    5    33	 1 ;       CG321       HGA2
    6     7	 1 ;       CG321      CG321
    6    34	 1 ;       CG321       HGA2
    6    35	 1 ;       CG321       HGA2
    7     8	 1 ;       CG321      CG321
    7    36	 1 ;       CG321       HGA2
    7    37	 1 ;       CG321       HGA2
    8     9	 1 ;       CG321      CG321
    8    38	 1 ;       CG321       HGA2
    8    39	 1 ;       CG321       HGA2
    9    10	 1 ;       CG321      CG321
    9    40	 1 ;       CG321       HGA2
    9    41	 1 ;       CG321       HGA2
   10    11	 1 ;       CG321      CG321
   10    42	 1 ;       CG321       HGA2
   10    43	 1 ;       CG321       HGA2
   11    12	 1 ;       CG321      CG321
   11    44	 1 ;       CG321       HGA2
   11    45	 1 ;       CG321       HGA2
   12    13	 1 ;       CG321      CG321
   12    46	 1 ;       CG321       HGA2
   12    47	 1 ;       CG321       HGA2
   13    14	 1 ;       CG321      CG321
   13    48	 1 ;       CG321       HGA2
   13    49	 1 ;       CG321       HGA2
   14    15	 1 ;       CG321      CG321
   14    50	 1 ;       CG321       HGA2
   14    51	 1 ;       CG321       HGA2
   15    16	 1 ;       CG321      CG321
   15    52	 1 ;       CG321       HGA2
   15    53	 1 ;       CG321       HGA2
   16    17	 1 ;       CG321      CG321
   16    54	 1 ;       CG321       HGA2
   16    55	 1 ;       CG321       HGA2
   17    18	 1 ;       CG321      CG321
   17    56	 1 ;       CG321       HGA2
   17    57	 1 ;       CG321       HGA2
   18    22	 1 ;       CG321      OG301
   18    58	 1 ;       CG321       HGA2
   18    59	 1 ;       CG321       HGA2
   19    20	 1 ;       CG301      CG331
   19    21	 1 ;       CG301      CG331
   19    88	 1 ;       CG301      OG301
   19    22	 1 ;       CG301      OG301
   20    60	 1 ;       CG331       HGA3
   20    61	 1 ;       CG331       HGA3
   20    62	 1 ;       CG331       HGA3
   21    63	 1 ;       CG331       HGA3
   21    64	 1 ;       CG331       HGA3
   21    65	 1 ;       CG331       HGA3
   66    67	 1 ;       CG311     CG2R61
   66    87	 1 ;       CG311     CG3RC1
   66    96	 1 ;       CG311       HGA1
   66    88	 1 ;       CG311      OG301
   67    68	 1 ;      CG2R61     CG2R61
   67    73	 1 ;      CG2R61     CG2R61
   68    69	 1 ;      CG2R61     CG2RC0
   68    97	 1 ;      CG2R61      HGR61
   69    71	 1 ;      CG2RC0     CG2RC0
   69    89	 1 ;      CG2RC0     OG3C51
   70    90	 1 ;      CG3C52     OG3C51
   70    98	 1 ;      CG3C52       HGA2
   70    99	 1 ;      CG3C52       HGA2
   70    89	 1 ;      CG3C52     OG3C51
   71    72	 1 ;      CG2RC0     CG2R61
   71    90	 1 ;      CG2RC0     OG3C51
   72    73	 1 ;      CG2R61     CG2R61
   72   100	 1 ;      CG2R61      HGR61
   73    74	 1 ;      CG2R61      CG311
   74    75	 1 ;       CG311     CG2R61
   74    84	 1 ;       CG311     CG3RC1
   74   101	 1 ;       CG311       HGA1
   75    76	 1 ;      CG2R61     CG2R61
   75    83	 1 ;      CG2R61     CG2R61
   76    77	 1 ;      CG2R61     CG2R61
   76   102	 1 ;      CG2R61      HGR61
   77    79	 1 ;      CG2R61     CG2R61
   77    91	 1 ;      CG2R61      OG301
   78   103	 1 ;       CG331       HGA3
   78   104	 1 ;       CG331       HGA3
   78   105	 1 ;       CG331       HGA3
   78    91	 1 ;       CG331      OG301
   79    81	 1 ;      CG2R61     CG2R61
   79    92	 1 ;      CG2R61      OG301
   80   106	 1 ;       CG331       HGA3
   80   107	 1 ;       CG331       HGA3
   80   108	 1 ;       CG331       HGA3
   80    92	 1 ;       CG331      OG301
   81    83	 1 ;      CG2R61     CG2R61
   81    93	 1 ;      CG2R61      OG301
   82   109	 1 ;       CG331       HGA3
   82   110	 1 ;       CG331       HGA3
   82   111	 1 ;       CG331       HGA3
   82    93	 1 ;       CG331      OG301
   83   112	 1 ;      CG2R61      HGR61
   84    85	 1 ;      CG3RC1     CG2R53
   84    87	 1 ;      CG3RC1     CG3RC1
   84   113	 1 ;      CG3RC1       HGA1
   85    94	 1 ;      CG2R53      OG2D1
   85    95	 1 ;      CG2R53     OG3C51
   86    87	 1 ;      CG3C52     CG3RC1
   86   114	 1 ;      CG3C52       HGA2
   86   115	 1 ;      CG3C52       HGA2
   86    95	 1 ;      CG3C52     OG3C51
   87   116	 1 ;      CG3RC1       HGA1

[ pairs ]
;	ai	  aj funct			  c0			c1			  c2			c3
    1     4	 1
    1    28	 1
    1    29	 1
    2     5	 1
    2    30	 1
    2    31	 1
    3    23	 1
    3    24	 1
    3    25	 1
    3     6	 1
    3    32	 1
    3    33	 1
    4    26	 1
    4    27	 1
    4     7	 1
    4    34	 1
    4    35	 1
    5    28	 1
    5    29	 1
    5     8	 1
    5    36	 1
    5    37	 1
    6    30	 1
    6    31	 1
    6     9	 1
    6    38	 1
    6    39	 1
    7    32	 1
    7    33	 1
    7    10	 1
    7    40	 1
    7    41	 1
    8    34	 1
    8    35	 1
    8    11	 1
    8    42	 1
    8    43	 1
    9    36	 1
    9    37	 1
    9    12	 1
    9    44	 1
    9    45	 1
   10    38	 1
   10    39	 1
   10    13	 1
   10    46	 1
   10    47	 1
   11    40	 1
   11    41	 1
   11    14	 1
   11    48	 1
   11    49	 1
   12    42	 1
   12    43	 1
   12    15	 1
   12    50	 1
   12    51	 1
   13    44	 1
   13    45	 1
   13    16	 1
   13    52	 1
   13    53	 1
   14    46	 1
   14    47	 1
   14    17	 1
   14    54	 1
   14    55	 1
   15    48	 1
   15    49	 1
   15    18	 1
   15    56	 1
   15    57	 1
   16    50	 1
   16    51	 1
   16    22	 1
   16    58	 1
   16    59	 1
   17    52	 1
   17    53	 1
   17    19	 1
   18    54	 1
   18    55	 1
   18    20	 1
   18    21	 1
   18    88	 1
   19    58	 1
   19    59	 1
   19    67	 1
   19    87	 1
   19    96	 1
   20    63	 1
   20    64	 1
   20    65	 1
   20    66	 1
   21    60	 1
   21    61	 1
   21    62	 1
   21    66	 1
   22    56	 1
   22    57	 1
   22    60	 1
   22    61	 1
   22    62	 1
   22    63	 1
   22    64	 1
   22    65	 1
   22    66	 1
   23    26	 1
   23    27	 1
   24    26	 1
   24    27	 1
   25    26	 1
   25    27	 1
   26    28	 1
   26    29	 1
   27    28	 1
   27    29	 1
   28    30	 1
   28    31	 1
   29    30	 1
   29    31	 1
   30    32	 1
   30    33	 1
   31    32	 1
   31    33	 1
   32    34	 1
   32    35	 1
   33    34	 1
   33    35	 1
   34    36	 1
   34    37	 1
   35    36	 1
   35    37	 1
   36    38	 1
   36    39	 1
   37    38	 1
   37    39	 1
   38    40	 1
   38    41	 1
   39    40	 1
   39    41	 1
   40    42	 1
   40    43	 1
   41    42	 1
   41    43	 1
   42    44	 1
   42    45	 1
   43    44	 1
   43    45	 1
   44    46	 1
   44    47	 1
   45    46	 1
   45    47	 1
   46    48	 1
   46    49	 1
   47    48	 1
   47    49	 1
   48    50	 1
   48    51	 1
   49    50	 1
   49    51	 1
   50    52	 1
   50    53	 1
   51    52	 1
   51    53	 1
   52    54	 1
   52    55	 1
   53    54	 1
   53    55	 1
   54    56	 1
   54    57	 1
   55    56	 1
   55    57	 1
   56    58	 1
   56    59	 1
   57    58	 1
   57    59	 1
   60    88	 1
   61    88	 1
   62    88	 1
   63    88	 1
   64    88	 1
   65    88	 1
   66    69	 1
   66    97	 1
   66    72	 1
   66    74	 1
   66    85	 1
   66   113	 1
   66   114	 1
   66   115	 1
   66    95	 1
   67    84	 1
   67    86	 1
   67   116	 1
   67    71	 1
   67    89	 1
   67   100	 1
   67    75	 1
   67   101	 1
   68    87	 1
   68    96	 1
   68    88	 1
   68    72	 1
   68    74	 1
   68    90	 1
   68    70	 1
   69    73	 1
   69    98	 1
   69    99	 1
   69   100	 1
   70    72	 1
   71    97	 1
   71    98	 1
   71    99	 1
   71    74	 1
   72    89	 1
   72    75	 1
   72    84	 1
   72   101	 1
   73    87	 1
   73    96	 1
   73    88	 1
   73    97	 1
   73    90	 1
   73    76	 1
   73    83	 1
   73    85	 1
   73   113	 1
   74   100	 1
   74    77	 1
   74   102	 1
   74    81	 1
   74   112	 1
   74    94	 1
   74    95	 1
   74    86	 1
   74   116	 1
   75    85	 1
   75    87	 1
   75   113	 1
   75    79	 1
   75    91	 1
   75    93	 1
   76    84	 1
   76   101	 1
   76    81	 1
   76   112	 1
   76    92	 1
   76    78	 1
   77    83	 1
   77   103	 1
   77   104	 1
   77   105	 1
   77    93	 1
   77    80	 1
   78    79	 1
   79   102	 1
   79   106	 1
   79   107	 1
   79   108	 1
   79   112	 1
   79    82	 1
   80    81	 1
   81    91	 1
   81   109	 1
   81   110	 1
   81   111	 1
   82    83	 1
   83    84	 1
   83   101	 1
   83   102	 1
   83    92	 1
   84    96	 1
   84    88	 1
   84   114	 1
   84   115	 1
   85   101	 1
   85   116	 1
   85   114	 1
   85   115	 1
   86    96	 1
   86    88	 1
   86   113	 1
   86    94	 1
   87   101	 1
   87    94	 1
   88   116	 1
   89    97	 1
   90   100	 1
   91   102	 1
   91    92	 1
   92    93	 1
   93   112	 1
   94   113	 1
   95   113	 1
   95   116	 1
   96   116	 1
  101   113	 1
  113   116	 1
  114   116	 1
  115   116	 1

[ angles ]
;	ai	  aj	ak funct			c0			  c1			c2			  c3
    2     1    23	5 ;      CG321      CG331       HGA3
    2     1    24	5 ;      CG321      CG331       HGA3
    2     1    25	5 ;      CG321      CG331       HGA3
   23     1    24	5 ;       HGA3      CG331       HGA3
   23     1    25	5 ;       HGA3      CG331       HGA3
   24     1    25	5 ;       HGA3      CG331       HGA3
    1     2     3	5 ;      CG331      CG321      CG321
    1     2    26	5 ;      CG331      CG321       HGA2
    1     2    27	5 ;      CG331      CG321       HGA2
    3     2    26	5 ;      CG321      CG321       HGA2
    3     2    27	5 ;      CG321      CG321       HGA2
   26     2    27	5 ;       HGA2      CG321       HGA2
    2     3     4	5 ;      CG321      CG321      CG321
    2     3    28	5 ;      CG321      CG321       HGA2
    2     3    29	5 ;      CG321      CG321       HGA2
    4     3    28	5 ;      CG321      CG321       HGA2
    4     3    29	5 ;      CG321      CG321       HGA2
   28     3    29	5 ;       HGA2      CG321       HGA2
    3     4     5	5 ;      CG321      CG321      CG321
    3     4    30	5 ;      CG321      CG321       HGA2
    3     4    31	5 ;      CG321      CG321       HGA2
    5     4    30	5 ;      CG321      CG321       HGA2
    5     4    31	5 ;      CG321      CG321       HGA2
   30     4    31	5 ;       HGA2      CG321       HGA2
    4     5     6	5 ;      CG321      CG321      CG321
    4     5    32	5 ;      CG321      CG321       HGA2
    4     5    33	5 ;      CG321      CG321       HGA2
    6     5    32	5 ;      CG321      CG321       HGA2
    6     5    33	5 ;      CG321      CG321       HGA2
   32     5    33	5 ;       HGA2      CG321       HGA2
    5     6     7	5 ;      CG321      CG321      CG321
    5     6    34	5 ;      CG321      CG321       HGA2
    5     6    35	5 ;      CG321      CG321       HGA2
    7     6    34	5 ;      CG321      CG321       HGA2
    7     6    35	5 ;      CG321      CG321       HGA2
   34     6    35	5 ;       HGA2      CG321       HGA2
    6     7     8	5 ;      CG321      CG321      CG321
    6     7    36	5 ;      CG321      CG321       HGA2
    6     7    37	5 ;      CG321      CG321       HGA2
    8     7    36	5 ;      CG321      CG321       HGA2
    8     7    37	5 ;      CG321      CG321       HGA2
   36     7    37	5 ;       HGA2      CG321       HGA2
    7     8     9	5 ;      CG321      CG321      CG321
    7     8    38	5 ;      CG321      CG321       HGA2
    7     8    39	5 ;      CG321      CG321       HGA2
    9     8    38	5 ;      CG321      CG321       HGA2
    9     8    39	5 ;      CG321      CG321       HGA2
   38     8    39	5 ;       HGA2      CG321       HGA2
    8     9    10	5 ;      CG321      CG321      CG321
    8     9    40	5 ;      CG321      CG321       HGA2
    8     9    41	5 ;      CG321      CG321       HGA2
   10     9    40	5 ;      CG321      CG321       HGA2
   10     9    41	5 ;      CG321      CG321       HGA2
   40     9    41	5 ;       HGA2      CG321       HGA2
    9    10    11	5 ;      CG321      CG321      CG321
    9    10    42	5 ;      CG321      CG321       HGA2
    9    10    43	5 ;      CG321      CG321       HGA2
   11    10    42	5 ;      CG321      CG321       HGA2
   11    10    43	5 ;      CG321      CG321       HGA2
   42    10    43	5 ;       HGA2      CG321       HGA2
   10    11    12	5 ;      CG321      CG321      CG321
   10    11    44	5 ;      CG321      CG321       HGA2
   10    11    45	5 ;      CG321      CG321       HGA2
   12    11    44	5 ;      CG321      CG321       HGA2
   12    11    45	5 ;      CG321      CG321       HGA2
   44    11    45	5 ;       HGA2      CG321       HGA2
   11    12    13	5 ;      CG321      CG321      CG321
   11    12    46	5 ;      CG321      CG321       HGA2
   11    12    47	5 ;      CG321      CG321       HGA2
   13    12    46	5 ;      CG321      CG321       HGA2
   13    12    47	5 ;      CG321      CG321       HGA2
   46    12    47	5 ;       HGA2      CG321       HGA2
   12    13    14	5 ;      CG321      CG321      CG321
   12    13    48	5 ;      CG321      CG321       HGA2
   12    13    49	5 ;      CG321      CG321       HGA2
   14    13    48	5 ;      CG321      CG321       HGA2
   14    13    49	5 ;      CG321      CG321       HGA2
   48    13    49	5 ;       HGA2      CG321       HGA2
   13    14    15	5 ;      CG321      CG321      CG321
   13    14    50	5 ;      CG321      CG321       HGA2
   13    14    51	5 ;      CG321      CG321       HGA2
   15    14    50	5 ;      CG321      CG321       HGA2
   15    14    51	5 ;      CG321      CG321       HGA2
   50    14    51	5 ;       HGA2      CG321       HGA2
   14    15    16	5 ;      CG321      CG321      CG321
   14    15    52	5 ;      CG321      CG321       HGA2
   14    15    53	5 ;      CG321      CG321       HGA2
   16    15    52	5 ;      CG321      CG321       HGA2
   16    15    53	5 ;      CG321      CG321       HGA2
   52    15    53	5 ;       HGA2      CG321       HGA2
   15    16    17	5 ;      CG321      CG321      CG321
   15    16    54	5 ;      CG321      CG321       HGA2
   15    16    55	5 ;      CG321      CG321       HGA2
   17    16    54	5 ;      CG321      CG321       HGA2
   17    16    55	5 ;      CG321      CG321       HGA2
   54    16    55	5 ;       HGA2      CG321       HGA2
   16    17    18	5 ;      CG321      CG321      CG321
   16    17    56	5 ;      CG321      CG321       HGA2
   16    17    57	5 ;      CG321      CG321       HGA2
   18    17    56	5 ;      CG321      CG321       HGA2
   18    17    57	5 ;      CG321      CG321       HGA2
   56    17    57	5 ;       HGA2      CG321       HGA2
   17    18    22	5 ;      CG321      CG321      OG301
   17    18    58	5 ;      CG321      CG321       HGA2
   17    18    59	5 ;      CG321      CG321       HGA2
   22    18    58	5 ;      OG301      CG321       HGA2
   22    18    59	5 ;      OG301      CG321       HGA2
   58    18    59	5 ;       HGA2      CG321       HGA2
   20    19    21	5 ;      CG331      CG301      CG331
   20    19    88	5 ;      CG331      CG301      OG301
   20    19    22	5 ;      CG331      CG301      OG301
   21    19    88	5 ;      CG331      CG301      OG301
   21    19    22	5 ;      CG331      CG301      OG301
   88    19    22	5 ;      OG301      CG301      OG301
   19    20    60	5 ;      CG301      CG331       HGA3
   19    20    61	5 ;      CG301      CG331       HGA3
   19    20    62	5 ;      CG301      CG331       HGA3
   60    20    61	5 ;       HGA3      CG331       HGA3
   60    20    62	5 ;       HGA3      CG331       HGA3
   61    20    62	5 ;       HGA3      CG331       HGA3
   19    21    63	5 ;      CG301      CG331       HGA3
   19    21    64	5 ;      CG301      CG331       HGA3
   19    21    65	5 ;      CG301      CG331       HGA3
   63    21    64	5 ;       HGA3      CG331       HGA3
   63    21    65	5 ;       HGA3      CG331       HGA3
   64    21    65	5 ;       HGA3      CG331       HGA3
   18    22    19	5 ;      CG321      OG301      CG301
   67    66    87	5 ;     CG2R61      CG311     CG3RC1
   67    66    96	5 ;     CG2R61      CG311       HGA1
   67    66    88	5 ;     CG2R61      CG311      OG301
   87    66    96	5 ;     CG3RC1      CG311       HGA1
   87    66    88	5 ;     CG3RC1      CG311      OG301
   96    66    88	5 ;       HGA1      CG311      OG301
   66    67    68	5 ;      CG311     CG2R61     CG2R61
   66    67    73	5 ;      CG311     CG2R61     CG2R61
   68    67    73	5 ;     CG2R61     CG2R61     CG2R61
   67    68    69	5 ;     CG2R61     CG2R61     CG2RC0
   67    68    97	5 ;     CG2R61     CG2R61      HGR61
   69    68    97	5 ;     CG2RC0     CG2R61      HGR61
   68    69    71	5 ;     CG2R61     CG2RC0     CG2RC0
   68    69    89	5 ;     CG2R61     CG2RC0     OG3C51
   71    69    89	5 ;     CG2RC0     CG2RC0     OG3C51
   90    70    98	5 ;     OG3C51     CG3C52       HGA2
   90    70    99	5 ;     OG3C51     CG3C52       HGA2
   90    70    89	5 ;     OG3C51     CG3C52     OG3C51
   98    70    99	5 ;       HGA2     CG3C52       HGA2
   98    70    89	5 ;       HGA2     CG3C52     OG3C51
   99    70    89	5 ;       HGA2     CG3C52     OG3C51
   69    71    72	5 ;     CG2RC0     CG2RC0     CG2R61
   69    71    90	5 ;     CG2RC0     CG2RC0     OG3C51
   72    71    90	5 ;     CG2R61     CG2RC0     OG3C51
   71    72    73	5 ;     CG2RC0     CG2R61     CG2R61
   71    72   100	5 ;     CG2RC0     CG2R61      HGR61
   73    72   100	5 ;     CG2R61     CG2R61      HGR61
   67    73    72	5 ;     CG2R61     CG2R61     CG2R61
   67    73    74	5 ;     CG2R61     CG2R61      CG311
   72    73    74	5 ;     CG2R61     CG2R61      CG311
   73    74    75	5 ;     CG2R61      CG311     CG2R61
   73    74    84	5 ;     CG2R61      CG311     CG3RC1
   73    74   101	5 ;     CG2R61      CG311       HGA1
   75    74    84	5 ;     CG2R61      CG311     CG3RC1
   75    74   101	5 ;     CG2R61      CG311       HGA1
   84    74   101	5 ;     CG3RC1      CG311       HGA1
   74    75    76	5 ;      CG311     CG2R61     CG2R61
   74    75    83	5 ;      CG311     CG2R61     CG2R61
   76    75    83	5 ;     CG2R61     CG2R61     CG2R61
   75    76    77	5 ;     CG2R61     CG2R61     CG2R61
   75    76   102	5 ;     CG2R61     CG2R61      HGR61
   77    76   102	5 ;     CG2R61     CG2R61      HGR61
   76    77    79	5 ;     CG2R61     CG2R61     CG2R61
   76    77    91	5 ;     CG2R61     CG2R61      OG301
   79    77    91	5 ;     CG2R61     CG2R61      OG301
  103    78   104	5 ;       HGA3      CG331       HGA3
  103    78   105	5 ;       HGA3      CG331       HGA3
  103    78    91	5 ;       HGA3      CG331      OG301
  104    78   105	5 ;       HGA3      CG331       HGA3
  104    78    91	5 ;       HGA3      CG331      OG301
  105    78    91	5 ;       HGA3      CG331      OG301
   77    79    81	5 ;     CG2R61     CG2R61     CG2R61
   77    79    92	5 ;     CG2R61     CG2R61      OG301
   81    79    92	5 ;     CG2R61     CG2R61      OG301
  106    80   107	5 ;       HGA3      CG331       HGA3
  106    80   108	5 ;       HGA3      CG331       HGA3
  106    80    92	5 ;       HGA3      CG331      OG301
  107    80   108	5 ;       HGA3      CG331       HGA3
  107    80    92	5 ;       HGA3      CG331      OG301
  108    80    92	5 ;       HGA3      CG331      OG301
   79    81    83	5 ;     CG2R61     CG2R61     CG2R61
   79    81    93	5 ;     CG2R61     CG2R61      OG301
   83    81    93	5 ;     CG2R61     CG2R61      OG301
  109    82   110	5 ;       HGA3      CG331       HGA3
  109    82   111	5 ;       HGA3      CG331       HGA3
  109    82    93	5 ;       HGA3      CG331      OG301
  110    82   111	5 ;       HGA3      CG331       HGA3
  110    82    93	5 ;       HGA3      CG331      OG301
  111    82    93	5 ;       HGA3      CG331      OG301
   75    83    81	5 ;     CG2R61     CG2R61     CG2R61
   75    83   112	5 ;     CG2R61     CG2R61      HGR61
   81    83   112	5 ;     CG2R61     CG2R61      HGR61
   74    84    85	5 ;      CG311     CG3RC1     CG2R53
   74    84    87	5 ;      CG311     CG3RC1     CG3RC1
   74    84   113	5 ;      CG311     CG3RC1       HGA1
   85    84    87	5 ;     CG2R53     CG3RC1     CG3RC1
   85    84   113	5 ;     CG2R53     CG3RC1       HGA1
   87    84   113	5 ;     CG3RC1     CG3RC1       HGA1
   84    85    94	5 ;     CG3RC1     CG2R53      OG2D1
   84    85    95	5 ;     CG3RC1     CG2R53     OG3C51
   94    85    95	5 ;      OG2D1     CG2R53     OG3C51
   87    86   114	5 ;     CG3RC1     CG3C52       HGA2
   87    86   115	5 ;     CG3RC1     CG3C52       HGA2
   87    86    95	5 ;     CG3RC1     CG3C52     OG3C51
  114    86   115	5 ;       HGA2     CG3C52       HGA2
  114    86    95	5 ;       HGA2     CG3C52     OG3C51
  115    86    95	5 ;       HGA2     CG3C52     OG3C51
   66    87    84	5 ;      CG311     CG3RC1     CG3RC1
   66    87    86	5 ;      CG311     CG3RC1     CG3C52
   66    87   116	5 ;      CG311     CG3RC1       HGA1
   84    87    86	5 ;     CG3RC1     CG3RC1     CG3C52
   84    87   116	5 ;     CG3RC1     CG3RC1       HGA1
   86    87   116	5 ;     CG3C52     CG3RC1       HGA1
   19    88    66	5 ;      CG301      OG301      CG311
   69    89    70	5 ;     CG2RC0     OG3C51     CG3C52
   70    90    71	5 ;     CG3C52     OG3C51     CG2RC0
   77    91    78	5 ;     CG2R61      OG301      CG331
   79    92    80	5 ;     CG2R61      OG301      CG331
   81    93    82	5 ;     CG2R61      OG301      CG331
   85    95    86	5 ;     CG2R53     OG3C51     CG3C52

[ dihedrals ]
;	ai	  aj	ak	  al funct			  c0			c1			  c2			c3			  c4			c5
   23     1     2     3	 9 ;       HGA3      CG331      CG321      CG321
   23     1     2    26	 9 ;       HGA3      CG331      CG321       HGA2
   23     1     2    27	 9 ;       HGA3      CG331      CG321       HGA2
   24     1     2     3	 9 ;       HGA3      CG331      CG321      CG321
   24     1     2    26	 9 ;       HGA3      CG331      CG321       HGA2
   24     1     2    27	 9 ;       HGA3      CG331      CG321       HGA2
   25     1     2     3	 9 ;       HGA3      CG331      CG321      CG321
   25     1     2    26	 9 ;       HGA3      CG331      CG321       HGA2
   25     1     2    27	 9 ;       HGA3      CG331      CG321       HGA2
    1     2     3     4	 9 ;      CG331      CG321      CG321      CG321
    1     2     3    28	 9 ;      CG331      CG321      CG321       HGA2
    1     2     3    29	 9 ;      CG331      CG321      CG321       HGA2
   26     2     3     4	 9 ;       HGA2      CG321      CG321      CG321
   26     2     3    28	 9 ;       HGA2      CG321      CG321       HGA2
   26     2     3    29	 9 ;       HGA2      CG321      CG321       HGA2
   27     2     3     4	 9 ;       HGA2      CG321      CG321      CG321
   27     2     3    28	 9 ;       HGA2      CG321      CG321       HGA2
   27     2     3    29	 9 ;       HGA2      CG321      CG321       HGA2
    2     3     4     5	 9 ;      CG321      CG321      CG321      CG321
    2     3     4    30	 9 ;      CG321      CG321      CG321       HGA2
    2     3     4    31	 9 ;      CG321      CG321      CG321       HGA2
   28     3     4     5	 9 ;       HGA2      CG321      CG321      CG321
   28     3     4    30	 9 ;       HGA2      CG321      CG321       HGA2
   28     3     4    31	 9 ;       HGA2      CG321      CG321       HGA2
   29     3     4     5	 9 ;       HGA2      CG321      CG321      CG321
   29     3     4    30	 9 ;       HGA2      CG321      CG321       HGA2
   29     3     4    31	 9 ;       HGA2      CG321      CG321       HGA2
    3     4     5     6	 9 ;      CG321      CG321      CG321      CG321
    3     4     5    32	 9 ;      CG321      CG321      CG321       HGA2
    3     4     5    33	 9 ;      CG321      CG321      CG321       HGA2
   30     4     5     6	 9 ;       HGA2      CG321      CG321      CG321
   30     4     5    32	 9 ;       HGA2      CG321      CG321       HGA2
   30     4     5    33	 9 ;       HGA2      CG321      CG321       HGA2
   31     4     5     6	 9 ;       HGA2      CG321      CG321      CG321
   31     4     5    32	 9 ;       HGA2      CG321      CG321       HGA2
   31     4     5    33	 9 ;       HGA2      CG321      CG321       HGA2
    4     5     6     7	 9 ;      CG321      CG321      CG321      CG321
    4     5     6    34	 9 ;      CG321      CG321      CG321       HGA2
    4     5     6    35	 9 ;      CG321      CG321      CG321       HGA2
   32     5     6     7	 9 ;       HGA2      CG321      CG321      CG321
   32     5     6    34	 9 ;       HGA2      CG321      CG321       HGA2
   32     5     6    35	 9 ;       HGA2      CG321      CG321       HGA2
   33     5     6     7	 9 ;       HGA2      CG321      CG321      CG321
   33     5     6    34	 9 ;       HGA2      CG321      CG321       HGA2
   33     5     6    35	 9 ;       HGA2      CG321      CG321       HGA2
    5     6     7     8	 9 ;      CG321      CG321      CG321      CG321
    5     6     7    36	 9 ;      CG321      CG321      CG321       HGA2
    5     6     7    37	 9 ;      CG321      CG321      CG321       HGA2
   34     6     7     8	 9 ;       HGA2      CG321      CG321      CG321
   34     6     7    36	 9 ;       HGA2      CG321      CG321       HGA2
   34     6     7    37	 9 ;       HGA2      CG321      CG321       HGA2
   35     6     7     8	 9 ;       HGA2      CG321      CG321      CG321
   35     6     7    36	 9 ;       HGA2      CG321      CG321       HGA2
   35     6     7    37	 9 ;       HGA2      CG321      CG321       HGA2
    6     7     8     9	 9 ;      CG321      CG321      CG321      CG321
    6     7     8    38	 9 ;      CG321      CG321      CG321       HGA2
    6     7     8    39	 9 ;      CG321      CG321      CG321       HGA2
   36     7     8     9	 9 ;       HGA2      CG321      CG321      CG321
   36     7     8    38	 9 ;       HGA2      CG321      CG321       HGA2
   36     7     8    39	 9 ;       HGA2      CG321      CG321       HGA2
   37     7     8     9	 9 ;       HGA2      CG321      CG321      CG321
   37     7     8    38	 9 ;       HGA2      CG321      CG321       HGA2
   37     7     8    39	 9 ;       HGA2      CG321      CG321       HGA2
    7     8     9    10	 9 ;      CG321      CG321      CG321      CG321
    7     8     9    40	 9 ;      CG321      CG321      CG321       HGA2
    7     8     9    41	 9 ;      CG321      CG321      CG321       HGA2
   38     8     9    10	 9 ;       HGA2      CG321      CG321      CG321
   38     8     9    40	 9 ;       HGA2      CG321      CG321       HGA2
   38     8     9    41	 9 ;       HGA2      CG321      CG321       HGA2
   39     8     9    10	 9 ;       HGA2      CG321      CG321      CG321
   39     8     9    40	 9 ;       HGA2      CG321      CG321       HGA2
   39     8     9    41	 9 ;       HGA2      CG321      CG321       HGA2
    8     9    10    11	 9 ;      CG321      CG321      CG321      CG321
    8     9    10    42	 9 ;      CG321      CG321      CG321       HGA2
    8     9    10    43	 9 ;      CG321      CG321      CG321       HGA2
   40     9    10    11	 9 ;       HGA2      CG321      CG321      CG321
   40     9    10    42	 9 ;       HGA2      CG321      CG321       HGA2
   40     9    10    43	 9 ;       HGA2      CG321      CG321       HGA2
   41     9    10    11	 9 ;       HGA2      CG321      CG321      CG321
   41     9    10    42	 9 ;       HGA2      CG321      CG321       HGA2
   41     9    10    43	 9 ;       HGA2      CG321      CG321       HGA2
    9    10    11    12	 9 ;      CG321      CG321      CG321      CG321
    9    10    11    44	 9 ;      CG321      CG321      CG321       HGA2
    9    10    11    45	 9 ;      CG321      CG321      CG321       HGA2
   42    10    11    12	 9 ;       HGA2      CG321      CG321      CG321
   42    10    11    44	 9 ;       HGA2      CG321      CG321       HGA2
   42    10    11    45	 9 ;       HGA2      CG321      CG321       HGA2
   43    10    11    12	 9 ;       HGA2      CG321      CG321      CG321
   43    10    11    44	 9 ;       HGA2      CG321      CG321       HGA2
   43    10    11    45	 9 ;       HGA2      CG321      CG321       HGA2
   10    11    12    13	 9 ;      CG321      CG321      CG321      CG321
   10    11    12    46	 9 ;      CG321      CG321      CG321       HGA2
   10    11    12    47	 9 ;      CG321      CG321      CG321       HGA2
   44    11    12    13	 9 ;       HGA2      CG321      CG321      CG321
   44    11    12    46	 9 ;       HGA2      CG321      CG321       HGA2
   44    11    12    47	 9 ;       HGA2      CG321      CG321       HGA2
   45    11    12    13	 9 ;       HGA2      CG321      CG321      CG321
   45    11    12    46	 9 ;       HGA2      CG321      CG321       HGA2
   45    11    12    47	 9 ;       HGA2      CG321      CG321       HGA2
   11    12    13    14	 9 ;      CG321      CG321      CG321      CG321
   11    12    13    48	 9 ;      CG321      CG321      CG321       HGA2
   11    12    13    49	 9 ;      CG321      CG321      CG321       HGA2
   46    12    13    14	 9 ;       HGA2      CG321      CG321      CG321
   46    12    13    48	 9 ;       HGA2      CG321      CG321       HGA2
   46    12    13    49	 9 ;       HGA2      CG321      CG321       HGA2
   47    12    13    14	 9 ;       HGA2      CG321      CG321      CG321
   47    12    13    48	 9 ;       HGA2      CG321      CG321       HGA2
   47    12    13    49	 9 ;       HGA2      CG321      CG321       HGA2
   12    13    14    15	 9 ;      CG321      CG321      CG321      CG321
   12    13    14    50	 9 ;      CG321      CG321      CG321       HGA2
   12    13    14    51	 9 ;      CG321      CG321      CG321       HGA2
   48    13    14    15	 9 ;       HGA2      CG321      CG321      CG321
   48    13    14    50	 9 ;       HGA2      CG321      CG321       HGA2
   48    13    14    51	 9 ;       HGA2      CG321      CG321       HGA2
   49    13    14    15	 9 ;       HGA2      CG321      CG321      CG321
   49    13    14    50	 9 ;       HGA2      CG321      CG321       HGA2
   49    13    14    51	 9 ;       HGA2      CG321      CG321       HGA2
   13    14    15    16	 9 ;      CG321      CG321      CG321      CG321
   13    14    15    52	 9 ;      CG321      CG321      CG321       HGA2
   13    14    15    53	 9 ;      CG321      CG321      CG321       HGA2
   50    14    15    16	 9 ;       HGA2      CG321      CG321      CG321
   50    14    15    52	 9 ;       HGA2      CG321      CG321       HGA2
   50    14    15    53	 9 ;       HGA2      CG321      CG321       HGA2
   51    14    15    16	 9 ;       HGA2      CG321      CG321      CG321
   51    14    15    52	 9 ;       HGA2      CG321      CG321       HGA2
   51    14    15    53	 9 ;       HGA2      CG321      CG321       HGA2
   14    15    16    17	 9 ;      CG321      CG321      CG321      CG321
   14    15    16    54	 9 ;      CG321      CG321      CG321       HGA2
   14    15    16    55	 9 ;      CG321      CG321      CG321       HGA2
   52    15    16    17	 9 ;       HGA2      CG321      CG321      CG321
   52    15    16    54	 9 ;       HGA2      CG321      CG321       HGA2
   52    15    16    55	 9 ;       HGA2      CG321      CG321       HGA2
   53    15    16    17	 9 ;       HGA2      CG321      CG321      CG321
   53    15    16    54	 9 ;       HGA2      CG321      CG321       HGA2
   53    15    16    55	 9 ;       HGA2      CG321      CG321       HGA2
   15    16    17    18	 9 ;      CG321      CG321      CG321      CG321
   15    16    17    56	 9 ;      CG321      CG321      CG321       HGA2
   15    16    17    57	 9 ;      CG321      CG321      CG321       HGA2
   54    16    17    18	 9 ;       HGA2      CG321      CG321      CG321
   54    16    17    56	 9 ;       HGA2      CG321      CG321       HGA2
   54    16    17    57	 9 ;       HGA2      CG321      CG321       HGA2
   55    16    17    18	 9 ;       HGA2      CG321      CG321      CG321
   55    16    17    56	 9 ;       HGA2      CG321      CG321       HGA2
   55    16    17    57	 9 ;       HGA2      CG321      CG321       HGA2
   16    17    18    22	 9 ;      CG321      CG321      CG321      OG301
   16    17    18    58	 9 ;      CG321      CG321      CG321       HGA2
   16    17    18    59	 9 ;      CG321      CG321      CG321       HGA2
   56    17    18    22	 9 ;       HGA2      CG321      CG321      OG301
   56    17    18    58	 9 ;       HGA2      CG321      CG321       HGA2
   56    17    18    59	 9 ;       HGA2      CG321      CG321       HGA2
   57    17    18    22	 9 ;       HGA2      CG321      CG321      OG301
   57    17    18    58	 9 ;       HGA2      CG321      CG321       HGA2
   57    17    18    59	 9 ;       HGA2      CG321      CG321       HGA2
   17    18    22    19	 9 ;      CG321      CG321      OG301      CG301
   58    18    22    19	 9 ;       HGA2      CG321      OG301      CG301
   59    18    22    19	 9 ;       HGA2      CG321      OG301      CG301
   21    19    20    60	 9 ;      CG331      CG301      CG331       HGA3
   21    19    20    61	 9 ;      CG331      CG301      CG331       HGA3
   21    19    20    62	 9 ;      CG331      CG301      CG331       HGA3
   88    19    20    60	 9 ;      OG301      CG301      CG331       HGA3
   88    19    20    61	 9 ;      OG301      CG301      CG331       HGA3
   88    19    20    62	 9 ;      OG301      CG301      CG331       HGA3
   22    19    20    60	 9 ;      OG301      CG301      CG331       HGA3
   22    19    20    61	 9 ;      OG301      CG301      CG331       HGA3
   22    19    20    62	 9 ;      OG301      CG301      CG331       HGA3
   20    19    21    63	 9 ;      CG331      CG301      CG331       HGA3
   20    19    21    64	 9 ;      CG331      CG301      CG331       HGA3
   20    19    21    65	 9 ;      CG331      CG301      CG331       HGA3
   88    19    21    63	 9 ;      OG301      CG301      CG331       HGA3
   88    19    21    64	 9 ;      OG301      CG301      CG331       HGA3
   88    19    21    65	 9 ;      OG301      CG301      CG331       HGA3
   22    19    21    63	 9 ;      OG301      CG301      CG331       HGA3
   22    19    21    64	 9 ;      OG301      CG301      CG331       HGA3
   22    19    21    65	 9 ;      OG301      CG301      CG331       HGA3
   20    19    88    66	 9 ;      CG331      CG301      OG301      CG311
   21    19    88    66	 9 ;      CG331      CG301      OG301      CG311
   22    19    88    66	 9 ;      OG301      CG301      OG301      CG311
   20    19    22    18	 9 ;      CG331      CG301      OG301      CG321
   21    19    22    18	 9 ;      CG331      CG301      OG301      CG321
   88    19    22    18	 9 ;      OG301      CG301      OG301      CG321
   87    66    67    68	 9 ;     CG3RC1      CG311     CG2R61     CG2R61
   87    66    67    73	 9 ;     CG3RC1      CG311     CG2R61     CG2R61
   96    66    67    68	 9 ;       HGA1      CG311     CG2R61     CG2R61
   96    66    67    73	 9 ;       HGA1      CG311     CG2R61     CG2R61
   88    66    67    68	 9 ;      OG301      CG311     CG2R61     CG2R61
   88    66    67    73	 9 ;      OG301      CG311     CG2R61     CG2R61
   67    66    87    84	 9 ;     CG2R61      CG311     CG3RC1     CG3RC1
   67    66    87    86	 9 ;     CG2R61      CG311     CG3RC1     CG3C52
   67    66    87   116	 9 ;     CG2R61      CG311     CG3RC1       HGA1
   96    66    87    84	 9 ;       HGA1      CG311     CG3RC1     CG3RC1
   96    66    87    86	 9 ;       HGA1      CG311     CG3RC1     CG3C52
   96    66    87   116	 9 ;       HGA1      CG311     CG3RC1       HGA1
   88    66    87    84	 9 ;      OG301      CG311     CG3RC1     CG3RC1
   88    66    87    86	 9 ;      OG301      CG311     CG3RC1     CG3C52
   88    66    87   116	 9 ;      OG301      CG311     CG3RC1       HGA1
   67    66    88    19	 9 ;     CG2R61      CG311      OG301      CG301
   87    66    88    19	 9 ;     CG3RC1      CG311      OG301      CG301
   96    66    88    19	 9 ;       HGA1      CG311      OG301      CG301
   66    67    68    69	 9 ;      CG311     CG2R61     CG2R61     CG2RC0
   66    67    68    97	 9 ;      CG311     CG2R61     CG2R61      HGR61
   73    67    68    69	 9 ;     CG2R61     CG2R61     CG2R61     CG2RC0
   73    67    68    97	 9 ;     CG2R61     CG2R61     CG2R61      HGR61
   66    67    73    72	 9 ;      CG311     CG2R61     CG2R61     CG2R61
   66    67    73    74	 9 ;      CG311     CG2R61     CG2R61      CG311
   68    67    73    72	 9 ;     CG2R61     CG2R61     CG2R61     CG2R61
   68    67    73    74	 9 ;     CG2R61     CG2R61     CG2R61      CG311
   67    68    69    71	 9 ;     CG2R61     CG2R61     CG2RC0     CG2RC0
   67    68    69    89	 9 ;     CG2R61     CG2R61     CG2RC0     OG3C51
   97    68    69    71	 9 ;      HGR61     CG2R61     CG2RC0     CG2RC0
   97    68    69    89	 9 ;      HGR61     CG2R61     CG2RC0     OG3C51
   68    69    71    72	 9 ;     CG2R61     CG2RC0     CG2RC0     CG2R61
   68    69    71    90	 9 ;     CG2R61     CG2RC0     CG2RC0     OG3C51
   89    69    71    72	 9 ;     OG3C51     CG2RC0     CG2RC0     CG2R61
   89    69    71    90	 9 ;     OG3C51     CG2RC0     CG2RC0     OG3C51
   68    69    89    70	 9 ;     CG2R61     CG2RC0     OG3C51     CG3C52
   71    69    89    70	 9 ;     CG2RC0     CG2RC0     OG3C51     CG3C52
   98    70    90    71	 9 ;       HGA2     CG3C52     OG3C51     CG2RC0
   99    70    90    71	 9 ;       HGA2     CG3C52     OG3C51     CG2RC0
   89    70    90    71	 9 ;     OG3C51     CG3C52     OG3C51     CG2RC0
   90    70    89    69	 9 ;     OG3C51     CG3C52     OG3C51     CG2RC0
   98    70    89    69	 9 ;       HGA2     CG3C52     OG3C51     CG2RC0
   99    70    89    69	 9 ;       HGA2     CG3C52     OG3C51     CG2RC0
   69    71    72    73	 9 ;     CG2RC0     CG2RC0     CG2R61     CG2R61
   69    71    72   100	 9 ;     CG2RC0     CG2RC0     CG2R61      HGR61
   90    71    72    73	 9 ;     OG3C51     CG2RC0     CG2R61     CG2R61
   90    71    72   100	 9 ;     OG3C51     CG2RC0     CG2R61      HGR61
   69    71    90    70	 9 ;     CG2RC0     CG2RC0     OG3C51     CG3C52
   72    71    90    70	 9 ;     CG2R61     CG2RC0     OG3C51     CG3C52
   71    72    73    67	 9 ;     CG2RC0     CG2R61     CG2R61     CG2R61
   71    72    73    74	 9 ;     CG2RC0     CG2R61     CG2R61      CG311
  100    72    73    67	 9 ;      HGR61     CG2R61     CG2R61     CG2R61
  100    72    73    74	 9 ;      HGR61     CG2R61     CG2R61      CG311
   67    73    74    75	 9 ;     CG2R61     CG2R61      CG311     CG2R61
   67    73    74    84	 9 ;     CG2R61     CG2R61      CG311     CG3RC1
   67    73    74   101	 9 ;     CG2R61     CG2R61      CG311       HGA1
   72    73    74    75	 9 ;     CG2R61     CG2R61      CG311     CG2R61
   72    73    74    84	 9 ;     CG2R61     CG2R61      CG311     CG3RC1
   72    73    74   101	 9 ;     CG2R61     CG2R61      CG311       HGA1
   73    74    75    76	 9 ;     CG2R61      CG311     CG2R61     CG2R61
   73    74    75    83	 9 ;     CG2R61      CG311     CG2R61     CG2R61
   84    74    75    76	 9 ;     CG3RC1      CG311     CG2R61     CG2R61
   84    74    75    83	 9 ;     CG3RC1      CG311     CG2R61     CG2R61
  101    74    75    76	 9 ;       HGA1      CG311     CG2R61     CG2R61
  101    74    75    83	 9 ;       HGA1      CG311     CG2R61     CG2R61
   73    74    84    85	 9 ;     CG2R61      CG311     CG3RC1     CG2R53
   73    74    84    87	 9 ;     CG2R61      CG311     CG3RC1     CG3RC1
   73    74    84   113	 9 ;     CG2R61      CG311     CG3RC1       HGA1
   75    74    84    85	 9 ;     CG2R61      CG311     CG3RC1     CG2R53
   75    74    84    87	 9 ;     CG2R61      CG311     CG3RC1     CG3RC1
   75    74    84   113	 9 ;     CG2R61      CG311     CG3RC1       HGA1
  101    74    84    85	 9 ;       HGA1      CG311     CG3RC1     CG2R53
  101    74    84    87	 9 ;       HGA1      CG311     CG3RC1     CG3RC1
  101    74    84   113	 9 ;       HGA1      CG311     CG3RC1       HGA1
   74    75    76    77	 9 ;      CG311     CG2R61     CG2R61     CG2R61
   74    75    76   102	 9 ;      CG311     CG2R61     CG2R61      HGR61
   83    75    76    77	 9 ;     CG2R61     CG2R61     CG2R61     CG2R61
   83    75    76   102	 9 ;     CG2R61     CG2R61     CG2R61      HGR61
   74    75    83    81	 9 ;      CG311     CG2R61     CG2R61     CG2R61
   74    75    83   112	 9 ;      CG311     CG2R61     CG2R61      HGR61
   76    75    83    81	 9 ;     CG2R61     CG2R61     CG2R61     CG2R61
   76    75    83   112	 9 ;     CG2R61     CG2R61     CG2R61      HGR61
   75    76    77    79	 9 ;     CG2R61     CG2R61     CG2R61     CG2R61
   75    76    77    91	 9 ;     CG2R61     CG2R61     CG2R61      OG301
  102    76    77    79	 9 ;      HGR61     CG2R61     CG2R61     CG2R61
  102    76    77    91	 9 ;      HGR61     CG2R61     CG2R61      OG301
   76    77    79    81	 9 ;     CG2R61     CG2R61     CG2R61     CG2R61
   76    77    79    92	 9 ;     CG2R61     CG2R61     CG2R61      OG301
   91    77    79    81	 9 ;      OG301     CG2R61     CG2R61     CG2R61
   91    77    79    92	 9 ;      OG301     CG2R61     CG2R61      OG301
   76    77    91    78	 9 ;     CG2R61     CG2R61      OG301      CG331
   79    77    91    78	 9 ;     CG2R61     CG2R61      OG301      CG331
  103    78    91    77	 9 ;       HGA3      CG331      OG301     CG2R61
  104    78    91    77	 9 ;       HGA3      CG331      OG301     CG2R61
  105    78    91    77	 9 ;       HGA3      CG331      OG301     CG2R61
   77    79    81    83	 9 ;     CG2R61     CG2R61     CG2R61     CG2R61
   77    79    81    93	 9 ;     CG2R61     CG2R61     CG2R61      OG301
   92    79    81    83	 9 ;      OG301     CG2R61     CG2R61     CG2R61
   92    79    81    93	 9 ;      OG301     CG2R61     CG2R61      OG301
   77    79    92    80	 9 ;     CG2R61     CG2R61      OG301      CG331
   81    79    92    80	 9 ;     CG2R61     CG2R61      OG301      CG331
  106    80    92    79	 9 ;       HGA3      CG331      OG301     CG2R61
  107    80    92    79	 9 ;       HGA3      CG331      OG301     CG2R61
  108    80    92    79	 9 ;       HGA3      CG331      OG301     CG2R61
   79    81    83    75	 9 ;     CG2R61     CG2R61     CG2R61     CG2R61
   79    81    83   112	 9 ;     CG2R61     CG2R61     CG2R61      HGR61
   93    81    83    75	 9 ;      OG301     CG2R61     CG2R61     CG2R61
   93    81    83   112	 9 ;      OG301     CG2R61     CG2R61      HGR61
   79    81    93    82	 9 ;     CG2R61     CG2R61      OG301      CG331
   83    81    93    82	 9 ;     CG2R61     CG2R61      OG301      CG331
  109    82    93    81	 9 ;       HGA3      CG331      OG301     CG2R61
  110    82    93    81	 9 ;       HGA3      CG331      OG301     CG2R61
  111    82    93    81	 9 ;       HGA3      CG331      OG301     CG2R61
   74    84    85    94	 9 ;      CG311     CG3RC1     CG2R53      OG2D1
   74    84    85    95	 9 ;      CG311     CG3RC1     CG2R53     OG3C51
   87    84    85    94	 9 ;     CG3RC1     CG3RC1     CG2R53      OG2D1
   87    84    85    95	 9 ;     CG3RC1     CG3RC1     CG2R53     OG3C51
  113    84    85    94	 9 ;       HGA1     CG3RC1     CG2R53      OG2D1
  113    84    85    95	 9 ;       HGA1     CG3RC1     CG2R53     OG3C51
   74    84    87    66	 9 ;      CG311     CG3RC1     CG3RC1      CG311
   74    84    87    86	 9 ;      CG311     CG3RC1     CG3RC1     CG3C52
   74    84    87   116	 9 ;      CG311     CG3RC1     CG3RC1       HGA1
   85    84    87    66	 9 ;     CG2R53     CG3RC1     CG3RC1      CG311
   85    84    87    86	 9 ;     CG2R53     CG3RC1     CG3RC1     CG3C52
   85    84    87   116	 9 ;     CG2R53     CG3RC1     CG3RC1       HGA1
  113    84    87    66	 9 ;       HGA1     CG3RC1     CG3RC1      CG311
  113    84    87    86	 9 ;       HGA1     CG3RC1     CG3RC1     CG3C52
  113    84    87   116	 9 ;       HGA1     CG3RC1     CG3RC1       HGA1
   84    85    95    86	 9 ;     CG3RC1     CG2R53     OG3C51     CG3C52
   94    85    95    86	 9 ;      OG2D1     CG2R53     OG3C51     CG3C52
  114    86    87    66	 9 ;       HGA2     CG3C52     CG3RC1      CG311
  114    86    87    84	 9 ;       HGA2     CG3C52     CG3RC1     CG3RC1
  114    86    87   116	 9 ;       HGA2     CG3C52     CG3RC1       HGA1
  115    86    87    66	 9 ;       HGA2     CG3C52     CG3RC1      CG311
  115    86    87    84	 9 ;       HGA2     CG3C52     CG3RC1     CG3RC1
  115    86    87   116	 9 ;       HGA2     CG3C52     CG3RC1       HGA1
   95    86    87    66	 9 ;     OG3C51     CG3C52     CG3RC1      CG311
   95    86    87    84	 9 ;     OG3C51     CG3C52     CG3RC1     CG3RC1
   95    86    87   116	 9 ;     OG3C51     CG3C52     CG3RC1       HGA1
   87    86    95    85	 9 ;     CG3RC1     CG3C52     OG3C51     CG2R53
  114    86    95    85	 9 ;       HGA2     CG3C52     OG3C51     CG2R53
  115    86    95    85	 9 ;       HGA2     CG3C52     OG3C51     CG2R53

[ dihedrals ]
;	ai	  aj	ak	  al funct			  c0			c1			  c2			c3
   85    84    94    95	 2

