; Created by cgenff_charmm2gmx.py

[ moleculetype ]
; Name			   nrexcl
PTX				 3

[ atoms ]
;	 nr		  type	resnr residue  atom   cgnr	   charge		mass  typeB    chargeB		massB
; residue	 1 PTX rtp PTX q	qsum
     1      CG301      1    PTL     C1      1      0.400     12.011   ;
     2      CG331      1    PTL     C2      2     -0.269     12.011   ;
     3      CG331      1    PTL     C3      3     -0.269     12.011   ;
     4      CG311      1    PTL     C4      4      0.207     12.011   ;
     5      CG321      1    PTL     C5      5     -0.216     12.011   ;
     6      CG321      1    PTL     C6      6     -0.185     12.011   ;
     7      CG321      1    PTL     C7      7     -0.134     12.011   ;
     8      CG321      1    PTL     C8      8     -0.185     12.011   ;
     9      CG321      1    PTL     C9      9     -0.216     12.011   ;
    10      OG301      1    PTL     O1     10     -0.456     15.999   ;
    11       HGA3      1    PTL     H1     11      0.090      1.008   ;
    12       HGA3      1    PTL     H2     12      0.090      1.008   ;
    13       HGA3      1    PTL     H3     13      0.090      1.008   ;
    14       HGA3      1    PTL     H4     14      0.090      1.008   ;
    15       HGA3      1    PTL     H5     15      0.090      1.008   ;
    16       HGA3      1    PTL     H6     16      0.090      1.008   ;
    17       HGA1      1    PTL     H7     17      0.090      1.008   ;
    18       HGA2      1    PTL     H8     18      0.090      1.008   ;
    19       HGA2      1    PTL     H9     19      0.090      1.008   ;
    20       HGA2      1    PTL    H10     20      0.090      1.008   ;
    21       HGA2      1    PTL    H11     21      0.090      1.008   ;
    22       HGA2      1    PTL    H12     22      0.090      1.008   ;
    23       HGA2      1    PTL    H13     23      0.090      1.008   ;
    24       HGA2      1    PTL    H14     24      0.090      1.008   ;
    25       HGA2      1    PTL    H15     25      0.090      1.008   ;
    26       HGA2      1    PTL    H16     26      0.090      1.008   ;
    27       HGA2      1    PTL    H17     27      0.090      1.008   ;
    28      NG2S1      1    PTX      N     28     -0.404     14.007   ;
    29      CG331      1    PTX    C10     29     -0.311     12.011   ;
    30      CG2O2      1    PTX    C11     30      0.834     12.011   ;
    31      CG311      1    PTX    C12     31      0.432     12.011   ;
    32      CG2O5      1    PTX    C13     32      0.297     12.011   ;
    33      CG301      1    PTX    C14     33      0.081     12.011   ;
    34      CG331      1    PTX    C15     34     -0.263     12.011   ;
    35      CG311      1    PTX    C16     35      0.166     12.011   ;
    36      CG321      1    PTX    C17     36     -0.201     12.011   ;
    37     CG3RC1      1    PTX    C18     37      0.015     12.011   ;
    38     CG3C41      1    PTX    C19     38     -0.106     12.011   ;
    39     CG3RC1      1    PTX    C20     39      0.366     12.011   ;
    40      CG2O2      1    PTX    C21     40      0.885     12.011   ;
    41      CG331      1    PTX    C22     41     -0.313     12.011   ;
    42      CG311      1    PTX    C23     42     -0.074     12.011   ;
    43      CG311      1    PTX    C24     43      0.133     12.011   ;
    44      CG2O2      1    PTX    C25     44      0.459     12.011   ;
    45     CG2R61      1    PTX    C26     45      0.086     12.011   ;
    46     CG2R61      1    PTX    C27     46     -0.110     12.011   ;
    47     CG2R61      1    PTX    C28     47     -0.114     12.011   ;
    48     CG2R61      1    PTX    C29     48     -0.115     12.011   ;
    49     CG2R61      1    PTX    C30     49     -0.114     12.011   ;
    50     CG2R61      1    PTX    C31     50     -0.110     12.011   ;
    51      CG301      1    PTX    C32     51      0.186     12.011   ;
    52      CG321      1    PTX    C33     52     -0.212     12.011   ;
    53      CG311      1    PTX    C34     53      0.272     12.011   ;
    54      CG2O2      1    PTX    C35     54      0.850     12.011   ;
    55      CG311      1    PTX    C36     55      0.183     12.011   ;
    56      CG311      1    PTX    C37     56      0.127     12.011   ;
    57      CG2O1      1    PTX    C38     57      0.341     12.011   ;
    58     CG2R61      1    PTX    C39     58     -0.137     12.011   ;
    59     CG2R61      1    PTX    C40     59     -0.024     12.011   ;
    60     CG2R61      1    PTX    C41     60     -0.109     12.011   ;
    61     CG2R61      1    PTX    C42     61     -0.115     12.011   ;
    62     CG2R61      1    PTX    C43     62     -0.109     12.011   ;
    63     CG2R61      1    PTX    C44     63     -0.024     12.011   ;
    64     CG2R61      1    PTX    C45     64     -0.040     12.011   ;
    65     CG2R61      1    PTX    C46     65     -0.106     12.011   ;
    66     CG2R61      1    PTX    C47     66     -0.115     12.011   ;
    67     CG2R61      1    PTX    C48     67     -0.115     12.011   ;
    68     CG2R61      1    PTX    C49     68     -0.115     12.011   ;
    69     CG2R61      1    PTX    C50     69     -0.106     12.011   ;
    70      CG2D1      1    PTX    C51     70     -0.153     12.011   ;
    71      CG331      1    PTX    C52     71     -0.265     12.011   ;
    72      CG2D1      1    PTX    C53     72     -0.113     12.011   ;
    73      CG301      1    PTX    C54     73      0.016     12.011   ;
    74      CG331      1    PTX    C55     74     -0.269     12.011   ;
    75      CG331      1    PTX    C56     75     -0.269     12.011   ;
    76      OG2D1      1    PTX     O2     76     -0.625     15.999   ;
    77      OG302      1    PTX     O3     77     -0.427     15.999   ;
    78      OG2D3      1    PTX     O4     78     -0.515     15.999   ;
    79      OG311      1    PTX     O5     79     -0.642     15.999   ;
    80     OG3C51      1    PTX     O6     80     -0.343     15.999   ;
    81      OG302      1    PTX     O7     81     -0.422     15.999   ;
    82      OG2D1      1    PTX     O8     82     -0.617     15.999   ;
    83      OG302      1    PTX     O9     83     -0.310     15.999   ;
    84      OG2D1      1    PTX    O10     84     -0.496     15.999   ;
    85      OG311      1    PTX    O11     85     -0.460     15.999   ;
    86      OG302      1    PTX    O12     86     -0.432     15.999   ;
    87      OG2D1      1    PTX    O13     87     -0.623     15.999   ;
    88      OG301      1    PTX    O14     88     -0.506     15.999   ;
    89      OG2D1      1    PTX    O15     89     -0.458     15.999   ;
    90       HGA3      1    PTX    H18     90      0.090      1.008   ;
    91       HGA3      1    PTX    H19     91      0.090      1.008   ;
    92       HGA3      1    PTX    H20     92      0.090      1.008   ;
    93       HGA1      1    PTX    H21     93      0.090      1.008   ;
    94       HGA3      1    PTX    H22     94      0.090      1.008   ;
    95       HGA3      1    PTX    H23     95      0.090      1.008   ;
    96       HGA3      1    PTX    H24     96      0.090      1.008   ;
    97       HGA1      1    PTX    H25     97      0.090      1.008   ;
    98       HGP1      1    PTX    H26     98      0.400      1.008   ;
    99       HGA2      1    PTX    H27     99      0.090      1.008   ;
   100       HGA2      1    PTX    H28    100      0.090      1.008   ;
   101       HGA1      1    PTX    H29    101      0.090      1.008   ;
   102       HGA2      1    PTX    H30    102      0.090      1.008   ;
   103       HGA2      1    PTX    H31    103      0.090      1.008   ;
   104       HGA3      1    PTX    H32    104      0.090      1.008   ;
   105       HGA3      1    PTX    H33    105      0.090      1.008   ;
   106       HGA3      1    PTX    H34    106      0.090      1.008   ;
   107       HGA1      1    PTX    H35    107      0.090      1.008   ;
   108       HGA1      1    PTX    H36    108      0.090      1.008   ;
   109      HGR61      1    PTX    H37    109      0.115      1.008   ;
   110      HGR61      1    PTX    H38    110      0.115      1.008   ;
   111      HGR61      1    PTX    H39    111      0.115      1.008   ;
   112      HGR61      1    PTX    H40    112      0.115      1.008   ;
   113      HGR61      1    PTX    H41    113      0.115      1.008   ;
   114       HGP1      1    PTX    H42    114      0.292      1.008   ;
   115       HGA2      1    PTX    H43    115      0.090      1.008   ;
   116       HGA2      1    PTX    H44    116      0.090      1.008   ;
   117       HGA1      1    PTX    H45    117      0.090      1.008   ;
   118       HGA1      1    PTX    H46    118      0.090      1.008   ;
   119       HGA1      1    PTX    H47    119      0.090      1.008   ;
   120       HGP1      1    PTX    H48    120      0.274      1.008   ;
   121      HGR61      1    PTX    H49    121      0.115      1.008   ;
   122      HGR61      1    PTX    H50    122      0.115      1.008   ;
   123      HGR61      1    PTX    H51    123      0.115      1.008   ;
   124      HGR61      1    PTX    H52    124      0.115      1.008   ;
   125      HGR61      1    PTX    H53    125      0.115      1.008   ;
   126      HGR61      1    PTX    H54    126      0.115      1.008   ;
   127      HGR61      1    PTX    H55    127      0.115      1.008   ;
   128      HGR61      1    PTX    H56    128      0.115      1.008   ;
   129      HGR61      1    PTX    H57    129      0.115      1.008   ;
   130      HGR61      1    PTX    H58    130      0.115      1.008   ;
   131       HGA3      1    PTX    H59    131      0.090      1.008   ;
   132       HGA3      1    PTX    H60    132      0.090      1.008   ;
   133       HGA3      1    PTX    H61    133      0.090      1.008   ;
   134       HGA3      1    PTX    H62    134      0.090      1.008   ;
   135       HGA3      1    PTX    H63    135      0.090      1.008   ;
   136       HGA3      1    PTX    H64    136      0.090      1.008   ;
   137       HGA3      1    PTX    H65    137      0.090      1.008   ;
   138       HGA3      1    PTX    H66    138      0.090      1.008   ;
   139       HGA3      1    PTX    H67    139      0.090      1.008   ;

[ bonds ]
;	ai	  aj funct			  c0			c1			  c2			c3
    1     2	 1 ;       CG301      CG331
    1     3	 1 ;       CG301      CG331
    1    10	 1 ;       CG301      OG301
    1    88	 1 ;       CG301      OG301
    2    11	 1 ;       CG331       HGA3
    2    12	 1 ;       CG331       HGA3
    2    13	 1 ;       CG331       HGA3
    3    14	 1 ;       CG331       HGA3
    3    15	 1 ;       CG331       HGA3
    3    16	 1 ;       CG331       HGA3
    4     5	 1 ;       CG311      CG321
    4     9	 1 ;       CG311      CG321
    4    17	 1 ;       CG311       HGA1
    4    10	 1 ;       CG311      OG301
    5     6	 1 ;       CG321      CG321
    5    18	 1 ;       CG321       HGA2
    5    19	 1 ;       CG321       HGA2
    6     7	 1 ;       CG321      CG321
    6    20	 1 ;       CG321       HGA2
    6    21	 1 ;       CG321       HGA2
    7     8	 1 ;       CG321      CG321
    7    22	 1 ;       CG321       HGA2
    7    23	 1 ;       CG321       HGA2
    8     9	 1 ;       CG321      CG321
    8    24	 1 ;       CG321       HGA2
    8    25	 1 ;       CG321       HGA2
    9    26	 1 ;       CG321       HGA2
    9    27	 1 ;       CG321       HGA2
   28    57	 1 ;       NG2S1      CG2O1
   28   120	 1 ;       NG2S1       HGP1
   28    56	 1 ;       NG2S1      CG311
   29    30	 1 ;       CG331      CG2O2
   29    90	 1 ;       CG331       HGA3
   29    91	 1 ;       CG331       HGA3
   29    92	 1 ;       CG331       HGA3
   30    76	 1 ;       CG2O2      OG2D1
   30    77	 1 ;       CG2O2      OG302
   31    32	 1 ;       CG311      CG2O5
   31    72	 1 ;       CG311      CG2D1
   31    93	 1 ;       CG311       HGA1
   31    77	 1 ;       CG311      OG302
   32    33	 1 ;       CG2O5      CG301
   32    78	 1 ;       CG2O5      OG2D3
   33    34	 1 ;       CG301      CG331
   33    35	 1 ;       CG301      CG311
   33    42	 1 ;       CG301      CG311
   34    94	 1 ;       CG331       HGA3
   34    95	 1 ;       CG331       HGA3
   34    96	 1 ;       CG331       HGA3
   35    36	 1 ;       CG311      CG321
   35    79	 1 ;       CG311      OG311
   35    97	 1 ;       CG311       HGA1
   36    37	 1 ;       CG321     CG3RC1
   36    99	 1 ;       CG321       HGA2
   36   100	 1 ;       CG321       HGA2
   37    39	 1 ;      CG3RC1     CG3RC1
   37    80	 1 ;      CG3RC1     OG3C51
   37   101	 1 ;      CG3RC1       HGA1
   38    39	 1 ;      CG3C41     CG3RC1
   38   102	 1 ;      CG3C41       HGA2
   38   103	 1 ;      CG3C41       HGA2
   38    80	 1 ;      CG3C41     OG3C51
   39    42	 1 ;      CG3RC1      CG311
   39    81	 1 ;      CG3RC1      OG302
   40    41	 1 ;       CG2O2      CG331
   40    82	 1 ;       CG2O2      OG2D1
   40    81	 1 ;       CG2O2      OG302
   41   104	 1 ;       CG331       HGA3
   41   105	 1 ;       CG331       HGA3
   41   106	 1 ;       CG331       HGA3
   42    43	 1 ;       CG311      CG311
   42   107	 1 ;       CG311       HGA1
   43    51	 1 ;       CG311      CG301
   43    83	 1 ;       CG311      OG302
   43   108	 1 ;       CG311       HGA1
   44    45	 1 ;       CG2O2     CG2R61
   44    84	 1 ;       CG2O2      OG2D1
   44    83	 1 ;       CG2O2      OG302
   45    46	 1 ;      CG2R61     CG2R61
   45    50	 1 ;      CG2R61     CG2R61
   46    47	 1 ;      CG2R61     CG2R61
   46   109	 1 ;      CG2R61      HGR61
   47    48	 1 ;      CG2R61     CG2R61
   47   110	 1 ;      CG2R61      HGR61
   48    49	 1 ;      CG2R61     CG2R61
   48   111	 1 ;      CG2R61      HGR61
   49    50	 1 ;      CG2R61     CG2R61
   49   112	 1 ;      CG2R61      HGR61
   50   113	 1 ;      CG2R61      HGR61
   51    52	 1 ;       CG301      CG321
   51    73	 1 ;       CG301      CG301
   51    85	 1 ;       CG301      OG311
   52    53	 1 ;       CG321      CG311
   52   115	 1 ;       CG321       HGA2
   52   116	 1 ;       CG321       HGA2
   53    70	 1 ;       CG311      CG2D1
   53    86	 1 ;       CG311      OG302
   53   117	 1 ;       CG311       HGA1
   54    55	 1 ;       CG2O2      CG311
   54    87	 1 ;       CG2O2      OG2D1
   54    86	 1 ;       CG2O2      OG302
   55    56	 1 ;       CG311      CG311
   55    88	 1 ;       CG311      OG301
   55   118	 1 ;       CG311       HGA1
   56    64	 1 ;       CG311     CG2R61
   56   119	 1 ;       CG311       HGA1
   57    58	 1 ;       CG2O1     CG2R61
   57    89	 1 ;       CG2O1      OG2D1
   58    59	 1 ;      CG2R61     CG2R61
   58    63	 1 ;      CG2R61     CG2R61
   59    60	 1 ;      CG2R61     CG2R61
   59   121	 1 ;      CG2R61      HGR61
   60    61	 1 ;      CG2R61     CG2R61
   60   122	 1 ;      CG2R61      HGR61
   61    62	 1 ;      CG2R61     CG2R61
   61   123	 1 ;      CG2R61      HGR61
   62    63	 1 ;      CG2R61     CG2R61
   62   124	 1 ;      CG2R61      HGR61
   63   125	 1 ;      CG2R61      HGR61
   64    65	 1 ;      CG2R61     CG2R61
   64    69	 1 ;      CG2R61     CG2R61
   65    66	 1 ;      CG2R61     CG2R61
   65   126	 1 ;      CG2R61      HGR61
   66    67	 1 ;      CG2R61     CG2R61
   66   127	 1 ;      CG2R61      HGR61
   67    68	 1 ;      CG2R61     CG2R61
   67   128	 1 ;      CG2R61      HGR61
   68    69	 1 ;      CG2R61     CG2R61
   68   129	 1 ;      CG2R61      HGR61
   69   130	 1 ;      CG2R61      HGR61
   70    71	 1 ;       CG2D1      CG331
   70    72	 1 ;       CG2D1      CG2D1
   71   131	 1 ;       CG331       HGA3
   71   132	 1 ;       CG331       HGA3
   71   133	 1 ;       CG331       HGA3
   72    73	 1 ;       CG2D1      CG301
   73    74	 1 ;       CG301      CG331
   73    75	 1 ;       CG301      CG331
   74   134	 1 ;       CG331       HGA3
   74   135	 1 ;       CG331       HGA3
   74   136	 1 ;       CG331       HGA3
   75   137	 1 ;       CG331       HGA3
   75   138	 1 ;       CG331       HGA3
   75   139	 1 ;       CG331       HGA3
   79    98	 1 ;       OG311       HGP1
   85   114	 1 ;       OG311       HGP1

[ pairs ]
;	ai	  aj funct			  c0			c1			  c2			c3
    1     5	 1
    1     9	 1
    1    17	 1
    1    54	 1
    1    56	 1
    1   118	 1
    2    14	 1
    2    15	 1
    2    16	 1
    2     4	 1
    2    55	 1
    3    11	 1
    3    12	 1
    3    13	 1
    3     4	 1
    3    55	 1
    4    88	 1
    4     7	 1
    4    20	 1
    4    21	 1
    4    24	 1
    4    25	 1
    5     8	 1
    5    26	 1
    5    27	 1
    5    22	 1
    5    23	 1
    6     9	 1
    6    17	 1
    6    10	 1
    6    24	 1
    6    25	 1
    7    18	 1
    7    19	 1
    7    26	 1
    7    27	 1
    8    17	 1
    8    10	 1
    8    20	 1
    8    21	 1
    9    18	 1
    9    19	 1
    9    22	 1
    9    23	 1
   10    11	 1
   10    12	 1
   10    13	 1
   10    14	 1
   10    15	 1
   10    16	 1
   10    55	 1
   10    18	 1
   10    19	 1
   10    26	 1
   10    27	 1
   11    88	 1
   12    88	 1
   13    88	 1
   14    88	 1
   15    88	 1
   16    88	 1
   17    18	 1
   17    19	 1
   17    26	 1
   17    27	 1
   18    20	 1
   18    21	 1
   19    20	 1
   19    21	 1
   20    22	 1
   20    23	 1
   21    22	 1
   21    23	 1
   22    24	 1
   22    25	 1
   23    24	 1
   23    25	 1
   24    26	 1
   24    27	 1
   25    26	 1
   25    27	 1
   28    54	 1
   28    88	 1
   28   118	 1
   28    65	 1
   28    69	 1
   28    59	 1
   28    63	 1
   29    31	 1
   30    32	 1
   30    72	 1
   30    93	 1
   31    76	 1
   31    34	 1
   31    35	 1
   31    42	 1
   31    53	 1
   31    71	 1
   31    51	 1
   31    74	 1
   31    75	 1
   32    70	 1
   32    73	 1
   32    94	 1
   32    95	 1
   32    96	 1
   32    36	 1
   32    79	 1
   32    97	 1
   32    39	 1
   32    43	 1
   32   107	 1
   33    72	 1
   33    93	 1
   33    77	 1
   33    37	 1
   33    99	 1
   33   100	 1
   33    98	 1
   33    38	 1
   33    81	 1
   33    51	 1
   33    83	 1
   33   108	 1
   34    78	 1
   34    36	 1
   34    79	 1
   34    97	 1
   34    39	 1
   34    43	 1
   34   107	 1
   35    78	 1
   35    94	 1
   35    95	 1
   35    96	 1
   35    39	 1
   35    43	 1
   35   107	 1
   35    80	 1
   35   101	 1
   36    42	 1
   36    98	 1
   36    38	 1
   36    81	 1
   37    79	 1
   37    97	 1
   37   102	 1
   37   103	 1
   37    43	 1
   37   107	 1
   37    40	 1
   38   101	 1
   38    43	 1
   38   107	 1
   38    40	 1
   39    99	 1
   39   100	 1
   39    41	 1
   39    82	 1
   39    51	 1
   39    83	 1
   39   108	 1
   40    42	 1
   42    78	 1
   42    94	 1
   42    95	 1
   42    96	 1
   42    79	 1
   42    97	 1
   42    80	 1
   42   101	 1
   42   102	 1
   42   103	 1
   42    52	 1
   42    73	 1
   42    85	 1
   42    44	 1
   43    81	 1
   43    45	 1
   43    84	 1
   43    53	 1
   43   115	 1
   43   116	 1
   43    72	 1
   43    74	 1
   43    75	 1
   43   114	 1
   44    51	 1
   44   108	 1
   44    47	 1
   44   109	 1
   44    49	 1
   44   113	 1
   45    48	 1
   45   110	 1
   45   112	 1
   46    84	 1
   46    83	 1
   46    49	 1
   46   113	 1
   46   111	 1
   47    50	 1
   47   112	 1
   48   109	 1
   48   113	 1
   49   110	 1
   50    84	 1
   50    83	 1
   50   109	 1
   50   111	 1
   51   107	 1
   51    70	 1
   51    86	 1
   51   117	 1
   51   134	 1
   51   135	 1
   51   136	 1
   51   137	 1
   51   138	 1
   51   139	 1
   52    83	 1
   52   108	 1
   52    72	 1
   52    74	 1
   52    75	 1
   52   114	 1
   52    71	 1
   52    54	 1
   53    73	 1
   53    85	 1
   53    55	 1
   53    87	 1
   53   131	 1
   53   132	 1
   53   133	 1
   54    70	 1
   54   117	 1
   54    64	 1
   54   119	 1
   55    57	 1
   55   120	 1
   55    65	 1
   55    69	 1
   56    58	 1
   56    89	 1
   56    87	 1
   56    86	 1
   56    66	 1
   56   126	 1
   56    68	 1
   56   130	 1
   57    64	 1
   57   119	 1
   57    60	 1
   57   121	 1
   57    62	 1
   57   125	 1
   58   120	 1
   58    61	 1
   58   122	 1
   58   124	 1
   59    89	 1
   59    62	 1
   59   125	 1
   59   123	 1
   60    63	 1
   60   124	 1
   61   121	 1
   61   125	 1
   62   122	 1
   63    89	 1
   63   121	 1
   63   123	 1
   64   120	 1
   64    88	 1
   64   118	 1
   64    67	 1
   64   127	 1
   64   129	 1
   65   119	 1
   65    68	 1
   65   130	 1
   65   128	 1
   66    69	 1
   66   129	 1
   67   126	 1
   67   130	 1
   68   127	 1
   69   119	 1
   69   126	 1
   69   128	 1
   70    93	 1
   70    77	 1
   70   115	 1
   70   116	 1
   70    74	 1
   70    75	 1
   71    86	 1
   71   117	 1
   71    73	 1
   72    78	 1
   72    85	 1
   72    86	 1
   72   117	 1
   72   131	 1
   72   132	 1
   72   133	 1
   72   134	 1
   72   135	 1
   72   136	 1
   72   137	 1
   72   138	 1
   72   139	 1
   73    93	 1
   73    77	 1
   73    83	 1
   73   108	 1
   73   115	 1
   73   116	 1
   73   114	 1
   74    85	 1
   74   137	 1
   74   138	 1
   74   139	 1
   75    85	 1
   75   134	 1
   75   135	 1
   75   136	 1
   76    90	 1
   76    91	 1
   76    92	 1
   77    90	 1
   77    91	 1
   77    92	 1
   77    78	 1
   78    93	 1
   79    99	 1
   79   100	 1
   80    99	 1
   80   100	 1
   80    81	 1
   81   101	 1
   81   102	 1
   81   103	 1
   81   107	 1
   81   104	 1
   81   105	 1
   81   106	 1
   82   104	 1
   82   105	 1
   82   106	 1
   83   107	 1
   83    85	 1
   85   108	 1
   85   115	 1
   85   116	 1
   86   115	 1
   86   116	 1
   86    88	 1
   86   118	 1
   87    88	 1
   87   118	 1
   88   119	 1
   89   120	 1
   97    99	 1
   97   100	 1
   97    98	 1
   99   101	 1
  100   101	 1
  107   108	 1
  109   110	 1
  110   111	 1
  111   112	 1
  112   113	 1
  115   117	 1
  116   117	 1
  118   119	 1
  119   120	 1
  121   122	 1
  122   123	 1
  123   124	 1
  124   125	 1
  126   127	 1
  127   128	 1
  128   129	 1
  129   130	 1

[ angles ]
;	ai	  aj	ak funct			c0			  c1			c2			  c3
    2     1     3	5 ;      CG331      CG301      CG331
    2     1    10	5 ;      CG331      CG301      OG301
    2     1    88	5 ;      CG331      CG301      OG301
    3     1    10	5 ;      CG331      CG301      OG301
    3     1    88	5 ;      CG331      CG301      OG301
   10     1    88	5 ;      OG301      CG301      OG301
    1     2    11	5 ;      CG301      CG331       HGA3
    1     2    12	5 ;      CG301      CG331       HGA3
    1     2    13	5 ;      CG301      CG331       HGA3
   11     2    12	5 ;       HGA3      CG331       HGA3
   11     2    13	5 ;       HGA3      CG331       HGA3
   12     2    13	5 ;       HGA3      CG331       HGA3
    1     3    14	5 ;      CG301      CG331       HGA3
    1     3    15	5 ;      CG301      CG331       HGA3
    1     3    16	5 ;      CG301      CG331       HGA3
   14     3    15	5 ;       HGA3      CG331       HGA3
   14     3    16	5 ;       HGA3      CG331       HGA3
   15     3    16	5 ;       HGA3      CG331       HGA3
    5     4     9	5 ;      CG321      CG311      CG321
    5     4    17	5 ;      CG321      CG311       HGA1
    5     4    10	5 ;      CG321      CG311      OG301
    9     4    17	5 ;      CG321      CG311       HGA1
    9     4    10	5 ;      CG321      CG311      OG301
   17     4    10	5 ;       HGA1      CG311      OG301
    4     5     6	5 ;      CG311      CG321      CG321
    4     5    18	5 ;      CG311      CG321       HGA2
    4     5    19	5 ;      CG311      CG321       HGA2
    6     5    18	5 ;      CG321      CG321       HGA2
    6     5    19	5 ;      CG321      CG321       HGA2
   18     5    19	5 ;       HGA2      CG321       HGA2
    5     6     7	5 ;      CG321      CG321      CG321
    5     6    20	5 ;      CG321      CG321       HGA2
    5     6    21	5 ;      CG321      CG321       HGA2
    7     6    20	5 ;      CG321      CG321       HGA2
    7     6    21	5 ;      CG321      CG321       HGA2
   20     6    21	5 ;       HGA2      CG321       HGA2
    6     7     8	5 ;      CG321      CG321      CG321
    6     7    22	5 ;      CG321      CG321       HGA2
    6     7    23	5 ;      CG321      CG321       HGA2
    8     7    22	5 ;      CG321      CG321       HGA2
    8     7    23	5 ;      CG321      CG321       HGA2
   22     7    23	5 ;       HGA2      CG321       HGA2
    7     8     9	5 ;      CG321      CG321      CG321
    7     8    24	5 ;      CG321      CG321       HGA2
    7     8    25	5 ;      CG321      CG321       HGA2
    9     8    24	5 ;      CG321      CG321       HGA2
    9     8    25	5 ;      CG321      CG321       HGA2
   24     8    25	5 ;       HGA2      CG321       HGA2
    4     9     8	5 ;      CG311      CG321      CG321
    4     9    26	5 ;      CG311      CG321       HGA2
    4     9    27	5 ;      CG311      CG321       HGA2
    8     9    26	5 ;      CG321      CG321       HGA2
    8     9    27	5 ;      CG321      CG321       HGA2
   26     9    27	5 ;       HGA2      CG321       HGA2
    1    10     4	5 ;      CG301      OG301      CG311
   57    28   120	5 ;      CG2O1      NG2S1       HGP1
   57    28    56	5 ;      CG2O1      NG2S1      CG311
  120    28    56	5 ;       HGP1      NG2S1      CG311
   30    29    90	5 ;      CG2O2      CG331       HGA3
   30    29    91	5 ;      CG2O2      CG331       HGA3
   30    29    92	5 ;      CG2O2      CG331       HGA3
   90    29    91	5 ;       HGA3      CG331       HGA3
   90    29    92	5 ;       HGA3      CG331       HGA3
   91    29    92	5 ;       HGA3      CG331       HGA3
   29    30    76	5 ;      CG331      CG2O2      OG2D1
   29    30    77	5 ;      CG331      CG2O2      OG302
   76    30    77	5 ;      OG2D1      CG2O2      OG302
   32    31    72	5 ;      CG2O5      CG311      CG2D1
   32    31    93	5 ;      CG2O5      CG311       HGA1
   32    31    77	5 ;      CG2O5      CG311      OG302
   72    31    93	5 ;      CG2D1      CG311       HGA1
   72    31    77	5 ;      CG2D1      CG311      OG302
   93    31    77	5 ;       HGA1      CG311      OG302
   31    32    33	5 ;      CG311      CG2O5      CG301
   31    32    78	5 ;      CG311      CG2O5      OG2D3
   33    32    78	5 ;      CG301      CG2O5      OG2D3
   32    33    34	5 ;      CG2O5      CG301      CG331
   32    33    35	5 ;      CG2O5      CG301      CG311
   32    33    42	5 ;      CG2O5      CG301      CG311
   34    33    35	5 ;      CG331      CG301      CG311
   34    33    42	5 ;      CG331      CG301      CG311
   35    33    42	5 ;      CG311      CG301      CG311
   33    34    94	5 ;      CG301      CG331       HGA3
   33    34    95	5 ;      CG301      CG331       HGA3
   33    34    96	5 ;      CG301      CG331       HGA3
   94    34    95	5 ;       HGA3      CG331       HGA3
   94    34    96	5 ;       HGA3      CG331       HGA3
   95    34    96	5 ;       HGA3      CG331       HGA3
   33    35    36	5 ;      CG301      CG311      CG321
   33    35    79	5 ;      CG301      CG311      OG311
   33    35    97	5 ;      CG301      CG311       HGA1
   36    35    79	5 ;      CG321      CG311      OG311
   36    35    97	5 ;      CG321      CG311       HGA1
   79    35    97	5 ;      OG311      CG311       HGA1
   35    36    37	5 ;      CG311      CG321     CG3RC1
   35    36    99	5 ;      CG311      CG321       HGA2
   35    36   100	5 ;      CG311      CG321       HGA2
   37    36    99	5 ;     CG3RC1      CG321       HGA2
   37    36   100	5 ;     CG3RC1      CG321       HGA2
   99    36   100	5 ;       HGA2      CG321       HGA2
   36    37    39	5 ;      CG321     CG3RC1     CG3RC1
   36    37    80	5 ;      CG321     CG3RC1     OG3C51
   36    37   101	5 ;      CG321     CG3RC1       HGA1
   39    37    80	5 ;     CG3RC1     CG3RC1     OG3C51
   39    37   101	5 ;     CG3RC1     CG3RC1       HGA1
   80    37   101	5 ;     OG3C51     CG3RC1       HGA1
   39    38   102	5 ;     CG3RC1     CG3C41       HGA2
   39    38   103	5 ;     CG3RC1     CG3C41       HGA2
   39    38    80	5 ;     CG3RC1     CG3C41     OG3C51
  102    38   103	5 ;       HGA2     CG3C41       HGA2
  102    38    80	5 ;       HGA2     CG3C41     OG3C51
  103    38    80	5 ;       HGA2     CG3C41     OG3C51
   37    39    38	5 ;     CG3RC1     CG3RC1     CG3C41
   37    39    42	5 ;     CG3RC1     CG3RC1      CG311
   37    39    81	5 ;     CG3RC1     CG3RC1      OG302
   38    39    42	5 ;     CG3C41     CG3RC1      CG311
   38    39    81	5 ;     CG3C41     CG3RC1      OG302
   42    39    81	5 ;      CG311     CG3RC1      OG302
   41    40    82	5 ;      CG331      CG2O2      OG2D1
   41    40    81	5 ;      CG331      CG2O2      OG302
   82    40    81	5 ;      OG2D1      CG2O2      OG302
   40    41   104	5 ;      CG2O2      CG331       HGA3
   40    41   105	5 ;      CG2O2      CG331       HGA3
   40    41   106	5 ;      CG2O2      CG331       HGA3
  104    41   105	5 ;       HGA3      CG331       HGA3
  104    41   106	5 ;       HGA3      CG331       HGA3
  105    41   106	5 ;       HGA3      CG331       HGA3
   33    42    39	5 ;      CG301      CG311     CG3RC1
   33    42    43	5 ;      CG301      CG311      CG311
   33    42   107	5 ;      CG301      CG311       HGA1
   39    42    43	5 ;     CG3RC1      CG311      CG311
   39    42   107	5 ;     CG3RC1      CG311       HGA1
   43    42   107	5 ;      CG311      CG311       HGA1
   42    43    51	5 ;      CG311      CG311      CG301
   42    43    83	5 ;      CG311      CG311      OG302
   42    43   108	5 ;      CG311      CG311       HGA1
   51    43    83	5 ;      CG301      CG311      OG302
   51    43   108	5 ;      CG301      CG311       HGA1
   83    43   108	5 ;      OG302      CG311       HGA1
   45    44    84	5 ;     CG2R61      CG2O2      OG2D1
   45    44    83	5 ;     CG2R61      CG2O2      OG302
   84    44    83	5 ;      OG2D1      CG2O2      OG302
   44    45    46	5 ;      CG2O2     CG2R61     CG2R61
   44    45    50	5 ;      CG2O2     CG2R61     CG2R61
   46    45    50	5 ;     CG2R61     CG2R61     CG2R61
   45    46    47	5 ;     CG2R61     CG2R61     CG2R61
   45    46   109	5 ;     CG2R61     CG2R61      HGR61
   47    46   109	5 ;     CG2R61     CG2R61      HGR61
   46    47    48	5 ;     CG2R61     CG2R61     CG2R61
   46    47   110	5 ;     CG2R61     CG2R61      HGR61
   48    47   110	5 ;     CG2R61     CG2R61      HGR61
   47    48    49	5 ;     CG2R61     CG2R61     CG2R61
   47    48   111	5 ;     CG2R61     CG2R61      HGR61
   49    48   111	5 ;     CG2R61     CG2R61      HGR61
   48    49    50	5 ;     CG2R61     CG2R61     CG2R61
   48    49   112	5 ;     CG2R61     CG2R61      HGR61
   50    49   112	5 ;     CG2R61     CG2R61      HGR61
   45    50    49	5 ;     CG2R61     CG2R61     CG2R61
   45    50   113	5 ;     CG2R61     CG2R61      HGR61
   49    50   113	5 ;     CG2R61     CG2R61      HGR61
   43    51    52	5 ;      CG311      CG301      CG321
   43    51    73	5 ;      CG311      CG301      CG301
   43    51    85	5 ;      CG311      CG301      OG311
   52    51    73	5 ;      CG321      CG301      CG301
   52    51    85	5 ;      CG321      CG301      OG311
   73    51    85	5 ;      CG301      CG301      OG311
   51    52    53	5 ;      CG301      CG321      CG311
   51    52   115	5 ;      CG301      CG321       HGA2
   51    52   116	5 ;      CG301      CG321       HGA2
   53    52   115	5 ;      CG311      CG321       HGA2
   53    52   116	5 ;      CG311      CG321       HGA2
  115    52   116	5 ;       HGA2      CG321       HGA2
   52    53    70	5 ;      CG321      CG311      CG2D1
   52    53    86	5 ;      CG321      CG311      OG302
   52    53   117	5 ;      CG321      CG311       HGA1
   70    53    86	5 ;      CG2D1      CG311      OG302
   70    53   117	5 ;      CG2D1      CG311       HGA1
   86    53   117	5 ;      OG302      CG311       HGA1
   55    54    87	5 ;      CG311      CG2O2      OG2D1
   55    54    86	5 ;      CG311      CG2O2      OG302
   87    54    86	5 ;      OG2D1      CG2O2      OG302
   54    55    56	5 ;      CG2O2      CG311      CG311
   54    55    88	5 ;      CG2O2      CG311      OG301
   54    55   118	5 ;      CG2O2      CG311       HGA1
   56    55    88	5 ;      CG311      CG311      OG301
   56    55   118	5 ;      CG311      CG311       HGA1
   88    55   118	5 ;      OG301      CG311       HGA1
   55    56    28	5 ;      CG311      CG311      NG2S1
   55    56    64	5 ;      CG311      CG311     CG2R61
   55    56   119	5 ;      CG311      CG311       HGA1
   28    56    64	5 ;      NG2S1      CG311     CG2R61
   28    56   119	5 ;      NG2S1      CG311       HGA1
   64    56   119	5 ;     CG2R61      CG311       HGA1
   28    57    58	5 ;      NG2S1      CG2O1     CG2R61
   28    57    89	5 ;      NG2S1      CG2O1      OG2D1
   58    57    89	5 ;     CG2R61      CG2O1      OG2D1
   57    58    59	5 ;      CG2O1     CG2R61     CG2R61
   57    58    63	5 ;      CG2O1     CG2R61     CG2R61
   59    58    63	5 ;     CG2R61     CG2R61     CG2R61
   58    59    60	5 ;     CG2R61     CG2R61     CG2R61
   58    59   121	5 ;     CG2R61     CG2R61      HGR61
   60    59   121	5 ;     CG2R61     CG2R61      HGR61
   59    60    61	5 ;     CG2R61     CG2R61     CG2R61
   59    60   122	5 ;     CG2R61     CG2R61      HGR61
   61    60   122	5 ;     CG2R61     CG2R61      HGR61
   60    61    62	5 ;     CG2R61     CG2R61     CG2R61
   60    61   123	5 ;     CG2R61     CG2R61      HGR61
   62    61   123	5 ;     CG2R61     CG2R61      HGR61
   61    62    63	5 ;     CG2R61     CG2R61     CG2R61
   61    62   124	5 ;     CG2R61     CG2R61      HGR61
   63    62   124	5 ;     CG2R61     CG2R61      HGR61
   58    63    62	5 ;     CG2R61     CG2R61     CG2R61
   58    63   125	5 ;     CG2R61     CG2R61      HGR61
   62    63   125	5 ;     CG2R61     CG2R61      HGR61
   56    64    65	5 ;      CG311     CG2R61     CG2R61
   56    64    69	5 ;      CG311     CG2R61     CG2R61
   65    64    69	5 ;     CG2R61     CG2R61     CG2R61
   64    65    66	5 ;     CG2R61     CG2R61     CG2R61
   64    65   126	5 ;     CG2R61     CG2R61      HGR61
   66    65   126	5 ;     CG2R61     CG2R61      HGR61
   65    66    67	5 ;     CG2R61     CG2R61     CG2R61
   65    66   127	5 ;     CG2R61     CG2R61      HGR61
   67    66   127	5 ;     CG2R61     CG2R61      HGR61
   66    67    68	5 ;     CG2R61     CG2R61     CG2R61
   66    67   128	5 ;     CG2R61     CG2R61      HGR61
   68    67   128	5 ;     CG2R61     CG2R61      HGR61
   67    68    69	5 ;     CG2R61     CG2R61     CG2R61
   67    68   129	5 ;     CG2R61     CG2R61      HGR61
   69    68   129	5 ;     CG2R61     CG2R61      HGR61
   64    69    68	5 ;     CG2R61     CG2R61     CG2R61
   64    69   130	5 ;     CG2R61     CG2R61      HGR61
   68    69   130	5 ;     CG2R61     CG2R61      HGR61
   53    70    71	5 ;      CG311      CG2D1      CG331
   53    70    72	5 ;      CG311      CG2D1      CG2D1
   71    70    72	5 ;      CG331      CG2D1      CG2D1
   70    71   131	5 ;      CG2D1      CG331       HGA3
   70    71   132	5 ;      CG2D1      CG331       HGA3
   70    71   133	5 ;      CG2D1      CG331       HGA3
  131    71   132	5 ;       HGA3      CG331       HGA3
  131    71   133	5 ;       HGA3      CG331       HGA3
  132    71   133	5 ;       HGA3      CG331       HGA3
   31    72    70	5 ;      CG311      CG2D1      CG2D1
   31    72    73	5 ;      CG311      CG2D1      CG301
   70    72    73	5 ;      CG2D1      CG2D1      CG301
   51    73    72	5 ;      CG301      CG301      CG2D1
   51    73    74	5 ;      CG301      CG301      CG331
   51    73    75	5 ;      CG301      CG301      CG331
   72    73    74	5 ;      CG2D1      CG301      CG331
   72    73    75	5 ;      CG2D1      CG301      CG331
   74    73    75	5 ;      CG331      CG301      CG331
   73    74   134	5 ;      CG301      CG331       HGA3
   73    74   135	5 ;      CG301      CG331       HGA3
   73    74   136	5 ;      CG301      CG331       HGA3
  134    74   135	5 ;       HGA3      CG331       HGA3
  134    74   136	5 ;       HGA3      CG331       HGA3
  135    74   136	5 ;       HGA3      CG331       HGA3
   73    75   137	5 ;      CG301      CG331       HGA3
   73    75   138	5 ;      CG301      CG331       HGA3
   73    75   139	5 ;      CG301      CG331       HGA3
  137    75   138	5 ;       HGA3      CG331       HGA3
  137    75   139	5 ;       HGA3      CG331       HGA3
  138    75   139	5 ;       HGA3      CG331       HGA3
   30    77    31	5 ;      CG2O2      OG302      CG311
   35    79    98	5 ;      CG311      OG311       HGP1
   37    80    38	5 ;     CG3RC1     OG3C51     CG3C41
   39    81    40	5 ;     CG3RC1      OG302      CG2O2
   43    83    44	5 ;      CG311      OG302      CG2O2
   51    85   114	5 ;      CG301      OG311       HGP1
   53    86    54	5 ;      CG311      OG302      CG2O2
   55    88     1	5 ;      CG311      OG301      CG301

[ dihedrals ]
;	ai	  aj	ak	  al funct			  c0			c1			  c2			c3			  c4			c5
    3     1     2    11	 9 ;      CG331      CG301      CG331       HGA3
    3     1     2    12	 9 ;      CG331      CG301      CG331       HGA3
    3     1     2    13	 9 ;      CG331      CG301      CG331       HGA3
   10     1     2    11	 9 ;      OG301      CG301      CG331       HGA3
   10     1     2    12	 9 ;      OG301      CG301      CG331       HGA3
   10     1     2    13	 9 ;      OG301      CG301      CG331       HGA3
   88     1     2    11	 9 ;      OG301      CG301      CG331       HGA3
   88     1     2    12	 9 ;      OG301      CG301      CG331       HGA3
   88     1     2    13	 9 ;      OG301      CG301      CG331       HGA3
    2     1     3    14	 9 ;      CG331      CG301      CG331       HGA3
    2     1     3    15	 9 ;      CG331      CG301      CG331       HGA3
    2     1     3    16	 9 ;      CG331      CG301      CG331       HGA3
   10     1     3    14	 9 ;      OG301      CG301      CG331       HGA3
   10     1     3    15	 9 ;      OG301      CG301      CG331       HGA3
   10     1     3    16	 9 ;      OG301      CG301      CG331       HGA3
   88     1     3    14	 9 ;      OG301      CG301      CG331       HGA3
   88     1     3    15	 9 ;      OG301      CG301      CG331       HGA3
   88     1     3    16	 9 ;      OG301      CG301      CG331       HGA3
    2     1    10     4	 9 ;      CG331      CG301      OG301      CG311
    3     1    10     4	 9 ;      CG331      CG301      OG301      CG311
   88     1    10     4	 9 ;      OG301      CG301      OG301      CG311
    2     1    88    55	 9 ;      CG331      CG301      OG301      CG311
    3     1    88    55	 9 ;      CG331      CG301      OG301      CG311
   10     1    88    55	 9 ;      OG301      CG301      OG301      CG311
    9     4     5     6	 9 ;      CG321      CG311      CG321      CG321
    9     4     5    18	 9 ;      CG321      CG311      CG321       HGA2
    9     4     5    19	 9 ;      CG321      CG311      CG321       HGA2
   17     4     5     6	 9 ;       HGA1      CG311      CG321      CG321
   17     4     5    18	 9 ;       HGA1      CG311      CG321       HGA2
   17     4     5    19	 9 ;       HGA1      CG311      CG321       HGA2
   10     4     5     6	 9 ;      OG301      CG311      CG321      CG321
   10     4     5    18	 9 ;      OG301      CG311      CG321       HGA2
   10     4     5    19	 9 ;      OG301      CG311      CG321       HGA2
    5     4     9     8	 9 ;      CG321      CG311      CG321      CG321
    5     4     9    26	 9 ;      CG321      CG311      CG321       HGA2
    5     4     9    27	 9 ;      CG321      CG311      CG321       HGA2
   17     4     9     8	 9 ;       HGA1      CG311      CG321      CG321
   17     4     9    26	 9 ;       HGA1      CG311      CG321       HGA2
   17     4     9    27	 9 ;       HGA1      CG311      CG321       HGA2
   10     4     9     8	 9 ;      OG301      CG311      CG321      CG321
   10     4     9    26	 9 ;      OG301      CG311      CG321       HGA2
   10     4     9    27	 9 ;      OG301      CG311      CG321       HGA2
    5     4    10     1	 9 ;      CG321      CG311      OG301      CG301
    9     4    10     1	 9 ;      CG321      CG311      OG301      CG301
   17     4    10     1	 9 ;       HGA1      CG311      OG301      CG301
    4     5     6     7	 9 ;      CG311      CG321      CG321      CG321
    4     5     6    20	 9 ;      CG311      CG321      CG321       HGA2
    4     5     6    21	 9 ;      CG311      CG321      CG321       HGA2
   18     5     6     7	 9 ;       HGA2      CG321      CG321      CG321
   18     5     6    20	 9 ;       HGA2      CG321      CG321       HGA2
   18     5     6    21	 9 ;       HGA2      CG321      CG321       HGA2
   19     5     6     7	 9 ;       HGA2      CG321      CG321      CG321
   19     5     6    20	 9 ;       HGA2      CG321      CG321       HGA2
   19     5     6    21	 9 ;       HGA2      CG321      CG321       HGA2
    5     6     7     8	 9 ;      CG321      CG321      CG321      CG321
    5     6     7    22	 9 ;      CG321      CG321      CG321       HGA2
    5     6     7    23	 9 ;      CG321      CG321      CG321       HGA2
   20     6     7     8	 9 ;       HGA2      CG321      CG321      CG321
   20     6     7    22	 9 ;       HGA2      CG321      CG321       HGA2
   20     6     7    23	 9 ;       HGA2      CG321      CG321       HGA2
   21     6     7     8	 9 ;       HGA2      CG321      CG321      CG321
   21     6     7    22	 9 ;       HGA2      CG321      CG321       HGA2
   21     6     7    23	 9 ;       HGA2      CG321      CG321       HGA2
    6     7     8     9	 9 ;      CG321      CG321      CG321      CG321
    6     7     8    24	 9 ;      CG321      CG321      CG321       HGA2
    6     7     8    25	 9 ;      CG321      CG321      CG321       HGA2
   22     7     8     9	 9 ;       HGA2      CG321      CG321      CG321
   22     7     8    24	 9 ;       HGA2      CG321      CG321       HGA2
   22     7     8    25	 9 ;       HGA2      CG321      CG321       HGA2
   23     7     8     9	 9 ;       HGA2      CG321      CG321      CG321
   23     7     8    24	 9 ;       HGA2      CG321      CG321       HGA2
   23     7     8    25	 9 ;       HGA2      CG321      CG321       HGA2
    7     8     9     4	 9 ;      CG321      CG321      CG321      CG311
    7     8     9    26	 9 ;      CG321      CG321      CG321       HGA2
    7     8     9    27	 9 ;      CG321      CG321      CG321       HGA2
   24     8     9     4	 9 ;       HGA2      CG321      CG321      CG311
   24     8     9    26	 9 ;       HGA2      CG321      CG321       HGA2
   24     8     9    27	 9 ;       HGA2      CG321      CG321       HGA2
   25     8     9     4	 9 ;       HGA2      CG321      CG321      CG311
   25     8     9    26	 9 ;       HGA2      CG321      CG321       HGA2
   25     8     9    27	 9 ;       HGA2      CG321      CG321       HGA2
  120    28    57    58	 9 ;       HGP1      NG2S1      CG2O1     CG2R61
  120    28    57    89	 9 ;       HGP1      NG2S1      CG2O1      OG2D1
   56    28    57    58	 9 ;      CG311      NG2S1      CG2O1     CG2R61
   56    28    57    89	 9 ;      CG311      NG2S1      CG2O1      OG2D1
   57    28    56    55	 9 ;      CG2O1      NG2S1      CG311      CG311
   57    28    56    64	 9 ;      CG2O1      NG2S1      CG311     CG2R61
   57    28    56   119	 9 ;      CG2O1      NG2S1      CG311       HGA1
  120    28    56    55	 9 ;       HGP1      NG2S1      CG311      CG311
  120    28    56    64	 9 ;       HGP1      NG2S1      CG311     CG2R61
  120    28    56   119	 9 ;       HGP1      NG2S1      CG311       HGA1
   90    29    30    76	 9 ;       HGA3      CG331      CG2O2      OG2D1
   90    29    30    77	 9 ;       HGA3      CG331      CG2O2      OG302
   91    29    30    76	 9 ;       HGA3      CG331      CG2O2      OG2D1
   91    29    30    77	 9 ;       HGA3      CG331      CG2O2      OG302
   92    29    30    76	 9 ;       HGA3      CG331      CG2O2      OG2D1
   92    29    30    77	 9 ;       HGA3      CG331      CG2O2      OG302
   29    30    77    31	 9 ;      CG331      CG2O2      OG302      CG311
   76    30    77    31	 9 ;      OG2D1      CG2O2      OG302      CG311
   72    31    32    33	 9 ;      CG2D1      CG311      CG2O5      CG301
   72    31    32    78	 9 ;      CG2D1      CG311      CG2O5      OG2D3
   93    31    32    33	 9 ;       HGA1      CG311      CG2O5      CG301
   93    31    32    78	 9 ;       HGA1      CG311      CG2O5      OG2D3
   77    31    32    33	 9 ;      OG302      CG311      CG2O5      CG301
   77    31    32    78	 9 ;      OG302      CG311      CG2O5      OG2D3
   32    31    72    70	 9 ;      CG2O5      CG311      CG2D1      CG2D1
   32    31    72    73	 9 ;      CG2O5      CG311      CG2D1      CG301
   93    31    72    70	 9 ;       HGA1      CG311      CG2D1      CG2D1
   93    31    72    73	 9 ;       HGA1      CG311      CG2D1      CG301
   77    31    72    70	 9 ;      OG302      CG311      CG2D1      CG2D1
   77    31    72    73	 9 ;      OG302      CG311      CG2D1      CG301
   32    31    77    30	 9 ;      CG2O5      CG311      OG302      CG2O2
   72    31    77    30	 9 ;      CG2D1      CG311      OG302      CG2O2
   93    31    77    30	 9 ;       HGA1      CG311      OG302      CG2O2
   31    32    33    34	 9 ;      CG311      CG2O5      CG301      CG331
   31    32    33    35	 9 ;      CG311      CG2O5      CG301      CG311
   31    32    33    42	 9 ;      CG311      CG2O5      CG301      CG311
   78    32    33    34	 9 ;      OG2D3      CG2O5      CG301      CG331
   78    32    33    35	 9 ;      OG2D3      CG2O5      CG301      CG311
   78    32    33    42	 9 ;      OG2D3      CG2O5      CG301      CG311
   32    33    34    94	 9 ;      CG2O5      CG301      CG331       HGA3
   32    33    34    95	 9 ;      CG2O5      CG301      CG331       HGA3
   32    33    34    96	 9 ;      CG2O5      CG301      CG331       HGA3
   35    33    34    94	 9 ;      CG311      CG301      CG331       HGA3
   35    33    34    95	 9 ;      CG311      CG301      CG331       HGA3
   35    33    34    96	 9 ;      CG311      CG301      CG331       HGA3
   42    33    34    94	 9 ;      CG311      CG301      CG331       HGA3
   42    33    34    95	 9 ;      CG311      CG301      CG331       HGA3
   42    33    34    96	 9 ;      CG311      CG301      CG331       HGA3
   32    33    35    36	 9 ;      CG2O5      CG301      CG311      CG321
   32    33    35    79	 9 ;      CG2O5      CG301      CG311      OG311
   32    33    35    97	 9 ;      CG2O5      CG301      CG311       HGA1
   34    33    35    36	 9 ;      CG331      CG301      CG311      CG321
   34    33    35    79	 9 ;      CG331      CG301      CG311      OG311
   34    33    35    97	 9 ;      CG331      CG301      CG311       HGA1
   42    33    35    36	 9 ;      CG311      CG301      CG311      CG321
   42    33    35    79	 9 ;      CG311      CG301      CG311      OG311
   42    33    35    97	 9 ;      CG311      CG301      CG311       HGA1
   32    33    42    39	 9 ;      CG2O5      CG301      CG311     CG3RC1
   32    33    42    43	 9 ;      CG2O5      CG301      CG311      CG311
   32    33    42   107	 9 ;      CG2O5      CG301      CG311       HGA1
   34    33    42    39	 9 ;      CG331      CG301      CG311     CG3RC1
   34    33    42    43	 9 ;      CG331      CG301      CG311      CG311
   34    33    42   107	 9 ;      CG331      CG301      CG311       HGA1
   35    33    42    39	 9 ;      CG311      CG301      CG311     CG3RC1
   35    33    42    43	 9 ;      CG311      CG301      CG311      CG311
   35    33    42   107	 9 ;      CG311      CG301      CG311       HGA1
   33    35    36    37	 9 ;      CG301      CG311      CG321     CG3RC1
   33    35    36    99	 9 ;      CG301      CG311      CG321       HGA2
   33    35    36   100	 9 ;      CG301      CG311      CG321       HGA2
   79    35    36    37	 9 ;      OG311      CG311      CG321     CG3RC1
   79    35    36    99	 9 ;      OG311      CG311      CG321       HGA2
   79    35    36   100	 9 ;      OG311      CG311      CG321       HGA2
   97    35    36    37	 9 ;       HGA1      CG311      CG321     CG3RC1
   97    35    36    99	 9 ;       HGA1      CG311      CG321       HGA2
   97    35    36   100	 9 ;       HGA1      CG311      CG321       HGA2
   33    35    79    98	 9 ;      CG301      CG311      OG311       HGP1
   36    35    79    98	 9 ;      CG321      CG311      OG311       HGP1
   97    35    79    98	 9 ;       HGA1      CG311      OG311       HGP1
   35    36    37    39	 9 ;      CG311      CG321     CG3RC1     CG3RC1
   35    36    37    80	 9 ;      CG311      CG321     CG3RC1     OG3C51
   35    36    37   101	 9 ;      CG311      CG321     CG3RC1       HGA1
   99    36    37    39	 9 ;       HGA2      CG321     CG3RC1     CG3RC1
   99    36    37    80	 9 ;       HGA2      CG321     CG3RC1     OG3C51
   99    36    37   101	 9 ;       HGA2      CG321     CG3RC1       HGA1
  100    36    37    39	 9 ;       HGA2      CG321     CG3RC1     CG3RC1
  100    36    37    80	 9 ;       HGA2      CG321     CG3RC1     OG3C51
  100    36    37   101	 9 ;       HGA2      CG321     CG3RC1       HGA1
   36    37    39    38	 9 ;      CG321     CG3RC1     CG3RC1     CG3C41
   36    37    39    42	 9 ;      CG321     CG3RC1     CG3RC1      CG311
   36    37    39    81	 9 ;      CG321     CG3RC1     CG3RC1      OG302
   80    37    39    38	 9 ;     OG3C51     CG3RC1     CG3RC1     CG3C41
   80    37    39    42	 9 ;     OG3C51     CG3RC1     CG3RC1      CG311
   80    37    39    81	 9 ;     OG3C51     CG3RC1     CG3RC1      OG302
  101    37    39    38	 9 ;       HGA1     CG3RC1     CG3RC1     CG3C41
  101    37    39    42	 9 ;       HGA1     CG3RC1     CG3RC1      CG311
  101    37    39    81	 9 ;       HGA1     CG3RC1     CG3RC1      OG302
   36    37    80    38	 9 ;      CG321     CG3RC1     OG3C51     CG3C41
   39    37    80    38	 9 ;     CG3RC1     CG3RC1     OG3C51     CG3C41
  101    37    80    38	 9 ;       HGA1     CG3RC1     OG3C51     CG3C41
  102    38    39    37	 9 ;       HGA2     CG3C41     CG3RC1     CG3RC1
  102    38    39    42	 9 ;       HGA2     CG3C41     CG3RC1      CG311
  102    38    39    81	 9 ;       HGA2     CG3C41     CG3RC1      OG302
  103    38    39    37	 9 ;       HGA2     CG3C41     CG3RC1     CG3RC1
  103    38    39    42	 9 ;       HGA2     CG3C41     CG3RC1      CG311
  103    38    39    81	 9 ;       HGA2     CG3C41     CG3RC1      OG302
   80    38    39    37	 9 ;     OG3C51     CG3C41     CG3RC1     CG3RC1
   80    38    39    42	 9 ;     OG3C51     CG3C41     CG3RC1      CG311
   80    38    39    81	 9 ;     OG3C51     CG3C41     CG3RC1      OG302
   39    38    80    37	 9 ;     CG3RC1     CG3C41     OG3C51     CG3RC1
  102    38    80    37	 9 ;       HGA2     CG3C41     OG3C51     CG3RC1
  103    38    80    37	 9 ;       HGA2     CG3C41     OG3C51     CG3RC1
   37    39    42    33	 9 ;     CG3RC1     CG3RC1      CG311      CG301
   37    39    42    43	 9 ;     CG3RC1     CG3RC1      CG311      CG311
   37    39    42   107	 9 ;     CG3RC1     CG3RC1      CG311       HGA1
   38    39    42    33	 9 ;     CG3C41     CG3RC1      CG311      CG301
   38    39    42    43	 9 ;     CG3C41     CG3RC1      CG311      CG311
   38    39    42   107	 9 ;     CG3C41     CG3RC1      CG311       HGA1
   81    39    42    33	 9 ;      OG302     CG3RC1      CG311      CG301
   81    39    42    43	 9 ;      OG302     CG3RC1      CG311      CG311
   81    39    42   107	 9 ;      OG302     CG3RC1      CG311       HGA1
   37    39    81    40	 9 ;     CG3RC1     CG3RC1      OG302      CG2O2
   38    39    81    40	 9 ;     CG3C41     CG3RC1      OG302      CG2O2
   42    39    81    40	 9 ;      CG311     CG3RC1      OG302      CG2O2
   82    40    41   104	 9 ;      OG2D1      CG2O2      CG331       HGA3
   82    40    41   105	 9 ;      OG2D1      CG2O2      CG331       HGA3
   82    40    41   106	 9 ;      OG2D1      CG2O2      CG331       HGA3
   81    40    41   104	 9 ;      OG302      CG2O2      CG331       HGA3
   81    40    41   105	 9 ;      OG302      CG2O2      CG331       HGA3
   81    40    41   106	 9 ;      OG302      CG2O2      CG331       HGA3
   41    40    81    39	 9 ;      CG331      CG2O2      OG302     CG3RC1
   82    40    81    39	 9 ;      OG2D1      CG2O2      OG302     CG3RC1
   33    42    43    51	 9 ;      CG301      CG311      CG311      CG301
   33    42    43    83	 9 ;      CG301      CG311      CG311      OG302
   33    42    43   108	 9 ;      CG301      CG311      CG311       HGA1
   39    42    43    51	 9 ;     CG3RC1      CG311      CG311      CG301
   39    42    43    83	 9 ;     CG3RC1      CG311      CG311      OG302
   39    42    43   108	 9 ;     CG3RC1      CG311      CG311       HGA1
  107    42    43    51	 9 ;       HGA1      CG311      CG311      CG301
  107    42    43    83	 9 ;       HGA1      CG311      CG311      OG302
  107    42    43   108	 9 ;       HGA1      CG311      CG311       HGA1
   42    43    51    52	 9 ;      CG311      CG311      CG301      CG321
   42    43    51    73	 9 ;      CG311      CG311      CG301      CG301
   42    43    51    85	 9 ;      CG311      CG311      CG301      OG311
   83    43    51    52	 9 ;      OG302      CG311      CG301      CG321
   83    43    51    73	 9 ;      OG302      CG311      CG301      CG301
   83    43    51    85	 9 ;      OG302      CG311      CG301      OG311
  108    43    51    52	 9 ;       HGA1      CG311      CG301      CG321
  108    43    51    73	 9 ;       HGA1      CG311      CG301      CG301
  108    43    51    85	 9 ;       HGA1      CG311      CG301      OG311
   42    43    83    44	 9 ;      CG311      CG311      OG302      CG2O2
   51    43    83    44	 9 ;      CG301      CG311      OG302      CG2O2
  108    43    83    44	 9 ;       HGA1      CG311      OG302      CG2O2
   84    44    45    46	 9 ;      OG2D1      CG2O2     CG2R61     CG2R61
   84    44    45    50	 9 ;      OG2D1      CG2O2     CG2R61     CG2R61
   83    44    45    46	 9 ;      OG302      CG2O2     CG2R61     CG2R61
   83    44    45    50	 9 ;      OG302      CG2O2     CG2R61     CG2R61
   45    44    83    43	 9 ;     CG2R61      CG2O2      OG302      CG311
   84    44    83    43	 9 ;      OG2D1      CG2O2      OG302      CG311
   44    45    46    47	 9 ;      CG2O2     CG2R61     CG2R61     CG2R61
   44    45    46   109	 9 ;      CG2O2     CG2R61     CG2R61      HGR61
   50    45    46    47	 9 ;     CG2R61     CG2R61     CG2R61     CG2R61
   50    45    46   109	 9 ;     CG2R61     CG2R61     CG2R61      HGR61
   44    45    50    49	 9 ;      CG2O2     CG2R61     CG2R61     CG2R61
   44    45    50   113	 9 ;      CG2O2     CG2R61     CG2R61      HGR61
   46    45    50    49	 9 ;     CG2R61     CG2R61     CG2R61     CG2R61
   46    45    50   113	 9 ;     CG2R61     CG2R61     CG2R61      HGR61
   45    46    47    48	 9 ;     CG2R61     CG2R61     CG2R61     CG2R61
   45    46    47   110	 9 ;     CG2R61     CG2R61     CG2R61      HGR61
  109    46    47    48	 9 ;      HGR61     CG2R61     CG2R61     CG2R61
  109    46    47   110	 9 ;      HGR61     CG2R61     CG2R61      HGR61
   46    47    48    49	 9 ;     CG2R61     CG2R61     CG2R61     CG2R61
   46    47    48   111	 9 ;     CG2R61     CG2R61     CG2R61      HGR61
  110    47    48    49	 9 ;      HGR61     CG2R61     CG2R61     CG2R61
  110    47    48   111	 9 ;      HGR61     CG2R61     CG2R61      HGR61
   47    48    49    50	 9 ;     CG2R61     CG2R61     CG2R61     CG2R61
   47    48    49   112	 9 ;     CG2R61     CG2R61     CG2R61      HGR61
  111    48    49    50	 9 ;      HGR61     CG2R61     CG2R61     CG2R61
  111    48    49   112	 9 ;      HGR61     CG2R61     CG2R61      HGR61
   48    49    50    45	 9 ;     CG2R61     CG2R61     CG2R61     CG2R61
   48    49    50   113	 9 ;     CG2R61     CG2R61     CG2R61      HGR61
  112    49    50    45	 9 ;      HGR61     CG2R61     CG2R61     CG2R61
  112    49    50   113	 9 ;      HGR61     CG2R61     CG2R61      HGR61
   43    51    52    53	 9 ;      CG311      CG301      CG321      CG311
   43    51    52   115	 9 ;      CG311      CG301      CG321       HGA2
   43    51    52   116	 9 ;      CG311      CG301      CG321       HGA2
   73    51    52    53	 9 ;      CG301      CG301      CG321      CG311
   73    51    52   115	 9 ;      CG301      CG301      CG321       HGA2
   73    51    52   116	 9 ;      CG301      CG301      CG321       HGA2
   85    51    52    53	 9 ;      OG311      CG301      CG321      CG311
   85    51    52   115	 9 ;      OG311      CG301      CG321       HGA2
   85    51    52   116	 9 ;      OG311      CG301      CG321       HGA2
   43    51    73    72	 9 ;      CG311      CG301      CG301      CG2D1
   43    51    73    74	 9 ;      CG311      CG301      CG301      CG331
   43    51    73    75	 9 ;      CG311      CG301      CG301      CG331
   52    51    73    72	 9 ;      CG321      CG301      CG301      CG2D1
   52    51    73    74	 9 ;      CG321      CG301      CG301      CG331
   52    51    73    75	 9 ;      CG321      CG301      CG301      CG331
   85    51    73    72	 9 ;      OG311      CG301      CG301      CG2D1
   85    51    73    74	 9 ;      OG311      CG301      CG301      CG331
   85    51    73    75	 9 ;      OG311      CG301      CG301      CG331
   43    51    85   114	 9 ;      CG311      CG301      OG311       HGP1
   52    51    85   114	 9 ;      CG321      CG301      OG311       HGP1
   73    51    85   114	 9 ;      CG301      CG301      OG311       HGP1
   51    52    53    70	 9 ;      CG301      CG321      CG311      CG2D1
   51    52    53    86	 9 ;      CG301      CG321      CG311      OG302
   51    52    53   117	 9 ;      CG301      CG321      CG311       HGA1
  115    52    53    70	 9 ;       HGA2      CG321      CG311      CG2D1
  115    52    53    86	 9 ;       HGA2      CG321      CG311      OG302
  115    52    53   117	 9 ;       HGA2      CG321      CG311       HGA1
  116    52    53    70	 9 ;       HGA2      CG321      CG311      CG2D1
  116    52    53    86	 9 ;       HGA2      CG321      CG311      OG302
  116    52    53   117	 9 ;       HGA2      CG321      CG311       HGA1
   52    53    70    71	 9 ;      CG321      CG311      CG2D1      CG331
   52    53    70    72	 9 ;      CG321      CG311      CG2D1      CG2D1
   86    53    70    71	 9 ;      OG302      CG311      CG2D1      CG331
   86    53    70    72	 9 ;      OG302      CG311      CG2D1      CG2D1
  117    53    70    71	 9 ;       HGA1      CG311      CG2D1      CG331
  117    53    70    72	 9 ;       HGA1      CG311      CG2D1      CG2D1
   52    53    86    54	 9 ;      CG321      CG311      OG302      CG2O2
   70    53    86    54	 9 ;      CG2D1      CG311      OG302      CG2O2
  117    53    86    54	 9 ;       HGA1      CG311      OG302      CG2O2
   87    54    55    56	 9 ;      OG2D1      CG2O2      CG311      CG311
   87    54    55    88	 9 ;      OG2D1      CG2O2      CG311      OG301
   87    54    55   118	 9 ;      OG2D1      CG2O2      CG311       HGA1
   86    54    55    56	 9 ;      OG302      CG2O2      CG311      CG311
   86    54    55    88	 9 ;      OG302      CG2O2      CG311      OG301
   86    54    55   118	 9 ;      OG302      CG2O2      CG311       HGA1
   55    54    86    53	 9 ;      CG311      CG2O2      OG302      CG311
   87    54    86    53	 9 ;      OG2D1      CG2O2      OG302      CG311
   54    55    56    28	 9 ;      CG2O2      CG311      CG311      NG2S1
   54    55    56    64	 9 ;      CG2O2      CG311      CG311     CG2R61
   54    55    56   119	 9 ;      CG2O2      CG311      CG311       HGA1
   88    55    56    28	 9 ;      OG301      CG311      CG311      NG2S1
   88    55    56    64	 9 ;      OG301      CG311      CG311     CG2R61
   88    55    56   119	 9 ;      OG301      CG311      CG311       HGA1
  118    55    56    28	 9 ;       HGA1      CG311      CG311      NG2S1
  118    55    56    64	 9 ;       HGA1      CG311      CG311     CG2R61
  118    55    56   119	 9 ;       HGA1      CG311      CG311       HGA1
   54    55    88     1	 9 ;      CG2O2      CG311      OG301      CG301
   56    55    88     1	 9 ;      CG311      CG311      OG301      CG301
  118    55    88     1	 9 ;       HGA1      CG311      OG301      CG301
   55    56    64    65	 9 ;      CG311      CG311     CG2R61     CG2R61
   55    56    64    69	 9 ;      CG311      CG311     CG2R61     CG2R61
   28    56    64    65	 9 ;      NG2S1      CG311     CG2R61     CG2R61
   28    56    64    69	 9 ;      NG2S1      CG311     CG2R61     CG2R61
  119    56    64    65	 9 ;       HGA1      CG311     CG2R61     CG2R61
  119    56    64    69	 9 ;       HGA1      CG311     CG2R61     CG2R61
   28    57    58    59	 9 ;      NG2S1      CG2O1     CG2R61     CG2R61
   28    57    58    63	 9 ;      NG2S1      CG2O1     CG2R61     CG2R61
   89    57    58    59	 9 ;      OG2D1      CG2O1     CG2R61     CG2R61
   89    57    58    63	 9 ;      OG2D1      CG2O1     CG2R61     CG2R61
   57    58    59    60	 9 ;      CG2O1     CG2R61     CG2R61     CG2R61
   57    58    59   121	 9 ;      CG2O1     CG2R61     CG2R61      HGR61
   63    58    59    60	 9 ;     CG2R61     CG2R61     CG2R61     CG2R61
   63    58    59   121	 9 ;     CG2R61     CG2R61     CG2R61      HGR61
   57    58    63    62	 9 ;      CG2O1     CG2R61     CG2R61     CG2R61
   57    58    63   125	 9 ;      CG2O1     CG2R61     CG2R61      HGR61
   59    58    63    62	 9 ;     CG2R61     CG2R61     CG2R61     CG2R61
   59    58    63   125	 9 ;     CG2R61     CG2R61     CG2R61      HGR61
   58    59    60    61	 9 ;     CG2R61     CG2R61     CG2R61     CG2R61
   58    59    60   122	 9 ;     CG2R61     CG2R61     CG2R61      HGR61
  121    59    60    61	 9 ;      HGR61     CG2R61     CG2R61     CG2R61
  121    59    60   122	 9 ;      HGR61     CG2R61     CG2R61      HGR61
   59    60    61    62	 9 ;     CG2R61     CG2R61     CG2R61     CG2R61
   59    60    61   123	 9 ;     CG2R61     CG2R61     CG2R61      HGR61
  122    60    61    62	 9 ;      HGR61     CG2R61     CG2R61     CG2R61
  122    60    61   123	 9 ;      HGR61     CG2R61     CG2R61      HGR61
   60    61    62    63	 9 ;     CG2R61     CG2R61     CG2R61     CG2R61
   60    61    62   124	 9 ;     CG2R61     CG2R61     CG2R61      HGR61
  123    61    62    63	 9 ;      HGR61     CG2R61     CG2R61     CG2R61
  123    61    62   124	 9 ;      HGR61     CG2R61     CG2R61      HGR61
   61    62    63    58	 9 ;     CG2R61     CG2R61     CG2R61     CG2R61
   61    62    63   125	 9 ;     CG2R61     CG2R61     CG2R61      HGR61
  124    62    63    58	 9 ;      HGR61     CG2R61     CG2R61     CG2R61
  124    62    63   125	 9 ;      HGR61     CG2R61     CG2R61      HGR61
   56    64    65    66	 9 ;      CG311     CG2R61     CG2R61     CG2R61
   56    64    65   126	 9 ;      CG311     CG2R61     CG2R61      HGR61
   69    64    65    66	 9 ;     CG2R61     CG2R61     CG2R61     CG2R61
   69    64    65   126	 9 ;     CG2R61     CG2R61     CG2R61      HGR61
   56    64    69    68	 9 ;      CG311     CG2R61     CG2R61     CG2R61
   56    64    69   130	 9 ;      CG311     CG2R61     CG2R61      HGR61
   65    64    69    68	 9 ;     CG2R61     CG2R61     CG2R61     CG2R61
   65    64    69   130	 9 ;     CG2R61     CG2R61     CG2R61      HGR61
   64    65    66    67	 9 ;     CG2R61     CG2R61     CG2R61     CG2R61
   64    65    66   127	 9 ;     CG2R61     CG2R61     CG2R61      HGR61
  126    65    66    67	 9 ;      HGR61     CG2R61     CG2R61     CG2R61
  126    65    66   127	 9 ;      HGR61     CG2R61     CG2R61      HGR61
   65    66    67    68	 9 ;     CG2R61     CG2R61     CG2R61     CG2R61
   65    66    67   128	 9 ;     CG2R61     CG2R61     CG2R61      HGR61
  127    66    67    68	 9 ;      HGR61     CG2R61     CG2R61     CG2R61
  127    66    67   128	 9 ;      HGR61     CG2R61     CG2R61      HGR61
   66    67    68    69	 9 ;     CG2R61     CG2R61     CG2R61     CG2R61
   66    67    68   129	 9 ;     CG2R61     CG2R61     CG2R61      HGR61
  128    67    68    69	 9 ;      HGR61     CG2R61     CG2R61     CG2R61
  128    67    68   129	 9 ;      HGR61     CG2R61     CG2R61      HGR61
   67    68    69    64	 9 ;     CG2R61     CG2R61     CG2R61     CG2R61
   67    68    69   130	 9 ;     CG2R61     CG2R61     CG2R61      HGR61
  129    68    69    64	 9 ;      HGR61     CG2R61     CG2R61     CG2R61
  129    68    69   130	 9 ;      HGR61     CG2R61     CG2R61      HGR61
   53    70    71   131	 9 ;      CG311      CG2D1      CG331       HGA3
   53    70    71   132	 9 ;      CG311      CG2D1      CG331       HGA3
   53    70    71   133	 9 ;      CG311      CG2D1      CG331       HGA3
   72    70    71   131	 9 ;      CG2D1      CG2D1      CG331       HGA3
   72    70    71   132	 9 ;      CG2D1      CG2D1      CG331       HGA3
   72    70    71   133	 9 ;      CG2D1      CG2D1      CG331       HGA3
   53    70    72    31	 9 ;      CG311      CG2D1      CG2D1      CG311
   53    70    72    73	 9 ;      CG311      CG2D1      CG2D1      CG301
   71    70    72    31	 9 ;      CG331      CG2D1      CG2D1      CG311
   71    70    72    73	 9 ;      CG331      CG2D1      CG2D1      CG301
   31    72    73    51	 9 ;      CG311      CG2D1      CG301      CG301
   31    72    73    74	 9 ;      CG311      CG2D1      CG301      CG331
   31    72    73    75	 9 ;      CG311      CG2D1      CG301      CG331
   70    72    73    51	 9 ;      CG2D1      CG2D1      CG301      CG301
   70    72    73    74	 9 ;      CG2D1      CG2D1      CG301      CG331
   70    72    73    75	 9 ;      CG2D1      CG2D1      CG301      CG331
   51    73    74   134	 9 ;      CG301      CG301      CG331       HGA3
   51    73    74   135	 9 ;      CG301      CG301      CG331       HGA3
   51    73    74   136	 9 ;      CG301      CG301      CG331       HGA3
   72    73    74   134	 9 ;      CG2D1      CG301      CG331       HGA3
   72    73    74   135	 9 ;      CG2D1      CG301      CG331       HGA3
   72    73    74   136	 9 ;      CG2D1      CG301      CG331       HGA3
   75    73    74   134	 9 ;      CG331      CG301      CG331       HGA3
   75    73    74   135	 9 ;      CG331      CG301      CG331       HGA3
   75    73    74   136	 9 ;      CG331      CG301      CG331       HGA3
   51    73    75   137	 9 ;      CG301      CG301      CG331       HGA3
   51    73    75   138	 9 ;      CG301      CG301      CG331       HGA3
   51    73    75   139	 9 ;      CG301      CG301      CG331       HGA3
   72    73    75   137	 9 ;      CG2D1      CG301      CG331       HGA3
   72    73    75   138	 9 ;      CG2D1      CG301      CG331       HGA3
   72    73    75   139	 9 ;      CG2D1      CG301      CG331       HGA3
   74    73    75   137	 9 ;      CG331      CG301      CG331       HGA3
   74    73    75   138	 9 ;      CG331      CG301      CG331       HGA3
   74    73    75   139	 9 ;      CG331      CG301      CG331       HGA3

[ dihedrals ]
;	ai	  aj	ak	  al funct			  c0			c1			  c2			c3
   30    29    76    77	 2
   32    33    31    78	 2
   40    41    82    81	 2
   44    45    84    83	 2
   54    55    87    86	 2
   57    58    28    89	 2

