; Created by cgenff_charmm2gmx.py

[ moleculetype ]
; Name			   nrexcl
DTX				 3

[ atoms ]
;	 nr		  type	resnr residue  atom   cgnr	   charge		mass  typeB    chargeB		massB
; residue	 1 DTX rtp DTX q	qsum
     1      CG331      1    DTL     C1      1     -0.273     12.011   ;
     2      CG321      1    DTL     C2      2     -0.177     12.011   ;
     3      CG321      1    DTL     C3      3     -0.181     12.011   ;
     4      CG321      1    DTL     C4      4     -0.179     12.011   ;
     5      CG321      1    DTL     C5      5     -0.180     12.011   ;
     6      CG321      1    DTL     C6      6      0.036     12.011   ;
     7      CG301      1    DTL     C7      7      0.391     12.011   ;
     8      CG331      1    DTL     C8      8     -0.269     12.011   ;
     9      CG331      1    DTL     C9      9     -0.269     12.011   ;
    10      OG301      1    DTL     O1     10     -0.402     15.999   ;
    11       HGA3      1    DTL     H1     11      0.090      1.008   ;
    12       HGA3      1    DTL     H2     12      0.090      1.008   ;
    13       HGA3      1    DTL     H3     13      0.090      1.008   ;
    14       HGA2      1    DTL     H4     14      0.090      1.008   ;
    15       HGA2      1    DTL     H5     15      0.090      1.008   ;
    16       HGA2      1    DTL     H6     16      0.090      1.008   ;
    17       HGA2      1    DTL     H7     17      0.090      1.008   ;
    18       HGA2      1    DTL     H8     18      0.090      1.008   ;
    19       HGA2      1    DTL     H9     19      0.090      1.008   ;
    20       HGA2      1    DTL    H10     20      0.090      1.008   ;
    21       HGA2      1    DTL    H11     21      0.090      1.008   ;
    22       HGA2      1    DTL    H12     22      0.090      1.008   ;
    23       HGA2      1    DTL    H13     23      0.090      1.008   ;
    24       HGA3      1    DTL    H14     24      0.090      1.008   ;
    25       HGA3      1    DTL    H15     25      0.090      1.008   ;
    26       HGA3      1    DTL    H16     26      0.090      1.008   ;
    27       HGA3      1    DTL    H17     27      0.090      1.008   ;
    28       HGA3      1    DTL    H18     28      0.090      1.008   ;
    29       HGA3      1    DTL    H19     29      0.090      1.008   ;
    30      NG2S1      1    DTX      N     30     -0.547     14.007   ;
    31      CG311      1    DTX    C10     31      0.183     12.011   ;
    32      CG2O2      1    DTX    C11     32      0.850     12.011   ;
    33      CG311      1    DTX    C12     33      0.272     12.011   ;
    34      CG321      1    DTX    C13     34     -0.212     12.011   ;
    35      CG301      1    DTX    C14     35      0.186     12.011   ;
    36      CG311      1    DTX    C15     36      0.133     12.011   ;
    37      CG2O2      1    DTX    C16     37      0.459     12.011   ;
    38     CG2R61      1    DTX    C17     38      0.086     12.011   ;
    39     CG2R61      1    DTX    C18     39     -0.110     12.011   ;
    40     CG2R61      1    DTX    C19     40     -0.114     12.011   ;
    41     CG2R61      1    DTX    C20     41     -0.115     12.011   ;
    42     CG2R61      1    DTX    C21     42     -0.114     12.011   ;
    43     CG2R61      1    DTX    C22     43     -0.110     12.011   ;
    44      CG311      1    DTX    C23     44     -0.074     12.011   ;
    45      CG301      1    DTX    C24     45      0.081     12.011   ;
    46      CG331      1    DTX    C25     46     -0.263     12.011   ;
    47      CG2O5      1    DTX    C26     47      0.331     12.011   ;
    48      CG311      1    DTX    C27     48      0.376     12.011   ;
    49      CG2D1      1    DTX    C28     49     -0.097     12.011   ;
    50      CG2D1      1    DTX    C29     50     -0.158     12.011   ;
    51      CG331      1    DTX    C30     51     -0.265     12.011   ;
    52      CG301      1    DTX    C31     52      0.016     12.011   ;
    53      CG331      1    DTX    C32     53     -0.269     12.011   ;
    54      CG331      1    DTX    C33     54     -0.269     12.011   ;
    55      CG311      1    DTX    C34     55      0.166     12.011   ;
    56      CG321      1    DTX    C35     56     -0.201     12.011   ;
    57     CG3RC1      1    DTX    C36     57      0.015     12.011   ;
    58     CG3C41      1    DTX    C37     58     -0.106     12.011   ;
    59     CG3RC1      1    DTX    C38     59      0.366     12.011   ;
    60      CG2O2      1    DTX    C39     60      0.885     12.011   ;
    61      CG331      1    DTX    C40     61     -0.313     12.011   ;
    62      CG311      1    DTX    C41     62      0.136     12.011   ;
    63      CG2O1      1    DTX    C42     63      0.638     12.011   ;
    64      CG301      1    DTX    C43     64     -0.054     12.011   ;
    65      CG331      1    DTX    C44     65     -0.273     12.011   ;
    66      CG331      1    DTX    C45     66     -0.273     12.011   ;
    67      CG331      1    DTX    C46     67     -0.273     12.011   ;
    68     CG2R61      1    DTX    C47     68     -0.040     12.011   ;
    69     CG2R61      1    DTX    C48     69     -0.106     12.011   ;
    70     CG2R61      1    DTX    C49     70     -0.115     12.011   ;
    71     CG2R61      1    DTX    C50     71     -0.115     12.011   ;
    72     CG2R61      1    DTX    C51     72     -0.115     12.011   ;
    73     CG2R61      1    DTX    C52     73     -0.106     12.011   ;
    74      OG301      1    DTX     O2     74     -0.506     15.999   ;
    75      OG2D1      1    DTX     O3     75     -0.623     15.999   ;
    76      OG302      1    DTX     O4     76     -0.432     15.999   ;
    77      OG311      1    DTX     O5     77     -0.460     15.999   ;
    78      OG302      1    DTX     O6     78     -0.310     15.999   ;
    79      OG2D1      1    DTX     O7     79     -0.496     15.999   ;
    80      OG2D3      1    DTX     O8     80     -0.515     15.999   ;
    81      OG311      1    DTX     O9     81     -0.612     15.999   ;
    82      OG311      1    DTX    O10     82     -0.642     15.999   ;
    83     OG3C51      1    DTX    O11     83     -0.343     15.999   ;
    84      OG302      1    DTX    O12     84     -0.422     15.999   ;
    85      OG2D1      1    DTX    O13     85     -0.617     15.999   ;
    86      OG2D1      1    DTX    O14     86     -0.511     15.999   ;
    87       HGA1      1    DTX    H20     87      0.090      1.008   ;
    88       HGA1      1    DTX    H21     88      0.090      1.008   ;
    89       HGA2      1    DTX    H22     89      0.090      1.008   ;
    90       HGA2      1    DTX    H23     90      0.090      1.008   ;
    91       HGP1      1    DTX    H24     91      0.292      1.008   ;
    92       HGA1      1    DTX    H25     92      0.090      1.008   ;
    93      HGR61      1    DTX    H26     93      0.115      1.008   ;
    94      HGR61      1    DTX    H27     94      0.115      1.008   ;
    95      HGR61      1    DTX    H28     95      0.115      1.008   ;
    96      HGR61      1    DTX    H29     96      0.115      1.008   ;
    97      HGR61      1    DTX    H30     97      0.115      1.008   ;
    98       HGA1      1    DTX    H31     98      0.090      1.008   ;
    99       HGA3      1    DTX    H32     99      0.090      1.008   ;
   100       HGA3      1    DTX    H33    100      0.090      1.008   ;
   101       HGA3      1    DTX    H34    101      0.090      1.008   ;
   102       HGA1      1    DTX    H35    102      0.090      1.008   ;
   103       HGP1      1    DTX    H36    103      0.364      1.008   ;
   104       HGA3      1    DTX    H37    104      0.090      1.008   ;
   105       HGA3      1    DTX    H38    105      0.090      1.008   ;
   106       HGA3      1    DTX    H39    106      0.090      1.008   ;
   107       HGA3      1    DTX    H40    107      0.090      1.008   ;
   108       HGA3      1    DTX    H41    108      0.090      1.008   ;
   109       HGA3      1    DTX    H42    109      0.090      1.008   ;
   110       HGA3      1    DTX    H43    110      0.090      1.008   ;
   111       HGA3      1    DTX    H44    111      0.090      1.008   ;
   112       HGA3      1    DTX    H45    112      0.090      1.008   ;
   113       HGA1      1    DTX    H46    113      0.090      1.008   ;
   114       HGP1      1    DTX    H47    114      0.400      1.008   ;
   115       HGA2      1    DTX    H48    115      0.090      1.008   ;
   116       HGA2      1    DTX    H49    116      0.090      1.008   ;
   117       HGA1      1    DTX    H50    117      0.090      1.008   ;
   118       HGA2      1    DTX    H51    118      0.090      1.008   ;
   119       HGA2      1    DTX    H52    119      0.090      1.008   ;
   120       HGA3      1    DTX    H53    120      0.090      1.008   ;
   121       HGA3      1    DTX    H54    121      0.090      1.008   ;
   122       HGA3      1    DTX    H55    122      0.090      1.008   ;
   123       HGA1      1    DTX    H56    123      0.090      1.008   ;
   124       HGP1      1    DTX    H57    124      0.284      1.008   ;
   125       HGA3      1    DTX    H58    125      0.090      1.008   ;
   126       HGA3      1    DTX    H59    126      0.090      1.008   ;
   127       HGA3      1    DTX    H60    127      0.090      1.008   ;
   128       HGA3      1    DTX    H61    128      0.090      1.008   ;
   129       HGA3      1    DTX    H62    129      0.090      1.008   ;
   130       HGA3      1    DTX    H63    130      0.090      1.008   ;
   131       HGA3      1    DTX    H64    131      0.090      1.008   ;
   132       HGA3      1    DTX    H65    132      0.090      1.008   ;
   133       HGA3      1    DTX    H66    133      0.090      1.008   ;
   134      HGR61      1    DTX    H67    134      0.115      1.008   ;
   135      HGR61      1    DTX    H68    135      0.115      1.008   ;
   136      HGR61      1    DTX    H69    136      0.115      1.008   ;
   137      HGR61      1    DTX    H70    137      0.115      1.008   ;
   138      HGR61      1    DTX    H71    138      0.115      1.008   ;

[ bonds ]
;	ai	  aj funct			  c0			c1			  c2			c3
    1     2	 1 ;       CG331      CG321
    1    11	 1 ;       CG331       HGA3
    1    12	 1 ;       CG331       HGA3
    1    13	 1 ;       CG331       HGA3
    2     3	 1 ;       CG321      CG321
    2    14	 1 ;       CG321       HGA2
    2    15	 1 ;       CG321       HGA2
    3     4	 1 ;       CG321      CG321
    3    16	 1 ;       CG321       HGA2
    3    17	 1 ;       CG321       HGA2
    4     5	 1 ;       CG321      CG321
    4    18	 1 ;       CG321       HGA2
    4    19	 1 ;       CG321       HGA2
    5     6	 1 ;       CG321      CG321
    5    20	 1 ;       CG321       HGA2
    5    21	 1 ;       CG321       HGA2
    6    10	 1 ;       CG321      OG301
    6    22	 1 ;       CG321       HGA2
    6    23	 1 ;       CG321       HGA2
    7     8	 1 ;       CG301      CG331
    7     9	 1 ;       CG301      CG331
    7    74	 1 ;       CG301      OG301
    7    10	 1 ;       CG301      OG301
    8    24	 1 ;       CG331       HGA3
    8    25	 1 ;       CG331       HGA3
    8    26	 1 ;       CG331       HGA3
    9    27	 1 ;       CG331       HGA3
    9    28	 1 ;       CG331       HGA3
    9    29	 1 ;       CG331       HGA3
   30    63	 1 ;       NG2S1      CG2O1
   30   124	 1 ;       NG2S1       HGP1
   30    62	 1 ;       NG2S1      CG311
   31    32	 1 ;       CG311      CG2O2
   31    62	 1 ;       CG311      CG311
   31    87	 1 ;       CG311       HGA1
   31    74	 1 ;       CG311      OG301
   32    75	 1 ;       CG2O2      OG2D1
   32    76	 1 ;       CG2O2      OG302
   33    34	 1 ;       CG311      CG321
   33    50	 1 ;       CG311      CG2D1
   33    88	 1 ;       CG311       HGA1
   33    76	 1 ;       CG311      OG302
   34    35	 1 ;       CG321      CG301
   34    89	 1 ;       CG321       HGA2
   34    90	 1 ;       CG321       HGA2
   35    36	 1 ;       CG301      CG311
   35    52	 1 ;       CG301      CG301
   35    77	 1 ;       CG301      OG311
   36    44	 1 ;       CG311      CG311
   36    78	 1 ;       CG311      OG302
   36    92	 1 ;       CG311       HGA1
   37    38	 1 ;       CG2O2     CG2R61
   37    79	 1 ;       CG2O2      OG2D1
   37    78	 1 ;       CG2O2      OG302
   38    39	 1 ;      CG2R61     CG2R61
   38    43	 1 ;      CG2R61     CG2R61
   39    40	 1 ;      CG2R61     CG2R61
   39    93	 1 ;      CG2R61      HGR61
   40    41	 1 ;      CG2R61     CG2R61
   40    94	 1 ;      CG2R61      HGR61
   41    42	 1 ;      CG2R61     CG2R61
   41    95	 1 ;      CG2R61      HGR61
   42    43	 1 ;      CG2R61     CG2R61
   42    96	 1 ;      CG2R61      HGR61
   43    97	 1 ;      CG2R61      HGR61
   44    45	 1 ;       CG311      CG301
   44    59	 1 ;       CG311     CG3RC1
   44    98	 1 ;       CG311       HGA1
   45    46	 1 ;       CG301      CG331
   45    47	 1 ;       CG301      CG2O5
   45    55	 1 ;       CG301      CG311
   46    99	 1 ;       CG331       HGA3
   46   100	 1 ;       CG331       HGA3
   46   101	 1 ;       CG331       HGA3
   47    48	 1 ;       CG2O5      CG311
   47    80	 1 ;       CG2O5      OG2D3
   48    49	 1 ;       CG311      CG2D1
   48    81	 1 ;       CG311      OG311
   48   102	 1 ;       CG311       HGA1
   49    50	 1 ;       CG2D1      CG2D1
   49    52	 1 ;       CG2D1      CG301
   50    51	 1 ;       CG2D1      CG331
   51   104	 1 ;       CG331       HGA3
   51   105	 1 ;       CG331       HGA3
   51   106	 1 ;       CG331       HGA3
   52    53	 1 ;       CG301      CG331
   52    54	 1 ;       CG301      CG331
   53   107	 1 ;       CG331       HGA3
   53   108	 1 ;       CG331       HGA3
   53   109	 1 ;       CG331       HGA3
   54   110	 1 ;       CG331       HGA3
   54   111	 1 ;       CG331       HGA3
   54   112	 1 ;       CG331       HGA3
   55    56	 1 ;       CG311      CG321
   55    82	 1 ;       CG311      OG311
   55   113	 1 ;       CG311       HGA1
   56    57	 1 ;       CG321     CG3RC1
   56   115	 1 ;       CG321       HGA2
   56   116	 1 ;       CG321       HGA2
   57    59	 1 ;      CG3RC1     CG3RC1
   57    83	 1 ;      CG3RC1     OG3C51
   57   117	 1 ;      CG3RC1       HGA1
   58    59	 1 ;      CG3C41     CG3RC1
   58   118	 1 ;      CG3C41       HGA2
   58   119	 1 ;      CG3C41       HGA2
   58    83	 1 ;      CG3C41     OG3C51
   59    84	 1 ;      CG3RC1      OG302
   60    61	 1 ;       CG2O2      CG331
   60    85	 1 ;       CG2O2      OG2D1
   60    84	 1 ;       CG2O2      OG302
   61   120	 1 ;       CG331       HGA3
   61   121	 1 ;       CG331       HGA3
   61   122	 1 ;       CG331       HGA3
   62    68	 1 ;       CG311     CG2R61
   62   123	 1 ;       CG311       HGA1
   63    64	 1 ;       CG2O1      CG301
   63    86	 1 ;       CG2O1      OG2D1
   64    65	 1 ;       CG301      CG331
   64    66	 1 ;       CG301      CG331
   64    67	 1 ;       CG301      CG331
   65   125	 1 ;       CG331       HGA3
   65   126	 1 ;       CG331       HGA3
   65   127	 1 ;       CG331       HGA3
   66   128	 1 ;       CG331       HGA3
   66   129	 1 ;       CG331       HGA3
   66   130	 1 ;       CG331       HGA3
   67   131	 1 ;       CG331       HGA3
   67   132	 1 ;       CG331       HGA3
   67   133	 1 ;       CG331       HGA3
   68    69	 1 ;      CG2R61     CG2R61
   68    73	 1 ;      CG2R61     CG2R61
   69    70	 1 ;      CG2R61     CG2R61
   69   134	 1 ;      CG2R61      HGR61
   70    71	 1 ;      CG2R61     CG2R61
   70   135	 1 ;      CG2R61      HGR61
   71    72	 1 ;      CG2R61     CG2R61
   71   136	 1 ;      CG2R61      HGR61
   72    73	 1 ;      CG2R61     CG2R61
   72   137	 1 ;      CG2R61      HGR61
   73   138	 1 ;      CG2R61      HGR61
   77    91	 1 ;       OG311       HGP1
   81   103	 1 ;       OG311       HGP1
   82   114	 1 ;       OG311       HGP1

[ pairs ]
;	ai	  aj funct			  c0			c1			  c2			c3
    1     4	 1
    1    16	 1
    1    17	 1
    2     5	 1
    2    18	 1
    2    19	 1
    3    11	 1
    3    12	 1
    3    13	 1
    3     6	 1
    3    20	 1
    3    21	 1
    4    14	 1
    4    15	 1
    4    10	 1
    4    22	 1
    4    23	 1
    5    16	 1
    5    17	 1
    5     7	 1
    6    18	 1
    6    19	 1
    6     8	 1
    6     9	 1
    6    74	 1
    7    22	 1
    7    23	 1
    7    32	 1
    7    62	 1
    7    87	 1
    8    27	 1
    8    28	 1
    8    29	 1
    8    31	 1
    9    24	 1
    9    25	 1
    9    26	 1
    9    31	 1
   10    20	 1
   10    21	 1
   10    24	 1
   10    25	 1
   10    26	 1
   10    27	 1
   10    28	 1
   10    29	 1
   10    31	 1
   11    14	 1
   11    15	 1
   12    14	 1
   12    15	 1
   13    14	 1
   13    15	 1
   14    16	 1
   14    17	 1
   15    16	 1
   15    17	 1
   16    18	 1
   16    19	 1
   17    18	 1
   17    19	 1
   18    20	 1
   18    21	 1
   19    20	 1
   19    21	 1
   20    22	 1
   20    23	 1
   21    22	 1
   21    23	 1
   24    74	 1
   25    74	 1
   26    74	 1
   27    74	 1
   28    74	 1
   29    74	 1
   30    32	 1
   30    87	 1
   30    74	 1
   30    69	 1
   30    73	 1
   30    65	 1
   30    66	 1
   30    67	 1
   31    63	 1
   31   124	 1
   31    33	 1
   31    69	 1
   31    73	 1
   32    68	 1
   32   123	 1
   32    34	 1
   32    50	 1
   32    88	 1
   33    75	 1
   33    36	 1
   33    52	 1
   33    77	 1
   33    48	 1
   33   104	 1
   33   105	 1
   33   106	 1
   34    49	 1
   34    51	 1
   34    44	 1
   34    78	 1
   34    92	 1
   34    53	 1
   34    54	 1
   34    91	 1
   35    50	 1
   35    88	 1
   35    76	 1
   35    45	 1
   35    59	 1
   35    98	 1
   35    37	 1
   35    48	 1
   35   107	 1
   35   108	 1
   35   109	 1
   35   110	 1
   35   111	 1
   35   112	 1
   36    89	 1
   36    90	 1
   36    49	 1
   36    53	 1
   36    54	 1
   36    91	 1
   36    38	 1
   36    79	 1
   36    46	 1
   36    47	 1
   36    55	 1
   36    57	 1
   36    58	 1
   36    84	 1
   37    44	 1
   37    92	 1
   37    40	 1
   37    93	 1
   37    42	 1
   37    97	 1
   38    41	 1
   38    94	 1
   38    96	 1
   39    79	 1
   39    78	 1
   39    42	 1
   39    97	 1
   39    95	 1
   40    43	 1
   40    96	 1
   41    93	 1
   41    97	 1
   42    94	 1
   43    79	 1
   43    78	 1
   43    93	 1
   43    95	 1
   44    52	 1
   44    77	 1
   44    99	 1
   44   100	 1
   44   101	 1
   44    48	 1
   44    80	 1
   44    56	 1
   44    82	 1
   44   113	 1
   44    83	 1
   44   117	 1
   44   118	 1
   44   119	 1
   44    60	 1
   45    78	 1
   45    92	 1
   45    57	 1
   45    58	 1
   45    84	 1
   45    49	 1
   45    81	 1
   45   102	 1
   45   115	 1
   45   116	 1
   45   114	 1
   46    59	 1
   46    98	 1
   46    48	 1
   46    80	 1
   46    56	 1
   46    82	 1
   46   113	 1
   47    59	 1
   47    98	 1
   47    99	 1
   47   100	 1
   47   101	 1
   47    56	 1
   47    82	 1
   47   113	 1
   47    50	 1
   47    52	 1
   47   103	 1
   48    55	 1
   48    51	 1
   48    53	 1
   48    54	 1
   49    88	 1
   49    76	 1
   49    77	 1
   49    80	 1
   49   103	 1
   49   104	 1
   49   105	 1
   49   106	 1
   49   107	 1
   49   108	 1
   49   109	 1
   49   110	 1
   49   111	 1
   49   112	 1
   50    89	 1
   50    90	 1
   50    81	 1
   50   102	 1
   50    53	 1
   50    54	 1
   51    88	 1
   51    76	 1
   51    52	 1
   52    89	 1
   52    90	 1
   52    78	 1
   52    92	 1
   52    91	 1
   52    81	 1
   52   102	 1
   53    77	 1
   53   110	 1
   53   111	 1
   53   112	 1
   54    77	 1
   54   107	 1
   54   108	 1
   54   109	 1
   55    59	 1
   55    98	 1
   55    99	 1
   55   100	 1
   55   101	 1
   55    80	 1
   55    83	 1
   55   117	 1
   56   114	 1
   56    58	 1
   56    84	 1
   57    98	 1
   57    82	 1
   57   113	 1
   57   118	 1
   57   119	 1
   57    60	 1
   58    98	 1
   58   117	 1
   58    60	 1
   59    78	 1
   59    92	 1
   59   115	 1
   59   116	 1
   59    61	 1
   59    85	 1
   62    64	 1
   62    86	 1
   62    75	 1
   62    76	 1
   62    70	 1
   62   134	 1
   62    72	 1
   62   138	 1
   63    68	 1
   63   123	 1
   63   125	 1
   63   126	 1
   63   127	 1
   63   128	 1
   63   129	 1
   63   130	 1
   63   131	 1
   63   132	 1
   63   133	 1
   64   124	 1
   65    86	 1
   65   128	 1
   65   129	 1
   65   130	 1
   65   131	 1
   65   132	 1
   65   133	 1
   66    86	 1
   66   125	 1
   66   126	 1
   66   127	 1
   66   131	 1
   66   132	 1
   66   133	 1
   67    86	 1
   67   125	 1
   67   126	 1
   67   127	 1
   67   128	 1
   67   129	 1
   67   130	 1
   68   124	 1
   68    87	 1
   68    74	 1
   68    71	 1
   68   135	 1
   68   137	 1
   69   123	 1
   69    72	 1
   69   138	 1
   69   136	 1
   70    73	 1
   70   137	 1
   71   134	 1
   71   138	 1
   72   135	 1
   73   123	 1
   73   134	 1
   73   136	 1
   74    75	 1
   74    76	 1
   74   123	 1
   75    87	 1
   76    87	 1
   76    89	 1
   76    90	 1
   77    89	 1
   77    90	 1
   77    78	 1
   77    92	 1
   78    98	 1
   80    81	 1
   80   102	 1
   82   115	 1
   82   116	 1
   83   115	 1
   83   116	 1
   83    84	 1
   84    98	 1
   84   117	 1
   84   118	 1
   84   119	 1
   84   120	 1
   84   121	 1
   84   122	 1
   85   120	 1
   85   121	 1
   85   122	 1
   86   124	 1
   87   123	 1
   88    89	 1
   88    90	 1
   92    98	 1
   93    94	 1
   94    95	 1
   95    96	 1
   96    97	 1
  102   103	 1
  113   115	 1
  113   116	 1
  113   114	 1
  115   117	 1
  116   117	 1
  123   124	 1
  134   135	 1
  135   136	 1
  136   137	 1
  137   138	 1

[ angles ]
;	ai	  aj	ak funct			c0			  c1			c2			  c3
    2     1    11	5 ;      CG321      CG331       HGA3
    2     1    12	5 ;      CG321      CG331       HGA3
    2     1    13	5 ;      CG321      CG331       HGA3
   11     1    12	5 ;       HGA3      CG331       HGA3
   11     1    13	5 ;       HGA3      CG331       HGA3
   12     1    13	5 ;       HGA3      CG331       HGA3
    1     2     3	5 ;      CG331      CG321      CG321
    1     2    14	5 ;      CG331      CG321       HGA2
    1     2    15	5 ;      CG331      CG321       HGA2
    3     2    14	5 ;      CG321      CG321       HGA2
    3     2    15	5 ;      CG321      CG321       HGA2
   14     2    15	5 ;       HGA2      CG321       HGA2
    2     3     4	5 ;      CG321      CG321      CG321
    2     3    16	5 ;      CG321      CG321       HGA2
    2     3    17	5 ;      CG321      CG321       HGA2
    4     3    16	5 ;      CG321      CG321       HGA2
    4     3    17	5 ;      CG321      CG321       HGA2
   16     3    17	5 ;       HGA2      CG321       HGA2
    3     4     5	5 ;      CG321      CG321      CG321
    3     4    18	5 ;      CG321      CG321       HGA2
    3     4    19	5 ;      CG321      CG321       HGA2
    5     4    18	5 ;      CG321      CG321       HGA2
    5     4    19	5 ;      CG321      CG321       HGA2
   18     4    19	5 ;       HGA2      CG321       HGA2
    4     5     6	5 ;      CG321      CG321      CG321
    4     5    20	5 ;      CG321      CG321       HGA2
    4     5    21	5 ;      CG321      CG321       HGA2
    6     5    20	5 ;      CG321      CG321       HGA2
    6     5    21	5 ;      CG321      CG321       HGA2
   20     5    21	5 ;       HGA2      CG321       HGA2
    5     6    10	5 ;      CG321      CG321      OG301
    5     6    22	5 ;      CG321      CG321       HGA2
    5     6    23	5 ;      CG321      CG321       HGA2
   10     6    22	5 ;      OG301      CG321       HGA2
   10     6    23	5 ;      OG301      CG321       HGA2
   22     6    23	5 ;       HGA2      CG321       HGA2
    8     7     9	5 ;      CG331      CG301      CG331
    8     7    74	5 ;      CG331      CG301      OG301
    8     7    10	5 ;      CG331      CG301      OG301
    9     7    74	5 ;      CG331      CG301      OG301
    9     7    10	5 ;      CG331      CG301      OG301
   74     7    10	5 ;      OG301      CG301      OG301
    7     8    24	5 ;      CG301      CG331       HGA3
    7     8    25	5 ;      CG301      CG331       HGA3
    7     8    26	5 ;      CG301      CG331       HGA3
   24     8    25	5 ;       HGA3      CG331       HGA3
   24     8    26	5 ;       HGA3      CG331       HGA3
   25     8    26	5 ;       HGA3      CG331       HGA3
    7     9    27	5 ;      CG301      CG331       HGA3
    7     9    28	5 ;      CG301      CG331       HGA3
    7     9    29	5 ;      CG301      CG331       HGA3
   27     9    28	5 ;       HGA3      CG331       HGA3
   27     9    29	5 ;       HGA3      CG331       HGA3
   28     9    29	5 ;       HGA3      CG331       HGA3
    6    10     7	5 ;      CG321      OG301      CG301
   63    30   124	5 ;      CG2O1      NG2S1       HGP1
   63    30    62	5 ;      CG2O1      NG2S1      CG311
  124    30    62	5 ;       HGP1      NG2S1      CG311
   32    31    62	5 ;      CG2O2      CG311      CG311
   32    31    87	5 ;      CG2O2      CG311       HGA1
   32    31    74	5 ;      CG2O2      CG311      OG301
   62    31    87	5 ;      CG311      CG311       HGA1
   62    31    74	5 ;      CG311      CG311      OG301
   87    31    74	5 ;       HGA1      CG311      OG301
   31    32    75	5 ;      CG311      CG2O2      OG2D1
   31    32    76	5 ;      CG311      CG2O2      OG302
   75    32    76	5 ;      OG2D1      CG2O2      OG302
   34    33    50	5 ;      CG321      CG311      CG2D1
   34    33    88	5 ;      CG321      CG311       HGA1
   34    33    76	5 ;      CG321      CG311      OG302
   50    33    88	5 ;      CG2D1      CG311       HGA1
   50    33    76	5 ;      CG2D1      CG311      OG302
   88    33    76	5 ;       HGA1      CG311      OG302
   33    34    35	5 ;      CG311      CG321      CG301
   33    34    89	5 ;      CG311      CG321       HGA2
   33    34    90	5 ;      CG311      CG321       HGA2
   35    34    89	5 ;      CG301      CG321       HGA2
   35    34    90	5 ;      CG301      CG321       HGA2
   89    34    90	5 ;       HGA2      CG321       HGA2
   34    35    36	5 ;      CG321      CG301      CG311
   34    35    52	5 ;      CG321      CG301      CG301
   34    35    77	5 ;      CG321      CG301      OG311
   36    35    52	5 ;      CG311      CG301      CG301
   36    35    77	5 ;      CG311      CG301      OG311
   52    35    77	5 ;      CG301      CG301      OG311
   35    36    44	5 ;      CG301      CG311      CG311
   35    36    78	5 ;      CG301      CG311      OG302
   35    36    92	5 ;      CG301      CG311       HGA1
   44    36    78	5 ;      CG311      CG311      OG302
   44    36    92	5 ;      CG311      CG311       HGA1
   78    36    92	5 ;      OG302      CG311       HGA1
   38    37    79	5 ;     CG2R61      CG2O2      OG2D1
   38    37    78	5 ;     CG2R61      CG2O2      OG302
   79    37    78	5 ;      OG2D1      CG2O2      OG302
   37    38    39	5 ;      CG2O2     CG2R61     CG2R61
   37    38    43	5 ;      CG2O2     CG2R61     CG2R61
   39    38    43	5 ;     CG2R61     CG2R61     CG2R61
   38    39    40	5 ;     CG2R61     CG2R61     CG2R61
   38    39    93	5 ;     CG2R61     CG2R61      HGR61
   40    39    93	5 ;     CG2R61     CG2R61      HGR61
   39    40    41	5 ;     CG2R61     CG2R61     CG2R61
   39    40    94	5 ;     CG2R61     CG2R61      HGR61
   41    40    94	5 ;     CG2R61     CG2R61      HGR61
   40    41    42	5 ;     CG2R61     CG2R61     CG2R61
   40    41    95	5 ;     CG2R61     CG2R61      HGR61
   42    41    95	5 ;     CG2R61     CG2R61      HGR61
   41    42    43	5 ;     CG2R61     CG2R61     CG2R61
   41    42    96	5 ;     CG2R61     CG2R61      HGR61
   43    42    96	5 ;     CG2R61     CG2R61      HGR61
   38    43    42	5 ;     CG2R61     CG2R61     CG2R61
   38    43    97	5 ;     CG2R61     CG2R61      HGR61
   42    43    97	5 ;     CG2R61     CG2R61      HGR61
   36    44    45	5 ;      CG311      CG311      CG301
   36    44    59	5 ;      CG311      CG311     CG3RC1
   36    44    98	5 ;      CG311      CG311       HGA1
   45    44    59	5 ;      CG301      CG311     CG3RC1
   45    44    98	5 ;      CG301      CG311       HGA1
   59    44    98	5 ;     CG3RC1      CG311       HGA1
   44    45    46	5 ;      CG311      CG301      CG331
   44    45    47	5 ;      CG311      CG301      CG2O5
   44    45    55	5 ;      CG311      CG301      CG311
   46    45    47	5 ;      CG331      CG301      CG2O5
   46    45    55	5 ;      CG331      CG301      CG311
   47    45    55	5 ;      CG2O5      CG301      CG311
   45    46    99	5 ;      CG301      CG331       HGA3
   45    46   100	5 ;      CG301      CG331       HGA3
   45    46   101	5 ;      CG301      CG331       HGA3
   99    46   100	5 ;       HGA3      CG331       HGA3
   99    46   101	5 ;       HGA3      CG331       HGA3
  100    46   101	5 ;       HGA3      CG331       HGA3
   45    47    48	5 ;      CG301      CG2O5      CG311
   45    47    80	5 ;      CG301      CG2O5      OG2D3
   48    47    80	5 ;      CG311      CG2O5      OG2D3
   47    48    49	5 ;      CG2O5      CG311      CG2D1
   47    48    81	5 ;      CG2O5      CG311      OG311
   47    48   102	5 ;      CG2O5      CG311       HGA1
   49    48    81	5 ;      CG2D1      CG311      OG311
   49    48   102	5 ;      CG2D1      CG311       HGA1
   81    48   102	5 ;      OG311      CG311       HGA1
   48    49    50	5 ;      CG311      CG2D1      CG2D1
   48    49    52	5 ;      CG311      CG2D1      CG301
   50    49    52	5 ;      CG2D1      CG2D1      CG301
   33    50    49	5 ;      CG311      CG2D1      CG2D1
   33    50    51	5 ;      CG311      CG2D1      CG331
   49    50    51	5 ;      CG2D1      CG2D1      CG331
   50    51   104	5 ;      CG2D1      CG331       HGA3
   50    51   105	5 ;      CG2D1      CG331       HGA3
   50    51   106	5 ;      CG2D1      CG331       HGA3
  104    51   105	5 ;       HGA3      CG331       HGA3
  104    51   106	5 ;       HGA3      CG331       HGA3
  105    51   106	5 ;       HGA3      CG331       HGA3
   35    52    49	5 ;      CG301      CG301      CG2D1
   35    52    53	5 ;      CG301      CG301      CG331
   35    52    54	5 ;      CG301      CG301      CG331
   49    52    53	5 ;      CG2D1      CG301      CG331
   49    52    54	5 ;      CG2D1      CG301      CG331
   53    52    54	5 ;      CG331      CG301      CG331
   52    53   107	5 ;      CG301      CG331       HGA3
   52    53   108	5 ;      CG301      CG331       HGA3
   52    53   109	5 ;      CG301      CG331       HGA3
  107    53   108	5 ;       HGA3      CG331       HGA3
  107    53   109	5 ;       HGA3      CG331       HGA3
  108    53   109	5 ;       HGA3      CG331       HGA3
   52    54   110	5 ;      CG301      CG331       HGA3
   52    54   111	5 ;      CG301      CG331       HGA3
   52    54   112	5 ;      CG301      CG331       HGA3
  110    54   111	5 ;       HGA3      CG331       HGA3
  110    54   112	5 ;       HGA3      CG331       HGA3
  111    54   112	5 ;       HGA3      CG331       HGA3
   45    55    56	5 ;      CG301      CG311      CG321
   45    55    82	5 ;      CG301      CG311      OG311
   45    55   113	5 ;      CG301      CG311       HGA1
   56    55    82	5 ;      CG321      CG311      OG311
   56    55   113	5 ;      CG321      CG311       HGA1
   82    55   113	5 ;      OG311      CG311       HGA1
   55    56    57	5 ;      CG311      CG321     CG3RC1
   55    56   115	5 ;      CG311      CG321       HGA2
   55    56   116	5 ;      CG311      CG321       HGA2
   57    56   115	5 ;     CG3RC1      CG321       HGA2
   57    56   116	5 ;     CG3RC1      CG321       HGA2
  115    56   116	5 ;       HGA2      CG321       HGA2
   56    57    59	5 ;      CG321     CG3RC1     CG3RC1
   56    57    83	5 ;      CG321     CG3RC1     OG3C51
   56    57   117	5 ;      CG321     CG3RC1       HGA1
   59    57    83	5 ;     CG3RC1     CG3RC1     OG3C51
   59    57   117	5 ;     CG3RC1     CG3RC1       HGA1
   83    57   117	5 ;     OG3C51     CG3RC1       HGA1
   59    58   118	5 ;     CG3RC1     CG3C41       HGA2
   59    58   119	5 ;     CG3RC1     CG3C41       HGA2
   59    58    83	5 ;     CG3RC1     CG3C41     OG3C51
  118    58   119	5 ;       HGA2     CG3C41       HGA2
  118    58    83	5 ;       HGA2     CG3C41     OG3C51
  119    58    83	5 ;       HGA2     CG3C41     OG3C51
   44    59    57	5 ;      CG311     CG3RC1     CG3RC1
   44    59    58	5 ;      CG311     CG3RC1     CG3C41
   44    59    84	5 ;      CG311     CG3RC1      OG302
   57    59    58	5 ;     CG3RC1     CG3RC1     CG3C41
   57    59    84	5 ;     CG3RC1     CG3RC1      OG302
   58    59    84	5 ;     CG3C41     CG3RC1      OG302
   61    60    85	5 ;      CG331      CG2O2      OG2D1
   61    60    84	5 ;      CG331      CG2O2      OG302
   85    60    84	5 ;      OG2D1      CG2O2      OG302
   60    61   120	5 ;      CG2O2      CG331       HGA3
   60    61   121	5 ;      CG2O2      CG331       HGA3
   60    61   122	5 ;      CG2O2      CG331       HGA3
  120    61   121	5 ;       HGA3      CG331       HGA3
  120    61   122	5 ;       HGA3      CG331       HGA3
  121    61   122	5 ;       HGA3      CG331       HGA3
   31    62    30	5 ;      CG311      CG311      NG2S1
   31    62    68	5 ;      CG311      CG311     CG2R61
   31    62   123	5 ;      CG311      CG311       HGA1
   30    62    68	5 ;      NG2S1      CG311     CG2R61
   30    62   123	5 ;      NG2S1      CG311       HGA1
   68    62   123	5 ;     CG2R61      CG311       HGA1
   30    63    64	5 ;      NG2S1      CG2O1      CG301
   30    63    86	5 ;      NG2S1      CG2O1      OG2D1
   64    63    86	5 ;      CG301      CG2O1      OG2D1
   63    64    65	5 ;      CG2O1      CG301      CG331
   63    64    66	5 ;      CG2O1      CG301      CG331
   63    64    67	5 ;      CG2O1      CG301      CG331
   65    64    66	5 ;      CG331      CG301      CG331
   65    64    67	5 ;      CG331      CG301      CG331
   66    64    67	5 ;      CG331      CG301      CG331
   64    65   125	5 ;      CG301      CG331       HGA3
   64    65   126	5 ;      CG301      CG331       HGA3
   64    65   127	5 ;      CG301      CG331       HGA3
  125    65   126	5 ;       HGA3      CG331       HGA3
  125    65   127	5 ;       HGA3      CG331       HGA3
  126    65   127	5 ;       HGA3      CG331       HGA3
   64    66   128	5 ;      CG301      CG331       HGA3
   64    66   129	5 ;      CG301      CG331       HGA3
   64    66   130	5 ;      CG301      CG331       HGA3
  128    66   129	5 ;       HGA3      CG331       HGA3
  128    66   130	5 ;       HGA3      CG331       HGA3
  129    66   130	5 ;       HGA3      CG331       HGA3
   64    67   131	5 ;      CG301      CG331       HGA3
   64    67   132	5 ;      CG301      CG331       HGA3
   64    67   133	5 ;      CG301      CG331       HGA3
  131    67   132	5 ;       HGA3      CG331       HGA3
  131    67   133	5 ;       HGA3      CG331       HGA3
  132    67   133	5 ;       HGA3      CG331       HGA3
   62    68    69	5 ;      CG311     CG2R61     CG2R61
   62    68    73	5 ;      CG311     CG2R61     CG2R61
   69    68    73	5 ;     CG2R61     CG2R61     CG2R61
   68    69    70	5 ;     CG2R61     CG2R61     CG2R61
   68    69   134	5 ;     CG2R61     CG2R61      HGR61
   70    69   134	5 ;     CG2R61     CG2R61      HGR61
   69    70    71	5 ;     CG2R61     CG2R61     CG2R61
   69    70   135	5 ;     CG2R61     CG2R61      HGR61
   71    70   135	5 ;     CG2R61     CG2R61      HGR61
   70    71    72	5 ;     CG2R61     CG2R61     CG2R61
   70    71   136	5 ;     CG2R61     CG2R61      HGR61
   72    71   136	5 ;     CG2R61     CG2R61      HGR61
   71    72    73	5 ;     CG2R61     CG2R61     CG2R61
   71    72   137	5 ;     CG2R61     CG2R61      HGR61
   73    72   137	5 ;     CG2R61     CG2R61      HGR61
   68    73    72	5 ;     CG2R61     CG2R61     CG2R61
   68    73   138	5 ;     CG2R61     CG2R61      HGR61
   72    73   138	5 ;     CG2R61     CG2R61      HGR61
    7    74    31	5 ;      CG301      OG301      CG311
   32    76    33	5 ;      CG2O2      OG302      CG311
   35    77    91	5 ;      CG301      OG311       HGP1
   36    78    37	5 ;      CG311      OG302      CG2O2
   48    81   103	5 ;      CG311      OG311       HGP1
   55    82   114	5 ;      CG311      OG311       HGP1
   57    83    58	5 ;     CG3RC1     OG3C51     CG3C41
   59    84    60	5 ;     CG3RC1      OG302      CG2O2

[ dihedrals ]
;	ai	  aj	ak	  al funct			  c0			c1			  c2			c3			  c4			c5
   11     1     2     3	 9 ;       HGA3      CG331      CG321      CG321
   11     1     2    14	 9 ;       HGA3      CG331      CG321       HGA2
   11     1     2    15	 9 ;       HGA3      CG331      CG321       HGA2
   12     1     2     3	 9 ;       HGA3      CG331      CG321      CG321
   12     1     2    14	 9 ;       HGA3      CG331      CG321       HGA2
   12     1     2    15	 9 ;       HGA3      CG331      CG321       HGA2
   13     1     2     3	 9 ;       HGA3      CG331      CG321      CG321
   13     1     2    14	 9 ;       HGA3      CG331      CG321       HGA2
   13     1     2    15	 9 ;       HGA3      CG331      CG321       HGA2
    1     2     3     4	 9 ;      CG331      CG321      CG321      CG321
    1     2     3    16	 9 ;      CG331      CG321      CG321       HGA2
    1     2     3    17	 9 ;      CG331      CG321      CG321       HGA2
   14     2     3     4	 9 ;       HGA2      CG321      CG321      CG321
   14     2     3    16	 9 ;       HGA2      CG321      CG321       HGA2
   14     2     3    17	 9 ;       HGA2      CG321      CG321       HGA2
   15     2     3     4	 9 ;       HGA2      CG321      CG321      CG321
   15     2     3    16	 9 ;       HGA2      CG321      CG321       HGA2
   15     2     3    17	 9 ;       HGA2      CG321      CG321       HGA2
    2     3     4     5	 9 ;      CG321      CG321      CG321      CG321
    2     3     4    18	 9 ;      CG321      CG321      CG321       HGA2
    2     3     4    19	 9 ;      CG321      CG321      CG321       HGA2
   16     3     4     5	 9 ;       HGA2      CG321      CG321      CG321
   16     3     4    18	 9 ;       HGA2      CG321      CG321       HGA2
   16     3     4    19	 9 ;       HGA2      CG321      CG321       HGA2
   17     3     4     5	 9 ;       HGA2      CG321      CG321      CG321
   17     3     4    18	 9 ;       HGA2      CG321      CG321       HGA2
   17     3     4    19	 9 ;       HGA2      CG321      CG321       HGA2
    3     4     5     6	 9 ;      CG321      CG321      CG321      CG321
    3     4     5    20	 9 ;      CG321      CG321      CG321       HGA2
    3     4     5    21	 9 ;      CG321      CG321      CG321       HGA2
   18     4     5     6	 9 ;       HGA2      CG321      CG321      CG321
   18     4     5    20	 9 ;       HGA2      CG321      CG321       HGA2
   18     4     5    21	 9 ;       HGA2      CG321      CG321       HGA2
   19     4     5     6	 9 ;       HGA2      CG321      CG321      CG321
   19     4     5    20	 9 ;       HGA2      CG321      CG321       HGA2
   19     4     5    21	 9 ;       HGA2      CG321      CG321       HGA2
    4     5     6    10	 9 ;      CG321      CG321      CG321      OG301
    4     5     6    22	 9 ;      CG321      CG321      CG321       HGA2
    4     5     6    23	 9 ;      CG321      CG321      CG321       HGA2
   20     5     6    10	 9 ;       HGA2      CG321      CG321      OG301
   20     5     6    22	 9 ;       HGA2      CG321      CG321       HGA2
   20     5     6    23	 9 ;       HGA2      CG321      CG321       HGA2
   21     5     6    10	 9 ;       HGA2      CG321      CG321      OG301
   21     5     6    22	 9 ;       HGA2      CG321      CG321       HGA2
   21     5     6    23	 9 ;       HGA2      CG321      CG321       HGA2
    5     6    10     7	 9 ;      CG321      CG321      OG301      CG301
   22     6    10     7	 9 ;       HGA2      CG321      OG301      CG301
   23     6    10     7	 9 ;       HGA2      CG321      OG301      CG301
    9     7     8    24	 9 ;      CG331      CG301      CG331       HGA3
    9     7     8    25	 9 ;      CG331      CG301      CG331       HGA3
    9     7     8    26	 9 ;      CG331      CG301      CG331       HGA3
   74     7     8    24	 9 ;      OG301      CG301      CG331       HGA3
   74     7     8    25	 9 ;      OG301      CG301      CG331       HGA3
   74     7     8    26	 9 ;      OG301      CG301      CG331       HGA3
   10     7     8    24	 9 ;      OG301      CG301      CG331       HGA3
   10     7     8    25	 9 ;      OG301      CG301      CG331       HGA3
   10     7     8    26	 9 ;      OG301      CG301      CG331       HGA3
    8     7     9    27	 9 ;      CG331      CG301      CG331       HGA3
    8     7     9    28	 9 ;      CG331      CG301      CG331       HGA3
    8     7     9    29	 9 ;      CG331      CG301      CG331       HGA3
   74     7     9    27	 9 ;      OG301      CG301      CG331       HGA3
   74     7     9    28	 9 ;      OG301      CG301      CG331       HGA3
   74     7     9    29	 9 ;      OG301      CG301      CG331       HGA3
   10     7     9    27	 9 ;      OG301      CG301      CG331       HGA3
   10     7     9    28	 9 ;      OG301      CG301      CG331       HGA3
   10     7     9    29	 9 ;      OG301      CG301      CG331       HGA3
    8     7    74    31	 9 ;      CG331      CG301      OG301      CG311
    9     7    74    31	 9 ;      CG331      CG301      OG301      CG311
   10     7    74    31	 9 ;      OG301      CG301      OG301      CG311
    8     7    10     6	 9 ;      CG331      CG301      OG301      CG321
    9     7    10     6	 9 ;      CG331      CG301      OG301      CG321
   74     7    10     6	 9 ;      OG301      CG301      OG301      CG321
  124    30    63    64	 9 ;       HGP1      NG2S1      CG2O1      CG301
  124    30    63    86	 9 ;       HGP1      NG2S1      CG2O1      OG2D1
   62    30    63    64	 9 ;      CG311      NG2S1      CG2O1      CG301
   62    30    63    86	 9 ;      CG311      NG2S1      CG2O1      OG2D1
   63    30    62    31	 9 ;      CG2O1      NG2S1      CG311      CG311
   63    30    62    68	 9 ;      CG2O1      NG2S1      CG311     CG2R61
   63    30    62   123	 9 ;      CG2O1      NG2S1      CG311       HGA1
  124    30    62    31	 9 ;       HGP1      NG2S1      CG311      CG311
  124    30    62    68	 9 ;       HGP1      NG2S1      CG311     CG2R61
  124    30    62   123	 9 ;       HGP1      NG2S1      CG311       HGA1
   62    31    32    75	 9 ;      CG311      CG311      CG2O2      OG2D1
   62    31    32    76	 9 ;      CG311      CG311      CG2O2      OG302
   87    31    32    75	 9 ;       HGA1      CG311      CG2O2      OG2D1
   87    31    32    76	 9 ;       HGA1      CG311      CG2O2      OG302
   74    31    32    75	 9 ;      OG301      CG311      CG2O2      OG2D1
   74    31    32    76	 9 ;      OG301      CG311      CG2O2      OG302
   32    31    62    30	 9 ;      CG2O2      CG311      CG311      NG2S1
   32    31    62    68	 9 ;      CG2O2      CG311      CG311     CG2R61
   32    31    62   123	 9 ;      CG2O2      CG311      CG311       HGA1
   87    31    62    30	 9 ;       HGA1      CG311      CG311      NG2S1
   87    31    62    68	 9 ;       HGA1      CG311      CG311     CG2R61
   87    31    62   123	 9 ;       HGA1      CG311      CG311       HGA1
   74    31    62    30	 9 ;      OG301      CG311      CG311      NG2S1
   74    31    62    68	 9 ;      OG301      CG311      CG311     CG2R61
   74    31    62   123	 9 ;      OG301      CG311      CG311       HGA1
   32    31    74     7	 9 ;      CG2O2      CG311      OG301      CG301
   62    31    74     7	 9 ;      CG311      CG311      OG301      CG301
   87    31    74     7	 9 ;       HGA1      CG311      OG301      CG301
   31    32    76    33	 9 ;      CG311      CG2O2      OG302      CG311
   75    32    76    33	 9 ;      OG2D1      CG2O2      OG302      CG311
   50    33    34    35	 9 ;      CG2D1      CG311      CG321      CG301
   50    33    34    89	 9 ;      CG2D1      CG311      CG321       HGA2
   50    33    34    90	 9 ;      CG2D1      CG311      CG321       HGA2
   88    33    34    35	 9 ;       HGA1      CG311      CG321      CG301
   88    33    34    89	 9 ;       HGA1      CG311      CG321       HGA2
   88    33    34    90	 9 ;       HGA1      CG311      CG321       HGA2
   76    33    34    35	 9 ;      OG302      CG311      CG321      CG301
   76    33    34    89	 9 ;      OG302      CG311      CG321       HGA2
   76    33    34    90	 9 ;      OG302      CG311      CG321       HGA2
   34    33    50    49	 9 ;      CG321      CG311      CG2D1      CG2D1
   34    33    50    51	 9 ;      CG321      CG311      CG2D1      CG331
   88    33    50    49	 9 ;       HGA1      CG311      CG2D1      CG2D1
   88    33    50    51	 9 ;       HGA1      CG311      CG2D1      CG331
   76    33    50    49	 9 ;      OG302      CG311      CG2D1      CG2D1
   76    33    50    51	 9 ;      OG302      CG311      CG2D1      CG331
   34    33    76    32	 9 ;      CG321      CG311      OG302      CG2O2
   50    33    76    32	 9 ;      CG2D1      CG311      OG302      CG2O2
   88    33    76    32	 9 ;       HGA1      CG311      OG302      CG2O2
   33    34    35    36	 9 ;      CG311      CG321      CG301      CG311
   33    34    35    52	 9 ;      CG311      CG321      CG301      CG301
   33    34    35    77	 9 ;      CG311      CG321      CG301      OG311
   89    34    35    36	 9 ;       HGA2      CG321      CG301      CG311
   89    34    35    52	 9 ;       HGA2      CG321      CG301      CG301
   89    34    35    77	 9 ;       HGA2      CG321      CG301      OG311
   90    34    35    36	 9 ;       HGA2      CG321      CG301      CG311
   90    34    35    52	 9 ;       HGA2      CG321      CG301      CG301
   90    34    35    77	 9 ;       HGA2      CG321      CG301      OG311
   34    35    36    44	 9 ;      CG321      CG301      CG311      CG311
   34    35    36    78	 9 ;      CG321      CG301      CG311      OG302
   34    35    36    92	 9 ;      CG321      CG301      CG311       HGA1
   52    35    36    44	 9 ;      CG301      CG301      CG311      CG311
   52    35    36    78	 9 ;      CG301      CG301      CG311      OG302
   52    35    36    92	 9 ;      CG301      CG301      CG311       HGA1
   77    35    36    44	 9 ;      OG311      CG301      CG311      CG311
   77    35    36    78	 9 ;      OG311      CG301      CG311      OG302
   77    35    36    92	 9 ;      OG311      CG301      CG311       HGA1
   34    35    52    49	 9 ;      CG321      CG301      CG301      CG2D1
   34    35    52    53	 9 ;      CG321      CG301      CG301      CG331
   34    35    52    54	 9 ;      CG321      CG301      CG301      CG331
   36    35    52    49	 9 ;      CG311      CG301      CG301      CG2D1
   36    35    52    53	 9 ;      CG311      CG301      CG301      CG331
   36    35    52    54	 9 ;      CG311      CG301      CG301      CG331
   77    35    52    49	 9 ;      OG311      CG301      CG301      CG2D1
   77    35    52    53	 9 ;      OG311      CG301      CG301      CG331
   77    35    52    54	 9 ;      OG311      CG301      CG301      CG331
   34    35    77    91	 9 ;      CG321      CG301      OG311       HGP1
   36    35    77    91	 9 ;      CG311      CG301      OG311       HGP1
   52    35    77    91	 9 ;      CG301      CG301      OG311       HGP1
   35    36    44    45	 9 ;      CG301      CG311      CG311      CG301
   35    36    44    59	 9 ;      CG301      CG311      CG311     CG3RC1
   35    36    44    98	 9 ;      CG301      CG311      CG311       HGA1
   78    36    44    45	 9 ;      OG302      CG311      CG311      CG301
   78    36    44    59	 9 ;      OG302      CG311      CG311     CG3RC1
   78    36    44    98	 9 ;      OG302      CG311      CG311       HGA1
   92    36    44    45	 9 ;       HGA1      CG311      CG311      CG301
   92    36    44    59	 9 ;       HGA1      CG311      CG311     CG3RC1
   92    36    44    98	 9 ;       HGA1      CG311      CG311       HGA1
   35    36    78    37	 9 ;      CG301      CG311      OG302      CG2O2
   44    36    78    37	 9 ;      CG311      CG311      OG302      CG2O2
   92    36    78    37	 9 ;       HGA1      CG311      OG302      CG2O2
   79    37    38    39	 9 ;      OG2D1      CG2O2     CG2R61     CG2R61
   79    37    38    43	 9 ;      OG2D1      CG2O2     CG2R61     CG2R61
   78    37    38    39	 9 ;      OG302      CG2O2     CG2R61     CG2R61
   78    37    38    43	 9 ;      OG302      CG2O2     CG2R61     CG2R61
   38    37    78    36	 9 ;     CG2R61      CG2O2      OG302      CG311
   79    37    78    36	 9 ;      OG2D1      CG2O2      OG302      CG311
   37    38    39    40	 9 ;      CG2O2     CG2R61     CG2R61     CG2R61
   37    38    39    93	 9 ;      CG2O2     CG2R61     CG2R61      HGR61
   43    38    39    40	 9 ;     CG2R61     CG2R61     CG2R61     CG2R61
   43    38    39    93	 9 ;     CG2R61     CG2R61     CG2R61      HGR61
   37    38    43    42	 9 ;      CG2O2     CG2R61     CG2R61     CG2R61
   37    38    43    97	 9 ;      CG2O2     CG2R61     CG2R61      HGR61
   39    38    43    42	 9 ;     CG2R61     CG2R61     CG2R61     CG2R61
   39    38    43    97	 9 ;     CG2R61     CG2R61     CG2R61      HGR61
   38    39    40    41	 9 ;     CG2R61     CG2R61     CG2R61     CG2R61
   38    39    40    94	 9 ;     CG2R61     CG2R61     CG2R61      HGR61
   93    39    40    41	 9 ;      HGR61     CG2R61     CG2R61     CG2R61
   93    39    40    94	 9 ;      HGR61     CG2R61     CG2R61      HGR61
   39    40    41    42	 9 ;     CG2R61     CG2R61     CG2R61     CG2R61
   39    40    41    95	 9 ;     CG2R61     CG2R61     CG2R61      HGR61
   94    40    41    42	 9 ;      HGR61     CG2R61     CG2R61     CG2R61
   94    40    41    95	 9 ;      HGR61     CG2R61     CG2R61      HGR61
   40    41    42    43	 9 ;     CG2R61     CG2R61     CG2R61     CG2R61
   40    41    42    96	 9 ;     CG2R61     CG2R61     CG2R61      HGR61
   95    41    42    43	 9 ;      HGR61     CG2R61     CG2R61     CG2R61
   95    41    42    96	 9 ;      HGR61     CG2R61     CG2R61      HGR61
   41    42    43    38	 9 ;     CG2R61     CG2R61     CG2R61     CG2R61
   41    42    43    97	 9 ;     CG2R61     CG2R61     CG2R61      HGR61
   96    42    43    38	 9 ;      HGR61     CG2R61     CG2R61     CG2R61
   96    42    43    97	 9 ;      HGR61     CG2R61     CG2R61      HGR61
   36    44    45    46	 9 ;      CG311      CG311      CG301      CG331
   36    44    45    47	 9 ;      CG311      CG311      CG301      CG2O5
   36    44    45    55	 9 ;      CG311      CG311      CG301      CG311
   59    44    45    46	 9 ;     CG3RC1      CG311      CG301      CG331
   59    44    45    47	 9 ;     CG3RC1      CG311      CG301      CG2O5
   59    44    45    55	 9 ;     CG3RC1      CG311      CG301      CG311
   98    44    45    46	 9 ;       HGA1      CG311      CG301      CG331
   98    44    45    47	 9 ;       HGA1      CG311      CG301      CG2O5
   98    44    45    55	 9 ;       HGA1      CG311      CG301      CG311
   36    44    59    57	 9 ;      CG311      CG311     CG3RC1     CG3RC1
   36    44    59    58	 9 ;      CG311      CG311     CG3RC1     CG3C41
   36    44    59    84	 9 ;      CG311      CG311     CG3RC1      OG302
   45    44    59    57	 9 ;      CG301      CG311     CG3RC1     CG3RC1
   45    44    59    58	 9 ;      CG301      CG311     CG3RC1     CG3C41
   45    44    59    84	 9 ;      CG301      CG311     CG3RC1      OG302
   98    44    59    57	 9 ;       HGA1      CG311     CG3RC1     CG3RC1
   98    44    59    58	 9 ;       HGA1      CG311     CG3RC1     CG3C41
   98    44    59    84	 9 ;       HGA1      CG311     CG3RC1      OG302
   44    45    46    99	 9 ;      CG311      CG301      CG331       HGA3
   44    45    46   100	 9 ;      CG311      CG301      CG331       HGA3
   44    45    46   101	 9 ;      CG311      CG301      CG331       HGA3
   47    45    46    99	 9 ;      CG2O5      CG301      CG331       HGA3
   47    45    46   100	 9 ;      CG2O5      CG301      CG331       HGA3
   47    45    46   101	 9 ;      CG2O5      CG301      CG331       HGA3
   55    45    46    99	 9 ;      CG311      CG301      CG331       HGA3
   55    45    46   100	 9 ;      CG311      CG301      CG331       HGA3
   55    45    46   101	 9 ;      CG311      CG301      CG331       HGA3
   44    45    47    48	 9 ;      CG311      CG301      CG2O5      CG311
   44    45    47    80	 9 ;      CG311      CG301      CG2O5      OG2D3
   46    45    47    48	 9 ;      CG331      CG301      CG2O5      CG311
   46    45    47    80	 9 ;      CG331      CG301      CG2O5      OG2D3
   55    45    47    48	 9 ;      CG311      CG301      CG2O5      CG311
   55    45    47    80	 9 ;      CG311      CG301      CG2O5      OG2D3
   44    45    55    56	 9 ;      CG311      CG301      CG311      CG321
   44    45    55    82	 9 ;      CG311      CG301      CG311      OG311
   44    45    55   113	 9 ;      CG311      CG301      CG311       HGA1
   46    45    55    56	 9 ;      CG331      CG301      CG311      CG321
   46    45    55    82	 9 ;      CG331      CG301      CG311      OG311
   46    45    55   113	 9 ;      CG331      CG301      CG311       HGA1
   47    45    55    56	 9 ;      CG2O5      CG301      CG311      CG321
   47    45    55    82	 9 ;      CG2O5      CG301      CG311      OG311
   47    45    55   113	 9 ;      CG2O5      CG301      CG311       HGA1
   45    47    48    49	 9 ;      CG301      CG2O5      CG311      CG2D1
   45    47    48    81	 9 ;      CG301      CG2O5      CG311      OG311
   45    47    48   102	 9 ;      CG301      CG2O5      CG311       HGA1
   80    47    48    49	 9 ;      OG2D3      CG2O5      CG311      CG2D1
   80    47    48    81	 9 ;      OG2D3      CG2O5      CG311      OG311
   80    47    48   102	 9 ;      OG2D3      CG2O5      CG311       HGA1
   47    48    49    50	 9 ;      CG2O5      CG311      CG2D1      CG2D1
   47    48    49    52	 9 ;      CG2O5      CG311      CG2D1      CG301
   81    48    49    50	 9 ;      OG311      CG311      CG2D1      CG2D1
   81    48    49    52	 9 ;      OG311      CG311      CG2D1      CG301
  102    48    49    50	 9 ;       HGA1      CG311      CG2D1      CG2D1
  102    48    49    52	 9 ;       HGA1      CG311      CG2D1      CG301
   47    48    81   103	 9 ;      CG2O5      CG311      OG311       HGP1
   49    48    81   103	 9 ;      CG2D1      CG311      OG311       HGP1
  102    48    81   103	 9 ;       HGA1      CG311      OG311       HGP1
   48    49    50    33	 9 ;      CG311      CG2D1      CG2D1      CG311
   48    49    50    51	 9 ;      CG311      CG2D1      CG2D1      CG331
   52    49    50    33	 9 ;      CG301      CG2D1      CG2D1      CG311
   52    49    50    51	 9 ;      CG301      CG2D1      CG2D1      CG331
   48    49    52    35	 9 ;      CG311      CG2D1      CG301      CG301
   48    49    52    53	 9 ;      CG311      CG2D1      CG301      CG331
   48    49    52    54	 9 ;      CG311      CG2D1      CG301      CG331
   50    49    52    35	 9 ;      CG2D1      CG2D1      CG301      CG301
   50    49    52    53	 9 ;      CG2D1      CG2D1      CG301      CG331
   50    49    52    54	 9 ;      CG2D1      CG2D1      CG301      CG331
   33    50    51   104	 9 ;      CG311      CG2D1      CG331       HGA3
   33    50    51   105	 9 ;      CG311      CG2D1      CG331       HGA3
   33    50    51   106	 9 ;      CG311      CG2D1      CG331       HGA3
   49    50    51   104	 9 ;      CG2D1      CG2D1      CG331       HGA3
   49    50    51   105	 9 ;      CG2D1      CG2D1      CG331       HGA3
   49    50    51   106	 9 ;      CG2D1      CG2D1      CG331       HGA3
   35    52    53   107	 9 ;      CG301      CG301      CG331       HGA3
   35    52    53   108	 9 ;      CG301      CG301      CG331       HGA3
   35    52    53   109	 9 ;      CG301      CG301      CG331       HGA3
   49    52    53   107	 9 ;      CG2D1      CG301      CG331       HGA3
   49    52    53   108	 9 ;      CG2D1      CG301      CG331       HGA3
   49    52    53   109	 9 ;      CG2D1      CG301      CG331       HGA3
   54    52    53   107	 9 ;      CG331      CG301      CG331       HGA3
   54    52    53   108	 9 ;      CG331      CG301      CG331       HGA3
   54    52    53   109	 9 ;      CG331      CG301      CG331       HGA3
   35    52    54   110	 9 ;      CG301      CG301      CG331       HGA3
   35    52    54   111	 9 ;      CG301      CG301      CG331       HGA3
   35    52    54   112	 9 ;      CG301      CG301      CG331       HGA3
   49    52    54   110	 9 ;      CG2D1      CG301      CG331       HGA3
   49    52    54   111	 9 ;      CG2D1      CG301      CG331       HGA3
   49    52    54   112	 9 ;      CG2D1      CG301      CG331       HGA3
   53    52    54   110	 9 ;      CG331      CG301      CG331       HGA3
   53    52    54   111	 9 ;      CG331      CG301      CG331       HGA3
   53    52    54   112	 9 ;      CG331      CG301      CG331       HGA3
   45    55    56    57	 9 ;      CG301      CG311      CG321     CG3RC1
   45    55    56   115	 9 ;      CG301      CG311      CG321       HGA2
   45    55    56   116	 9 ;      CG301      CG311      CG321       HGA2
   82    55    56    57	 9 ;      OG311      CG311      CG321     CG3RC1
   82    55    56   115	 9 ;      OG311      CG311      CG321       HGA2
   82    55    56   116	 9 ;      OG311      CG311      CG321       HGA2
  113    55    56    57	 9 ;       HGA1      CG311      CG321     CG3RC1
  113    55    56   115	 9 ;       HGA1      CG311      CG321       HGA2
  113    55    56   116	 9 ;       HGA1      CG311      CG321       HGA2
   45    55    82   114	 9 ;      CG301      CG311      OG311       HGP1
   56    55    82   114	 9 ;      CG321      CG311      OG311       HGP1
  113    55    82   114	 9 ;       HGA1      CG311      OG311       HGP1
   55    56    57    59	 9 ;      CG311      CG321     CG3RC1     CG3RC1
   55    56    57    83	 9 ;      CG311      CG321     CG3RC1     OG3C51
   55    56    57   117	 9 ;      CG311      CG321     CG3RC1       HGA1
  115    56    57    59	 9 ;       HGA2      CG321     CG3RC1     CG3RC1
  115    56    57    83	 9 ;       HGA2      CG321     CG3RC1     OG3C51
  115    56    57   117	 9 ;       HGA2      CG321     CG3RC1       HGA1
  116    56    57    59	 9 ;       HGA2      CG321     CG3RC1     CG3RC1
  116    56    57    83	 9 ;       HGA2      CG321     CG3RC1     OG3C51
  116    56    57   117	 9 ;       HGA2      CG321     CG3RC1       HGA1
   56    57    59    44	 9 ;      CG321     CG3RC1     CG3RC1      CG311
   56    57    59    58	 9 ;      CG321     CG3RC1     CG3RC1     CG3C41
   56    57    59    84	 9 ;      CG321     CG3RC1     CG3RC1      OG302
   83    57    59    44	 9 ;     OG3C51     CG3RC1     CG3RC1      CG311
   83    57    59    58	 9 ;     OG3C51     CG3RC1     CG3RC1     CG3C41
   83    57    59    84	 9 ;     OG3C51     CG3RC1     CG3RC1      OG302
  117    57    59    44	 9 ;       HGA1     CG3RC1     CG3RC1      CG311
  117    57    59    58	 9 ;       HGA1     CG3RC1     CG3RC1     CG3C41
  117    57    59    84	 9 ;       HGA1     CG3RC1     CG3RC1      OG302
   56    57    83    58	 9 ;      CG321     CG3RC1     OG3C51     CG3C41
   59    57    83    58	 9 ;     CG3RC1     CG3RC1     OG3C51     CG3C41
  117    57    83    58	 9 ;       HGA1     CG3RC1     OG3C51     CG3C41
  118    58    59    44	 9 ;       HGA2     CG3C41     CG3RC1      CG311
  118    58    59    57	 9 ;       HGA2     CG3C41     CG3RC1     CG3RC1
  118    58    59    84	 9 ;       HGA2     CG3C41     CG3RC1      OG302
  119    58    59    44	 9 ;       HGA2     CG3C41     CG3RC1      CG311
  119    58    59    57	 9 ;       HGA2     CG3C41     CG3RC1     CG3RC1
  119    58    59    84	 9 ;       HGA2     CG3C41     CG3RC1      OG302
   83    58    59    44	 9 ;     OG3C51     CG3C41     CG3RC1      CG311
   83    58    59    57	 9 ;     OG3C51     CG3C41     CG3RC1     CG3RC1
   83    58    59    84	 9 ;     OG3C51     CG3C41     CG3RC1      OG302
   59    58    83    57	 9 ;     CG3RC1     CG3C41     OG3C51     CG3RC1
  118    58    83    57	 9 ;       HGA2     CG3C41     OG3C51     CG3RC1
  119    58    83    57	 9 ;       HGA2     CG3C41     OG3C51     CG3RC1
   44    59    84    60	 9 ;      CG311     CG3RC1      OG302      CG2O2
   57    59    84    60	 9 ;     CG3RC1     CG3RC1      OG302      CG2O2
   58    59    84    60	 9 ;     CG3C41     CG3RC1      OG302      CG2O2
   85    60    61   120	 9 ;      OG2D1      CG2O2      CG331       HGA3
   85    60    61   121	 9 ;      OG2D1      CG2O2      CG331       HGA3
   85    60    61   122	 9 ;      OG2D1      CG2O2      CG331       HGA3
   84    60    61   120	 9 ;      OG302      CG2O2      CG331       HGA3
   84    60    61   121	 9 ;      OG302      CG2O2      CG331       HGA3
   84    60    61   122	 9 ;      OG302      CG2O2      CG331       HGA3
   61    60    84    59	 9 ;      CG331      CG2O2      OG302     CG3RC1
   85    60    84    59	 9 ;      OG2D1      CG2O2      OG302     CG3RC1
   31    62    68    69	 9 ;      CG311      CG311     CG2R61     CG2R61
   31    62    68    73	 9 ;      CG311      CG311     CG2R61     CG2R61
   30    62    68    69	 9 ;      NG2S1      CG311     CG2R61     CG2R61
   30    62    68    73	 9 ;      NG2S1      CG311     CG2R61     CG2R61
  123    62    68    69	 9 ;       HGA1      CG311     CG2R61     CG2R61
  123    62    68    73	 9 ;       HGA1      CG311     CG2R61     CG2R61
   30    63    64    65	 9 ;      NG2S1      CG2O1      CG301      CG331
   30    63    64    66	 9 ;      NG2S1      CG2O1      CG301      CG331
   30    63    64    67	 9 ;      NG2S1      CG2O1      CG301      CG331
   86    63    64    65	 9 ;      OG2D1      CG2O1      CG301      CG331
   86    63    64    66	 9 ;      OG2D1      CG2O1      CG301      CG331
   86    63    64    67	 9 ;      OG2D1      CG2O1      CG301      CG331
   63    64    65   125	 9 ;      CG2O1      CG301      CG331       HGA3
   63    64    65   126	 9 ;      CG2O1      CG301      CG331       HGA3
   63    64    65   127	 9 ;      CG2O1      CG301      CG331       HGA3
   66    64    65   125	 9 ;      CG331      CG301      CG331       HGA3
   66    64    65   126	 9 ;      CG331      CG301      CG331       HGA3
   66    64    65   127	 9 ;      CG331      CG301      CG331       HGA3
   67    64    65   125	 9 ;      CG331      CG301      CG331       HGA3
   67    64    65   126	 9 ;      CG331      CG301      CG331       HGA3
   67    64    65   127	 9 ;      CG331      CG301      CG331       HGA3
   63    64    66   128	 9 ;      CG2O1      CG301      CG331       HGA3
   63    64    66   129	 9 ;      CG2O1      CG301      CG331       HGA3
   63    64    66   130	 9 ;      CG2O1      CG301      CG331       HGA3
   65    64    66   128	 9 ;      CG331      CG301      CG331       HGA3
   65    64    66   129	 9 ;      CG331      CG301      CG331       HGA3
   65    64    66   130	 9 ;      CG331      CG301      CG331       HGA3
   67    64    66   128	 9 ;      CG331      CG301      CG331       HGA3
   67    64    66   129	 9 ;      CG331      CG301      CG331       HGA3
   67    64    66   130	 9 ;      CG331      CG301      CG331       HGA3
   63    64    67   131	 9 ;      CG2O1      CG301      CG331       HGA3
   63    64    67   132	 9 ;      CG2O1      CG301      CG331       HGA3
   63    64    67   133	 9 ;      CG2O1      CG301      CG331       HGA3
   65    64    67   131	 9 ;      CG331      CG301      CG331       HGA3
   65    64    67   132	 9 ;      CG331      CG301      CG331       HGA3
   65    64    67   133	 9 ;      CG331      CG301      CG331       HGA3
   66    64    67   131	 9 ;      CG331      CG301      CG331       HGA3
   66    64    67   132	 9 ;      CG331      CG301      CG331       HGA3
   66    64    67   133	 9 ;      CG331      CG301      CG331       HGA3
   62    68    69    70	 9 ;      CG311     CG2R61     CG2R61     CG2R61
   62    68    69   134	 9 ;      CG311     CG2R61     CG2R61      HGR61
   73    68    69    70	 9 ;     CG2R61     CG2R61     CG2R61     CG2R61
   73    68    69   134	 9 ;     CG2R61     CG2R61     CG2R61      HGR61
   62    68    73    72	 9 ;      CG311     CG2R61     CG2R61     CG2R61
   62    68    73   138	 9 ;      CG311     CG2R61     CG2R61      HGR61
   69    68    73    72	 9 ;     CG2R61     CG2R61     CG2R61     CG2R61
   69    68    73   138	 9 ;     CG2R61     CG2R61     CG2R61      HGR61
   68    69    70    71	 9 ;     CG2R61     CG2R61     CG2R61     CG2R61
   68    69    70   135	 9 ;     CG2R61     CG2R61     CG2R61      HGR61
  134    69    70    71	 9 ;      HGR61     CG2R61     CG2R61     CG2R61
  134    69    70   135	 9 ;      HGR61     CG2R61     CG2R61      HGR61
   69    70    71    72	 9 ;     CG2R61     CG2R61     CG2R61     CG2R61
   69    70    71   136	 9 ;     CG2R61     CG2R61     CG2R61      HGR61
  135    70    71    72	 9 ;      HGR61     CG2R61     CG2R61     CG2R61
  135    70    71   136	 9 ;      HGR61     CG2R61     CG2R61      HGR61
   70    71    72    73	 9 ;     CG2R61     CG2R61     CG2R61     CG2R61
   70    71    72   137	 9 ;     CG2R61     CG2R61     CG2R61      HGR61
  136    71    72    73	 9 ;      HGR61     CG2R61     CG2R61     CG2R61
  136    71    72   137	 9 ;      HGR61     CG2R61     CG2R61      HGR61
   71    72    73    68	 9 ;     CG2R61     CG2R61     CG2R61     CG2R61
   71    72    73   138	 9 ;     CG2R61     CG2R61     CG2R61      HGR61
  137    72    73    68	 9 ;      HGR61     CG2R61     CG2R61     CG2R61
  137    72    73   138	 9 ;      HGR61     CG2R61     CG2R61      HGR61

[ dihedrals ]
;	ai	  aj	ak	  al funct			  c0			c1			  c2			c3
   32    31    75    76	 2
   37    38    79    78	 2
   47    45    48    80	 2
   60    61    85    84	 2
   63    64    30    86	 2

