; Created by cgenff_charmm2gmx.py

[ moleculetype ]
; Name			   nrexcl
PTX				 3

[ atoms ]
;	 nr		  type	resnr residue  atom   cgnr	   charge		mass  typeB    chargeB		massB
; residue	 1 PTX rtp PTX q	qsum
     1      CG331      1    PTL     C1      1     -0.273     12.011   ;
     2      CG321      1    PTL     C2      2     -0.177     12.011   ;
     3      CG321      1    PTL     C3      3     -0.181     12.011   ;
     4      CG321      1    PTL     C4      4     -0.179     12.011   ;
     5      CG321      1    PTL     C5      5     -0.180     12.011   ;
     6      CG321      1    PTL     C6      6     -0.180     12.011   ;
     7      CG321      1    PTL     C7      7     -0.180     12.011   ;
     8      CG321      1    PTL     C8      8     -0.180     12.011   ;
     9      CG321      1    PTL     C9      9     -0.180     12.011   ;
    10      CG321      1    PTL    C10     10     -0.180     12.011   ;
    11      CG321      1    PTL    C11     11     -0.180     12.011   ;
    12      CG321      1    PTL    C12     12     -0.180     12.011   ;
    13      CG321      1    PTL    C13     13     -0.180     12.011   ;
    14      CG321      1    PTL    C14     14      0.036     12.011   ;
    15      CG301      1    PTL    C15     15      0.391     12.011   ;
    16      CG331      1    PTL    C16     16     -0.269     12.011   ;
    17      CG331      1    PTL    C17     17     -0.269     12.011   ;
    18      OG301      1    PTL     O1     18     -0.402     15.999   ;
    19       HGA3      1    PTL     H1     19      0.090      1.008   ;
    20       HGA3      1    PTL     H2     20      0.090      1.008   ;
    21       HGA3      1    PTL     H3     21      0.090      1.008   ;
    22       HGA2      1    PTL     H4     22      0.090      1.008   ;
    23       HGA2      1    PTL     H5     23      0.090      1.008   ;
    24       HGA2      1    PTL     H6     24      0.090      1.008   ;
    25       HGA2      1    PTL     H7     25      0.090      1.008   ;
    26       HGA2      1    PTL     H8     26      0.090      1.008   ;
    27       HGA2      1    PTL     H9     27      0.090      1.008   ;
    28       HGA2      1    PTL    H10     28      0.090      1.008   ;
    29       HGA2      1    PTL    H11     29      0.090      1.008   ;
    30       HGA2      1    PTL    H12     30      0.090      1.008   ;
    31       HGA2      1    PTL    H13     31      0.090      1.008   ;
    32       HGA2      1    PTL    H14     32      0.090      1.008   ;
    33       HGA2      1    PTL    H15     33      0.090      1.008   ;
    34       HGA2      1    PTL    H16     34      0.090      1.008   ;
    35       HGA2      1    PTL    H17     35      0.090      1.008   ;
    36       HGA2      1    PTL    H18     36      0.090      1.008   ;
    37       HGA2      1    PTL    H19     37      0.090      1.008   ;
    38       HGA2      1    PTL    H20     38      0.090      1.008   ;
    39       HGA2      1    PTL    H21     39      0.090      1.008   ;
    40       HGA2      1    PTL    H22     40      0.090      1.008   ;
    41       HGA2      1    PTL    H23     41      0.090      1.008   ;
    42       HGA2      1    PTL    H24     42      0.090      1.008   ;
    43       HGA2      1    PTL    H25     43      0.090      1.008   ;
    44       HGA2      1    PTL    H26     44      0.090      1.008   ;
    45       HGA2      1    PTL    H27     45      0.090      1.008   ;
    46       HGA2      1    PTL    H28     46      0.090      1.008   ;
    47       HGA2      1    PTL    H29     47      0.090      1.008   ;
    48       HGA3      1    PTL    H30     48      0.090      1.008   ;
    49       HGA3      1    PTL    H31     49      0.090      1.008   ;
    50       HGA3      1    PTL    H32     50      0.090      1.008   ;
    51       HGA3      1    PTL    H33     51      0.090      1.008   ;
    52       HGA3      1    PTL    H34     52      0.090      1.008   ;
    53       HGA3      1    PTL    H35     53      0.090      1.008   ;
    54      NG2S1      1    PTX      N     54     -0.404     14.007   ;
    55      CG311      1    PTX    C18     55      0.183     12.011   ;
    56      CG2O2      1    PTX    C19     56      0.850     12.011   ;
    57      CG311      1    PTX    C20     57      0.272     12.011   ;
    58      CG321      1    PTX    C21     58     -0.212     12.011   ;
    59      CG301      1    PTX    C22     59      0.186     12.011   ;
    60      CG311      1    PTX    C23     60      0.133     12.011   ;
    61      CG2O2      1    PTX    C24     61      0.459     12.011   ;
    62     CG2R61      1    PTX    C25     62      0.086     12.011   ;
    63     CG2R61      1    PTX    C26     63     -0.110     12.011   ;
    64     CG2R61      1    PTX    C27     64     -0.114     12.011   ;
    65     CG2R61      1    PTX    C28     65     -0.115     12.011   ;
    66     CG2R61      1    PTX    C29     66     -0.114     12.011   ;
    67     CG2R61      1    PTX    C30     67     -0.110     12.011   ;
    68      CG311      1    PTX    C31     68     -0.074     12.011   ;
    69      CG301      1    PTX    C32     69      0.081     12.011   ;
    70      CG331      1    PTX    C33     70     -0.263     12.011   ;
    71      CG2O5      1    PTX    C34     71      0.297     12.011   ;
    72      CG311      1    PTX    C35     72      0.432     12.011   ;
    73      CG2O2      1    PTX    C36     73      0.834     12.011   ;
    74      CG331      1    PTX    C37     74     -0.311     12.011   ;
    75      CG2D1      1    PTX    C38     75     -0.113     12.011   ;
    76      CG2D1      1    PTX    C39     76     -0.153     12.011   ;
    77      CG331      1    PTX    C40     77     -0.265     12.011   ;
    78      CG301      1    PTX    C41     78      0.016     12.011   ;
    79      CG331      1    PTX    C42     79     -0.269     12.011   ;
    80      CG331      1    PTX    C43     80     -0.269     12.011   ;
    81      CG311      1    PTX    C44     81      0.166     12.011   ;
    82      CG321      1    PTX    C45     82     -0.201     12.011   ;
    83     CG3RC1      1    PTX    C46     83      0.015     12.011   ;
    84     CG3C41      1    PTX    C47     84     -0.106     12.011   ;
    85     CG3RC1      1    PTX    C48     85      0.366     12.011   ;
    86      CG2O2      1    PTX    C49     86      0.885     12.011   ;
    87      CG331      1    PTX    C50     87     -0.313     12.011   ;
    88      CG311      1    PTX    C51     88      0.127     12.011   ;
    89      CG2O1      1    PTX    C52     89      0.341     12.011   ;
    90     CG2R61      1    PTX    C53     90     -0.137     12.011   ;
    91     CG2R61      1    PTX    C54     91     -0.024     12.011   ;
    92     CG2R61      1    PTX    C55     92     -0.109     12.011   ;
    93     CG2R61      1    PTX    C56     93     -0.115     12.011   ;
    94     CG2R61      1    PTX    C57     94     -0.109     12.011   ;
    95     CG2R61      1    PTX    C58     95     -0.024     12.011   ;
    96     CG2R61      1    PTX    C59     96     -0.040     12.011   ;
    97     CG2R61      1    PTX    C60     97     -0.106     12.011   ;
    98     CG2R61      1    PTX    C61     98     -0.115     12.011   ;
    99     CG2R61      1    PTX    C62     99     -0.115     12.011   ;
   100     CG2R61      1    PTX    C63    100     -0.115     12.011   ;
   101     CG2R61      1    PTX    C64    101     -0.106     12.011   ;
   102      OG301      1    PTX     O2    102     -0.506     15.999   ;
   103      OG2D1      1    PTX     O3    103     -0.623     15.999   ;
   104      OG302      1    PTX     O4    104     -0.432     15.999   ;
   105      OG311      1    PTX     O5    105     -0.460     15.999   ;
   106      OG302      1    PTX     O6    106     -0.310     15.999   ;
   107      OG2D1      1    PTX     O7    107     -0.496     15.999   ;
   108      OG2D3      1    PTX     O8    108     -0.515     15.999   ;
   109      OG302      1    PTX     O9    109     -0.427     15.999   ;
   110      OG2D1      1    PTX    O10    110     -0.625     15.999   ;
   111      OG311      1    PTX    O11    111     -0.642     15.999   ;
   112     OG3C51      1    PTX    O12    112     -0.343     15.999   ;
   113      OG302      1    PTX    O13    113     -0.422     15.999   ;
   114      OG2D1      1    PTX    O14    114     -0.617     15.999   ;
   115      OG2D1      1    PTX    O15    115     -0.458     15.999   ;
   116       HGA1      1    PTX    H36    116      0.090      1.008   ;
   117       HGA1      1    PTX    H37    117      0.090      1.008   ;
   118       HGA2      1    PTX    H38    118      0.090      1.008   ;
   119       HGA2      1    PTX    H39    119      0.090      1.008   ;
   120       HGP1      1    PTX    H40    120      0.292      1.008   ;
   121       HGA1      1    PTX    H41    121      0.090      1.008   ;
   122      HGR61      1    PTX    H42    122      0.115      1.008   ;
   123      HGR61      1    PTX    H43    123      0.115      1.008   ;
   124      HGR61      1    PTX    H44    124      0.115      1.008   ;
   125      HGR61      1    PTX    H45    125      0.115      1.008   ;
   126      HGR61      1    PTX    H46    126      0.115      1.008   ;
   127       HGA1      1    PTX    H47    127      0.090      1.008   ;
   128       HGA3      1    PTX    H48    128      0.090      1.008   ;
   129       HGA3      1    PTX    H49    129      0.090      1.008   ;
   130       HGA3      1    PTX    H50    130      0.090      1.008   ;
   131       HGA1      1    PTX    H51    131      0.090      1.008   ;
   132       HGA3      1    PTX    H52    132      0.090      1.008   ;
   133       HGA3      1    PTX    H53    133      0.090      1.008   ;
   134       HGA3      1    PTX    H54    134      0.090      1.008   ;
   135       HGA3      1    PTX    H55    135      0.090      1.008   ;
   136       HGA3      1    PTX    H56    136      0.090      1.008   ;
   137       HGA3      1    PTX    H57    137      0.090      1.008   ;
   138       HGA3      1    PTX    H58    138      0.090      1.008   ;
   139       HGA3      1    PTX    H59    139      0.090      1.008   ;
   140       HGA3      1    PTX    H60    140      0.090      1.008   ;
   141       HGA3      1    PTX    H61    141      0.090      1.008   ;
   142       HGA3      1    PTX    H62    142      0.090      1.008   ;
   143       HGA3      1    PTX    H63    143      0.090      1.008   ;
   144       HGA1      1    PTX    H64    144      0.090      1.008   ;
   145       HGP1      1    PTX    H65    145      0.400      1.008   ;
   146       HGA2      1    PTX    H66    146      0.090      1.008   ;
   147       HGA2      1    PTX    H67    147      0.090      1.008   ;
   148       HGA1      1    PTX    H68    148      0.090      1.008   ;
   149       HGA2      1    PTX    H69    149      0.090      1.008   ;
   150       HGA2      1    PTX    H70    150      0.090      1.008   ;
   151       HGA3      1    PTX    H71    151      0.090      1.008   ;
   152       HGA3      1    PTX    H72    152      0.090      1.008   ;
   153       HGA3      1    PTX    H73    153      0.090      1.008   ;
   154       HGA1      1    PTX    H74    154      0.090      1.008   ;
   155       HGP1      1    PTX    H75    155      0.274      1.008   ;
   156      HGR61      1    PTX    H76    156      0.115      1.008   ;
   157      HGR61      1    PTX    H77    157      0.115      1.008   ;
   158      HGR61      1    PTX    H78    158      0.115      1.008   ;
   159      HGR61      1    PTX    H79    159      0.115      1.008   ;
   160      HGR61      1    PTX    H80    160      0.115      1.008   ;
   161      HGR61      1    PTX    H81    161      0.115      1.008   ;
   162      HGR61      1    PTX    H82    162      0.115      1.008   ;
   163      HGR61      1    PTX    H83    163      0.115      1.008   ;
   164      HGR61      1    PTX    H84    164      0.115      1.008   ;
   165      HGR61      1    PTX    H85    165      0.115      1.008   ;

[ bonds ]
;	ai	  aj funct			  c0			c1			  c2			c3
    1     2	 1 ;       CG331      CG321
    1    19	 1 ;       CG331       HGA3
    1    20	 1 ;       CG331       HGA3
    1    21	 1 ;       CG331       HGA3
    2     3	 1 ;       CG321      CG321
    2    22	 1 ;       CG321       HGA2
    2    23	 1 ;       CG321       HGA2
    3     4	 1 ;       CG321      CG321
    3    24	 1 ;       CG321       HGA2
    3    25	 1 ;       CG321       HGA2
    4     5	 1 ;       CG321      CG321
    4    26	 1 ;       CG321       HGA2
    4    27	 1 ;       CG321       HGA2
    5     6	 1 ;       CG321      CG321
    5    28	 1 ;       CG321       HGA2
    5    29	 1 ;       CG321       HGA2
    6     7	 1 ;       CG321      CG321
    6    30	 1 ;       CG321       HGA2
    6    31	 1 ;       CG321       HGA2
    7     8	 1 ;       CG321      CG321
    7    32	 1 ;       CG321       HGA2
    7    33	 1 ;       CG321       HGA2
    8     9	 1 ;       CG321      CG321
    8    34	 1 ;       CG321       HGA2
    8    35	 1 ;       CG321       HGA2
    9    10	 1 ;       CG321      CG321
    9    36	 1 ;       CG321       HGA2
    9    37	 1 ;       CG321       HGA2
   10    11	 1 ;       CG321      CG321
   10    38	 1 ;       CG321       HGA2
   10    39	 1 ;       CG321       HGA2
   11    12	 1 ;       CG321      CG321
   11    40	 1 ;       CG321       HGA2
   11    41	 1 ;       CG321       HGA2
   12    13	 1 ;       CG321      CG321
   12    42	 1 ;       CG321       HGA2
   12    43	 1 ;       CG321       HGA2
   13    14	 1 ;       CG321      CG321
   13    44	 1 ;       CG321       HGA2
   13    45	 1 ;       CG321       HGA2
   14    18	 1 ;       CG321      OG301
   14    46	 1 ;       CG321       HGA2
   14    47	 1 ;       CG321       HGA2
   15    16	 1 ;       CG301      CG331
   15    17	 1 ;       CG301      CG331
   15   102	 1 ;       CG301      OG301
   15    18	 1 ;       CG301      OG301
   16    48	 1 ;       CG331       HGA3
   16    49	 1 ;       CG331       HGA3
   16    50	 1 ;       CG331       HGA3
   17    51	 1 ;       CG331       HGA3
   17    52	 1 ;       CG331       HGA3
   17    53	 1 ;       CG331       HGA3
   54    89	 1 ;       NG2S1      CG2O1
   54   155	 1 ;       NG2S1       HGP1
   54    88	 1 ;       NG2S1      CG311
   55    56	 1 ;       CG311      CG2O2
   55    88	 1 ;       CG311      CG311
   55   116	 1 ;       CG311       HGA1
   55   102	 1 ;       CG311      OG301
   56   103	 1 ;       CG2O2      OG2D1
   56   104	 1 ;       CG2O2      OG302
   57    58	 1 ;       CG311      CG321
   57    76	 1 ;       CG311      CG2D1
   57   117	 1 ;       CG311       HGA1
   57   104	 1 ;       CG311      OG302
   58    59	 1 ;       CG321      CG301
   58   118	 1 ;       CG321       HGA2
   58   119	 1 ;       CG321       HGA2
   59    60	 1 ;       CG301      CG311
   59    78	 1 ;       CG301      CG301
   59   105	 1 ;       CG301      OG311
   60    68	 1 ;       CG311      CG311
   60   106	 1 ;       CG311      OG302
   60   121	 1 ;       CG311       HGA1
   61    62	 1 ;       CG2O2     CG2R61
   61   107	 1 ;       CG2O2      OG2D1
   61   106	 1 ;       CG2O2      OG302
   62    63	 1 ;      CG2R61     CG2R61
   62    67	 1 ;      CG2R61     CG2R61
   63    64	 1 ;      CG2R61     CG2R61
   63   122	 1 ;      CG2R61      HGR61
   64    65	 1 ;      CG2R61     CG2R61
   64   123	 1 ;      CG2R61      HGR61
   65    66	 1 ;      CG2R61     CG2R61
   65   124	 1 ;      CG2R61      HGR61
   66    67	 1 ;      CG2R61     CG2R61
   66   125	 1 ;      CG2R61      HGR61
   67   126	 1 ;      CG2R61      HGR61
   68    69	 1 ;       CG311      CG301
   68    85	 1 ;       CG311     CG3RC1
   68   127	 1 ;       CG311       HGA1
   69    70	 1 ;       CG301      CG331
   69    71	 1 ;       CG301      CG2O5
   69    81	 1 ;       CG301      CG311
   70   128	 1 ;       CG331       HGA3
   70   129	 1 ;       CG331       HGA3
   70   130	 1 ;       CG331       HGA3
   71    72	 1 ;       CG2O5      CG311
   71   108	 1 ;       CG2O5      OG2D3
   72    75	 1 ;       CG311      CG2D1
   72   109	 1 ;       CG311      OG302
   72   131	 1 ;       CG311       HGA1
   73    74	 1 ;       CG2O2      CG331
   73   110	 1 ;       CG2O2      OG2D1
   73   109	 1 ;       CG2O2      OG302
   74   132	 1 ;       CG331       HGA3
   74   133	 1 ;       CG331       HGA3
   74   134	 1 ;       CG331       HGA3
   75    76	 1 ;       CG2D1      CG2D1
   75    78	 1 ;       CG2D1      CG301
   76    77	 1 ;       CG2D1      CG331
   77   135	 1 ;       CG331       HGA3
   77   136	 1 ;       CG331       HGA3
   77   137	 1 ;       CG331       HGA3
   78    79	 1 ;       CG301      CG331
   78    80	 1 ;       CG301      CG331
   79   138	 1 ;       CG331       HGA3
   79   139	 1 ;       CG331       HGA3
   79   140	 1 ;       CG331       HGA3
   80   141	 1 ;       CG331       HGA3
   80   142	 1 ;       CG331       HGA3
   80   143	 1 ;       CG331       HGA3
   81    82	 1 ;       CG311      CG321
   81   111	 1 ;       CG311      OG311
   81   144	 1 ;       CG311       HGA1
   82    83	 1 ;       CG321     CG3RC1
   82   146	 1 ;       CG321       HGA2
   82   147	 1 ;       CG321       HGA2
   83    85	 1 ;      CG3RC1     CG3RC1
   83   112	 1 ;      CG3RC1     OG3C51
   83   148	 1 ;      CG3RC1       HGA1
   84    85	 1 ;      CG3C41     CG3RC1
   84   149	 1 ;      CG3C41       HGA2
   84   150	 1 ;      CG3C41       HGA2
   84   112	 1 ;      CG3C41     OG3C51
   85   113	 1 ;      CG3RC1      OG302
   86    87	 1 ;       CG2O2      CG331
   86   114	 1 ;       CG2O2      OG2D1
   86   113	 1 ;       CG2O2      OG302
   87   151	 1 ;       CG331       HGA3
   87   152	 1 ;       CG331       HGA3
   87   153	 1 ;       CG331       HGA3
   88    96	 1 ;       CG311     CG2R61
   88   154	 1 ;       CG311       HGA1
   89    90	 1 ;       CG2O1     CG2R61
   89   115	 1 ;       CG2O1      OG2D1
   90    91	 1 ;      CG2R61     CG2R61
   90    95	 1 ;      CG2R61     CG2R61
   91    92	 1 ;      CG2R61     CG2R61
   91   156	 1 ;      CG2R61      HGR61
   92    93	 1 ;      CG2R61     CG2R61
   92   157	 1 ;      CG2R61      HGR61
   93    94	 1 ;      CG2R61     CG2R61
   93   158	 1 ;      CG2R61      HGR61
   94    95	 1 ;      CG2R61     CG2R61
   94   159	 1 ;      CG2R61      HGR61
   95   160	 1 ;      CG2R61      HGR61
   96    97	 1 ;      CG2R61     CG2R61
   96   101	 1 ;      CG2R61     CG2R61
   97    98	 1 ;      CG2R61     CG2R61
   97   161	 1 ;      CG2R61      HGR61
   98    99	 1 ;      CG2R61     CG2R61
   98   162	 1 ;      CG2R61      HGR61
   99   100	 1 ;      CG2R61     CG2R61
   99   163	 1 ;      CG2R61      HGR61
  100   101	 1 ;      CG2R61     CG2R61
  100   164	 1 ;      CG2R61      HGR61
  101   165	 1 ;      CG2R61      HGR61
  105   120	 1 ;       OG311       HGP1
  111   145	 1 ;       OG311       HGP1

[ pairs ]
;	ai	  aj funct			  c0			c1			  c2			c3
    1     4	 1
    1    24	 1
    1    25	 1
    2     5	 1
    2    26	 1
    2    27	 1
    3    19	 1
    3    20	 1
    3    21	 1
    3     6	 1
    3    28	 1
    3    29	 1
    4    22	 1
    4    23	 1
    4     7	 1
    4    30	 1
    4    31	 1
    5    24	 1
    5    25	 1
    5     8	 1
    5    32	 1
    5    33	 1
    6    26	 1
    6    27	 1
    6     9	 1
    6    34	 1
    6    35	 1
    7    28	 1
    7    29	 1
    7    10	 1
    7    36	 1
    7    37	 1
    8    30	 1
    8    31	 1
    8    11	 1
    8    38	 1
    8    39	 1
    9    32	 1
    9    33	 1
    9    12	 1
    9    40	 1
    9    41	 1
   10    34	 1
   10    35	 1
   10    13	 1
   10    42	 1
   10    43	 1
   11    36	 1
   11    37	 1
   11    14	 1
   11    44	 1
   11    45	 1
   12    38	 1
   12    39	 1
   12    18	 1
   12    46	 1
   12    47	 1
   13    40	 1
   13    41	 1
   13    15	 1
   14    42	 1
   14    43	 1
   14    16	 1
   14    17	 1
   14   102	 1
   15    46	 1
   15    47	 1
   15    56	 1
   15    88	 1
   15   116	 1
   16    51	 1
   16    52	 1
   16    53	 1
   16    55	 1
   17    48	 1
   17    49	 1
   17    50	 1
   17    55	 1
   18    44	 1
   18    45	 1
   18    48	 1
   18    49	 1
   18    50	 1
   18    51	 1
   18    52	 1
   18    53	 1
   18    55	 1
   19    22	 1
   19    23	 1
   20    22	 1
   20    23	 1
   21    22	 1
   21    23	 1
   22    24	 1
   22    25	 1
   23    24	 1
   23    25	 1
   24    26	 1
   24    27	 1
   25    26	 1
   25    27	 1
   26    28	 1
   26    29	 1
   27    28	 1
   27    29	 1
   28    30	 1
   28    31	 1
   29    30	 1
   29    31	 1
   30    32	 1
   30    33	 1
   31    32	 1
   31    33	 1
   32    34	 1
   32    35	 1
   33    34	 1
   33    35	 1
   34    36	 1
   34    37	 1
   35    36	 1
   35    37	 1
   36    38	 1
   36    39	 1
   37    38	 1
   37    39	 1
   38    40	 1
   38    41	 1
   39    40	 1
   39    41	 1
   40    42	 1
   40    43	 1
   41    42	 1
   41    43	 1
   42    44	 1
   42    45	 1
   43    44	 1
   43    45	 1
   44    46	 1
   44    47	 1
   45    46	 1
   45    47	 1
   48   102	 1
   49   102	 1
   50   102	 1
   51   102	 1
   52   102	 1
   53   102	 1
   54    56	 1
   54   116	 1
   54   102	 1
   54    97	 1
   54   101	 1
   54    91	 1
   54    95	 1
   55    89	 1
   55   155	 1
   55    57	 1
   55    97	 1
   55   101	 1
   56    96	 1
   56   154	 1
   56    58	 1
   56    76	 1
   56   117	 1
   57   103	 1
   57    60	 1
   57    78	 1
   57   105	 1
   57    72	 1
   57   135	 1
   57   136	 1
   57   137	 1
   58    75	 1
   58    77	 1
   58    68	 1
   58   106	 1
   58   121	 1
   58    79	 1
   58    80	 1
   58   120	 1
   59    76	 1
   59   117	 1
   59   104	 1
   59    69	 1
   59    85	 1
   59   127	 1
   59    61	 1
   59    72	 1
   59   138	 1
   59   139	 1
   59   140	 1
   59   141	 1
   59   142	 1
   59   143	 1
   60   118	 1
   60   119	 1
   60    75	 1
   60    79	 1
   60    80	 1
   60   120	 1
   60    62	 1
   60   107	 1
   60    70	 1
   60    71	 1
   60    81	 1
   60    83	 1
   60    84	 1
   60   113	 1
   61    68	 1
   61   121	 1
   61    64	 1
   61   122	 1
   61    66	 1
   61   126	 1
   62    65	 1
   62   123	 1
   62   125	 1
   63   107	 1
   63   106	 1
   63    66	 1
   63   126	 1
   63   124	 1
   64    67	 1
   64   125	 1
   65   122	 1
   65   126	 1
   66   123	 1
   67   107	 1
   67   106	 1
   67   122	 1
   67   124	 1
   68    78	 1
   68   105	 1
   68   128	 1
   68   129	 1
   68   130	 1
   68    72	 1
   68   108	 1
   68    82	 1
   68   111	 1
   68   144	 1
   68   112	 1
   68   148	 1
   68   149	 1
   68   150	 1
   68    86	 1
   69   106	 1
   69   121	 1
   69    83	 1
   69    84	 1
   69   113	 1
   69    75	 1
   69   109	 1
   69   131	 1
   69   146	 1
   69   147	 1
   69   145	 1
   70    85	 1
   70   127	 1
   70    72	 1
   70   108	 1
   70    82	 1
   70   111	 1
   70   144	 1
   71    85	 1
   71   127	 1
   71   128	 1
   71   129	 1
   71   130	 1
   71    82	 1
   71   111	 1
   71   144	 1
   71    76	 1
   71    78	 1
   71    73	 1
   72    81	 1
   72    74	 1
   72   110	 1
   72    77	 1
   72    79	 1
   72    80	 1
   73    75	 1
   73   131	 1
   75   117	 1
   75   104	 1
   75   105	 1
   75   108	 1
   75   135	 1
   75   136	 1
   75   137	 1
   75   138	 1
   75   139	 1
   75   140	 1
   75   141	 1
   75   142	 1
   75   143	 1
   76   118	 1
   76   119	 1
   76   109	 1
   76   131	 1
   76    79	 1
   76    80	 1
   77   117	 1
   77   104	 1
   77    78	 1
   78   118	 1
   78   119	 1
   78   106	 1
   78   121	 1
   78   120	 1
   78   109	 1
   78   131	 1
   79   105	 1
   79   141	 1
   79   142	 1
   79   143	 1
   80   105	 1
   80   138	 1
   80   139	 1
   80   140	 1
   81    85	 1
   81   127	 1
   81   128	 1
   81   129	 1
   81   130	 1
   81   108	 1
   81   112	 1
   81   148	 1
   82   145	 1
   82    84	 1
   82   113	 1
   83   127	 1
   83   111	 1
   83   144	 1
   83   149	 1
   83   150	 1
   83    86	 1
   84   127	 1
   84   148	 1
   84    86	 1
   85   106	 1
   85   121	 1
   85   146	 1
   85   147	 1
   85    87	 1
   85   114	 1
   88    90	 1
   88   115	 1
   88   103	 1
   88   104	 1
   88    98	 1
   88   161	 1
   88   100	 1
   88   165	 1
   89    96	 1
   89   154	 1
   89    92	 1
   89   156	 1
   89    94	 1
   89   160	 1
   90   155	 1
   90    93	 1
   90   157	 1
   90   159	 1
   91   115	 1
   91    94	 1
   91   160	 1
   91   158	 1
   92    95	 1
   92   159	 1
   93   156	 1
   93   160	 1
   94   157	 1
   95   115	 1
   95   156	 1
   95   158	 1
   96   155	 1
   96   116	 1
   96   102	 1
   96    99	 1
   96   162	 1
   96   164	 1
   97   154	 1
   97   100	 1
   97   165	 1
   97   163	 1
   98   101	 1
   98   164	 1
   99   161	 1
   99   165	 1
  100   162	 1
  101   154	 1
  101   161	 1
  101   163	 1
  102   103	 1
  102   104	 1
  102   154	 1
  103   116	 1
  104   116	 1
  104   118	 1
  104   119	 1
  105   118	 1
  105   119	 1
  105   106	 1
  105   121	 1
  106   127	 1
  108   109	 1
  108   131	 1
  109   132	 1
  109   133	 1
  109   134	 1
  110   132	 1
  110   133	 1
  110   134	 1
  111   146	 1
  111   147	 1
  112   146	 1
  112   147	 1
  112   113	 1
  113   127	 1
  113   148	 1
  113   149	 1
  113   150	 1
  113   151	 1
  113   152	 1
  113   153	 1
  114   151	 1
  114   152	 1
  114   153	 1
  115   155	 1
  116   154	 1
  117   118	 1
  117   119	 1
  121   127	 1
  122   123	 1
  123   124	 1
  124   125	 1
  125   126	 1
  144   146	 1
  144   147	 1
  144   145	 1
  146   148	 1
  147   148	 1
  154   155	 1
  156   157	 1
  157   158	 1
  158   159	 1
  159   160	 1
  161   162	 1
  162   163	 1
  163   164	 1
  164   165	 1

[ angles ]
;	ai	  aj	ak funct			c0			  c1			c2			  c3
    2     1    19	5 ;      CG321      CG331       HGA3
    2     1    20	5 ;      CG321      CG331       HGA3
    2     1    21	5 ;      CG321      CG331       HGA3
   19     1    20	5 ;       HGA3      CG331       HGA3
   19     1    21	5 ;       HGA3      CG331       HGA3
   20     1    21	5 ;       HGA3      CG331       HGA3
    1     2     3	5 ;      CG331      CG321      CG321
    1     2    22	5 ;      CG331      CG321       HGA2
    1     2    23	5 ;      CG331      CG321       HGA2
    3     2    22	5 ;      CG321      CG321       HGA2
    3     2    23	5 ;      CG321      CG321       HGA2
   22     2    23	5 ;       HGA2      CG321       HGA2
    2     3     4	5 ;      CG321      CG321      CG321
    2     3    24	5 ;      CG321      CG321       HGA2
    2     3    25	5 ;      CG321      CG321       HGA2
    4     3    24	5 ;      CG321      CG321       HGA2
    4     3    25	5 ;      CG321      CG321       HGA2
   24     3    25	5 ;       HGA2      CG321       HGA2
    3     4     5	5 ;      CG321      CG321      CG321
    3     4    26	5 ;      CG321      CG321       HGA2
    3     4    27	5 ;      CG321      CG321       HGA2
    5     4    26	5 ;      CG321      CG321       HGA2
    5     4    27	5 ;      CG321      CG321       HGA2
   26     4    27	5 ;       HGA2      CG321       HGA2
    4     5     6	5 ;      CG321      CG321      CG321
    4     5    28	5 ;      CG321      CG321       HGA2
    4     5    29	5 ;      CG321      CG321       HGA2
    6     5    28	5 ;      CG321      CG321       HGA2
    6     5    29	5 ;      CG321      CG321       HGA2
   28     5    29	5 ;       HGA2      CG321       HGA2
    5     6     7	5 ;      CG321      CG321      CG321
    5     6    30	5 ;      CG321      CG321       HGA2
    5     6    31	5 ;      CG321      CG321       HGA2
    7     6    30	5 ;      CG321      CG321       HGA2
    7     6    31	5 ;      CG321      CG321       HGA2
   30     6    31	5 ;       HGA2      CG321       HGA2
    6     7     8	5 ;      CG321      CG321      CG321
    6     7    32	5 ;      CG321      CG321       HGA2
    6     7    33	5 ;      CG321      CG321       HGA2
    8     7    32	5 ;      CG321      CG321       HGA2
    8     7    33	5 ;      CG321      CG321       HGA2
   32     7    33	5 ;       HGA2      CG321       HGA2
    7     8     9	5 ;      CG321      CG321      CG321
    7     8    34	5 ;      CG321      CG321       HGA2
    7     8    35	5 ;      CG321      CG321       HGA2
    9     8    34	5 ;      CG321      CG321       HGA2
    9     8    35	5 ;      CG321      CG321       HGA2
   34     8    35	5 ;       HGA2      CG321       HGA2
    8     9    10	5 ;      CG321      CG321      CG321
    8     9    36	5 ;      CG321      CG321       HGA2
    8     9    37	5 ;      CG321      CG321       HGA2
   10     9    36	5 ;      CG321      CG321       HGA2
   10     9    37	5 ;      CG321      CG321       HGA2
   36     9    37	5 ;       HGA2      CG321       HGA2
    9    10    11	5 ;      CG321      CG321      CG321
    9    10    38	5 ;      CG321      CG321       HGA2
    9    10    39	5 ;      CG321      CG321       HGA2
   11    10    38	5 ;      CG321      CG321       HGA2
   11    10    39	5 ;      CG321      CG321       HGA2
   38    10    39	5 ;       HGA2      CG321       HGA2
   10    11    12	5 ;      CG321      CG321      CG321
   10    11    40	5 ;      CG321      CG321       HGA2
   10    11    41	5 ;      CG321      CG321       HGA2
   12    11    40	5 ;      CG321      CG321       HGA2
   12    11    41	5 ;      CG321      CG321       HGA2
   40    11    41	5 ;       HGA2      CG321       HGA2
   11    12    13	5 ;      CG321      CG321      CG321
   11    12    42	5 ;      CG321      CG321       HGA2
   11    12    43	5 ;      CG321      CG321       HGA2
   13    12    42	5 ;      CG321      CG321       HGA2
   13    12    43	5 ;      CG321      CG321       HGA2
   42    12    43	5 ;       HGA2      CG321       HGA2
   12    13    14	5 ;      CG321      CG321      CG321
   12    13    44	5 ;      CG321      CG321       HGA2
   12    13    45	5 ;      CG321      CG321       HGA2
   14    13    44	5 ;      CG321      CG321       HGA2
   14    13    45	5 ;      CG321      CG321       HGA2
   44    13    45	5 ;       HGA2      CG321       HGA2
   13    14    18	5 ;      CG321      CG321      OG301
   13    14    46	5 ;      CG321      CG321       HGA2
   13    14    47	5 ;      CG321      CG321       HGA2
   18    14    46	5 ;      OG301      CG321       HGA2
   18    14    47	5 ;      OG301      CG321       HGA2
   46    14    47	5 ;       HGA2      CG321       HGA2
   16    15    17	5 ;      CG331      CG301      CG331
   16    15   102	5 ;      CG331      CG301      OG301
   16    15    18	5 ;      CG331      CG301      OG301
   17    15   102	5 ;      CG331      CG301      OG301
   17    15    18	5 ;      CG331      CG301      OG301
  102    15    18	5 ;      OG301      CG301      OG301
   15    16    48	5 ;      CG301      CG331       HGA3
   15    16    49	5 ;      CG301      CG331       HGA3
   15    16    50	5 ;      CG301      CG331       HGA3
   48    16    49	5 ;       HGA3      CG331       HGA3
   48    16    50	5 ;       HGA3      CG331       HGA3
   49    16    50	5 ;       HGA3      CG331       HGA3
   15    17    51	5 ;      CG301      CG331       HGA3
   15    17    52	5 ;      CG301      CG331       HGA3
   15    17    53	5 ;      CG301      CG331       HGA3
   51    17    52	5 ;       HGA3      CG331       HGA3
   51    17    53	5 ;       HGA3      CG331       HGA3
   52    17    53	5 ;       HGA3      CG331       HGA3
   14    18    15	5 ;      CG321      OG301      CG301
   89    54   155	5 ;      CG2O1      NG2S1       HGP1
   89    54    88	5 ;      CG2O1      NG2S1      CG311
  155    54    88	5 ;       HGP1      NG2S1      CG311
   56    55    88	5 ;      CG2O2      CG311      CG311
   56    55   116	5 ;      CG2O2      CG311       HGA1
   56    55   102	5 ;      CG2O2      CG311      OG301
   88    55   116	5 ;      CG311      CG311       HGA1
   88    55   102	5 ;      CG311      CG311      OG301
  116    55   102	5 ;       HGA1      CG311      OG301
   55    56   103	5 ;      CG311      CG2O2      OG2D1
   55    56   104	5 ;      CG311      CG2O2      OG302
  103    56   104	5 ;      OG2D1      CG2O2      OG302
   58    57    76	5 ;      CG321      CG311      CG2D1
   58    57   117	5 ;      CG321      CG311       HGA1
   58    57   104	5 ;      CG321      CG311      OG302
   76    57   117	5 ;      CG2D1      CG311       HGA1
   76    57   104	5 ;      CG2D1      CG311      OG302
  117    57   104	5 ;       HGA1      CG311      OG302
   57    58    59	5 ;      CG311      CG321      CG301
   57    58   118	5 ;      CG311      CG321       HGA2
   57    58   119	5 ;      CG311      CG321       HGA2
   59    58   118	5 ;      CG301      CG321       HGA2
   59    58   119	5 ;      CG301      CG321       HGA2
  118    58   119	5 ;       HGA2      CG321       HGA2
   58    59    60	5 ;      CG321      CG301      CG311
   58    59    78	5 ;      CG321      CG301      CG301
   58    59   105	5 ;      CG321      CG301      OG311
   60    59    78	5 ;      CG311      CG301      CG301
   60    59   105	5 ;      CG311      CG301      OG311
   78    59   105	5 ;      CG301      CG301      OG311
   59    60    68	5 ;      CG301      CG311      CG311
   59    60   106	5 ;      CG301      CG311      OG302
   59    60   121	5 ;      CG301      CG311       HGA1
   68    60   106	5 ;      CG311      CG311      OG302
   68    60   121	5 ;      CG311      CG311       HGA1
  106    60   121	5 ;      OG302      CG311       HGA1
   62    61   107	5 ;     CG2R61      CG2O2      OG2D1
   62    61   106	5 ;     CG2R61      CG2O2      OG302
  107    61   106	5 ;      OG2D1      CG2O2      OG302
   61    62    63	5 ;      CG2O2     CG2R61     CG2R61
   61    62    67	5 ;      CG2O2     CG2R61     CG2R61
   63    62    67	5 ;     CG2R61     CG2R61     CG2R61
   62    63    64	5 ;     CG2R61     CG2R61     CG2R61
   62    63   122	5 ;     CG2R61     CG2R61      HGR61
   64    63   122	5 ;     CG2R61     CG2R61      HGR61
   63    64    65	5 ;     CG2R61     CG2R61     CG2R61
   63    64   123	5 ;     CG2R61     CG2R61      HGR61
   65    64   123	5 ;     CG2R61     CG2R61      HGR61
   64    65    66	5 ;     CG2R61     CG2R61     CG2R61
   64    65   124	5 ;     CG2R61     CG2R61      HGR61
   66    65   124	5 ;     CG2R61     CG2R61      HGR61
   65    66    67	5 ;     CG2R61     CG2R61     CG2R61
   65    66   125	5 ;     CG2R61     CG2R61      HGR61
   67    66   125	5 ;     CG2R61     CG2R61      HGR61
   62    67    66	5 ;     CG2R61     CG2R61     CG2R61
   62    67   126	5 ;     CG2R61     CG2R61      HGR61
   66    67   126	5 ;     CG2R61     CG2R61      HGR61
   60    68    69	5 ;      CG311      CG311      CG301
   60    68    85	5 ;      CG311      CG311     CG3RC1
   60    68   127	5 ;      CG311      CG311       HGA1
   69    68    85	5 ;      CG301      CG311     CG3RC1
   69    68   127	5 ;      CG301      CG311       HGA1
   85    68   127	5 ;     CG3RC1      CG311       HGA1
   68    69    70	5 ;      CG311      CG301      CG331
   68    69    71	5 ;      CG311      CG301      CG2O5
   68    69    81	5 ;      CG311      CG301      CG311
   70    69    71	5 ;      CG331      CG301      CG2O5
   70    69    81	5 ;      CG331      CG301      CG311
   71    69    81	5 ;      CG2O5      CG301      CG311
   69    70   128	5 ;      CG301      CG331       HGA3
   69    70   129	5 ;      CG301      CG331       HGA3
   69    70   130	5 ;      CG301      CG331       HGA3
  128    70   129	5 ;       HGA3      CG331       HGA3
  128    70   130	5 ;       HGA3      CG331       HGA3
  129    70   130	5 ;       HGA3      CG331       HGA3
   69    71    72	5 ;      CG301      CG2O5      CG311
   69    71   108	5 ;      CG301      CG2O5      OG2D3
   72    71   108	5 ;      CG311      CG2O5      OG2D3
   71    72    75	5 ;      CG2O5      CG311      CG2D1
   71    72   109	5 ;      CG2O5      CG311      OG302
   71    72   131	5 ;      CG2O5      CG311       HGA1
   75    72   109	5 ;      CG2D1      CG311      OG302
   75    72   131	5 ;      CG2D1      CG311       HGA1
  109    72   131	5 ;      OG302      CG311       HGA1
   74    73   110	5 ;      CG331      CG2O2      OG2D1
   74    73   109	5 ;      CG331      CG2O2      OG302
  110    73   109	5 ;      OG2D1      CG2O2      OG302
   73    74   132	5 ;      CG2O2      CG331       HGA3
   73    74   133	5 ;      CG2O2      CG331       HGA3
   73    74   134	5 ;      CG2O2      CG331       HGA3
  132    74   133	5 ;       HGA3      CG331       HGA3
  132    74   134	5 ;       HGA3      CG331       HGA3
  133    74   134	5 ;       HGA3      CG331       HGA3
   72    75    76	5 ;      CG311      CG2D1      CG2D1
   72    75    78	5 ;      CG311      CG2D1      CG301
   76    75    78	5 ;      CG2D1      CG2D1      CG301
   57    76    75	5 ;      CG311      CG2D1      CG2D1
   57    76    77	5 ;      CG311      CG2D1      CG331
   75    76    77	5 ;      CG2D1      CG2D1      CG331
   76    77   135	5 ;      CG2D1      CG331       HGA3
   76    77   136	5 ;      CG2D1      CG331       HGA3
   76    77   137	5 ;      CG2D1      CG331       HGA3
  135    77   136	5 ;       HGA3      CG331       HGA3
  135    77   137	5 ;       HGA3      CG331       HGA3
  136    77   137	5 ;       HGA3      CG331       HGA3
   59    78    75	5 ;      CG301      CG301      CG2D1
   59    78    79	5 ;      CG301      CG301      CG331
   59    78    80	5 ;      CG301      CG301      CG331
   75    78    79	5 ;      CG2D1      CG301      CG331
   75    78    80	5 ;      CG2D1      CG301      CG331
   79    78    80	5 ;      CG331      CG301      CG331
   78    79   138	5 ;      CG301      CG331       HGA3
   78    79   139	5 ;      CG301      CG331       HGA3
   78    79   140	5 ;      CG301      CG331       HGA3
  138    79   139	5 ;       HGA3      CG331       HGA3
  138    79   140	5 ;       HGA3      CG331       HGA3
  139    79   140	5 ;       HGA3      CG331       HGA3
   78    80   141	5 ;      CG301      CG331       HGA3
   78    80   142	5 ;      CG301      CG331       HGA3
   78    80   143	5 ;      CG301      CG331       HGA3
  141    80   142	5 ;       HGA3      CG331       HGA3
  141    80   143	5 ;       HGA3      CG331       HGA3
  142    80   143	5 ;       HGA3      CG331       HGA3
   69    81    82	5 ;      CG301      CG311      CG321
   69    81   111	5 ;      CG301      CG311      OG311
   69    81   144	5 ;      CG301      CG311       HGA1
   82    81   111	5 ;      CG321      CG311      OG311
   82    81   144	5 ;      CG321      CG311       HGA1
  111    81   144	5 ;      OG311      CG311       HGA1
   81    82    83	5 ;      CG311      CG321     CG3RC1
   81    82   146	5 ;      CG311      CG321       HGA2
   81    82   147	5 ;      CG311      CG321       HGA2
   83    82   146	5 ;     CG3RC1      CG321       HGA2
   83    82   147	5 ;     CG3RC1      CG321       HGA2
  146    82   147	5 ;       HGA2      CG321       HGA2
   82    83    85	5 ;      CG321     CG3RC1     CG3RC1
   82    83   112	5 ;      CG321     CG3RC1     OG3C51
   82    83   148	5 ;      CG321     CG3RC1       HGA1
   85    83   112	5 ;     CG3RC1     CG3RC1     OG3C51
   85    83   148	5 ;     CG3RC1     CG3RC1       HGA1
  112    83   148	5 ;     OG3C51     CG3RC1       HGA1
   85    84   149	5 ;     CG3RC1     CG3C41       HGA2
   85    84   150	5 ;     CG3RC1     CG3C41       HGA2
   85    84   112	5 ;     CG3RC1     CG3C41     OG3C51
  149    84   150	5 ;       HGA2     CG3C41       HGA2
  149    84   112	5 ;       HGA2     CG3C41     OG3C51
  150    84   112	5 ;       HGA2     CG3C41     OG3C51
   68    85    83	5 ;      CG311     CG3RC1     CG3RC1
   68    85    84	5 ;      CG311     CG3RC1     CG3C41
   68    85   113	5 ;      CG311     CG3RC1      OG302
   83    85    84	5 ;     CG3RC1     CG3RC1     CG3C41
   83    85   113	5 ;     CG3RC1     CG3RC1      OG302
   84    85   113	5 ;     CG3C41     CG3RC1      OG302
   87    86   114	5 ;      CG331      CG2O2      OG2D1
   87    86   113	5 ;      CG331      CG2O2      OG302
  114    86   113	5 ;      OG2D1      CG2O2      OG302
   86    87   151	5 ;      CG2O2      CG331       HGA3
   86    87   152	5 ;      CG2O2      CG331       HGA3
   86    87   153	5 ;      CG2O2      CG331       HGA3
  151    87   152	5 ;       HGA3      CG331       HGA3
  151    87   153	5 ;       HGA3      CG331       HGA3
  152    87   153	5 ;       HGA3      CG331       HGA3
   55    88    54	5 ;      CG311      CG311      NG2S1
   55    88    96	5 ;      CG311      CG311     CG2R61
   55    88   154	5 ;      CG311      CG311       HGA1
   54    88    96	5 ;      NG2S1      CG311     CG2R61
   54    88   154	5 ;      NG2S1      CG311       HGA1
   96    88   154	5 ;     CG2R61      CG311       HGA1
   54    89    90	5 ;      NG2S1      CG2O1     CG2R61
   54    89   115	5 ;      NG2S1      CG2O1      OG2D1
   90    89   115	5 ;     CG2R61      CG2O1      OG2D1
   89    90    91	5 ;      CG2O1     CG2R61     CG2R61
   89    90    95	5 ;      CG2O1     CG2R61     CG2R61
   91    90    95	5 ;     CG2R61     CG2R61     CG2R61
   90    91    92	5 ;     CG2R61     CG2R61     CG2R61
   90    91   156	5 ;     CG2R61     CG2R61      HGR61
   92    91   156	5 ;     CG2R61     CG2R61      HGR61
   91    92    93	5 ;     CG2R61     CG2R61     CG2R61
   91    92   157	5 ;     CG2R61     CG2R61      HGR61
   93    92   157	5 ;     CG2R61     CG2R61      HGR61
   92    93    94	5 ;     CG2R61     CG2R61     CG2R61
   92    93   158	5 ;     CG2R61     CG2R61      HGR61
   94    93   158	5 ;     CG2R61     CG2R61      HGR61
   93    94    95	5 ;     CG2R61     CG2R61     CG2R61
   93    94   159	5 ;     CG2R61     CG2R61      HGR61
   95    94   159	5 ;     CG2R61     CG2R61      HGR61
   90    95    94	5 ;     CG2R61     CG2R61     CG2R61
   90    95   160	5 ;     CG2R61     CG2R61      HGR61
   94    95   160	5 ;     CG2R61     CG2R61      HGR61
   88    96    97	5 ;      CG311     CG2R61     CG2R61
   88    96   101	5 ;      CG311     CG2R61     CG2R61
   97    96   101	5 ;     CG2R61     CG2R61     CG2R61
   96    97    98	5 ;     CG2R61     CG2R61     CG2R61
   96    97   161	5 ;     CG2R61     CG2R61      HGR61
   98    97   161	5 ;     CG2R61     CG2R61      HGR61
   97    98    99	5 ;     CG2R61     CG2R61     CG2R61
   97    98   162	5 ;     CG2R61     CG2R61      HGR61
   99    98   162	5 ;     CG2R61     CG2R61      HGR61
   98    99   100	5 ;     CG2R61     CG2R61     CG2R61
   98    99   163	5 ;     CG2R61     CG2R61      HGR61
  100    99   163	5 ;     CG2R61     CG2R61      HGR61
   99   100   101	5 ;     CG2R61     CG2R61     CG2R61
   99   100   164	5 ;     CG2R61     CG2R61      HGR61
  101   100   164	5 ;     CG2R61     CG2R61      HGR61
   96   101   100	5 ;     CG2R61     CG2R61     CG2R61
   96   101   165	5 ;     CG2R61     CG2R61      HGR61
  100   101   165	5 ;     CG2R61     CG2R61      HGR61
   15   102    55	5 ;      CG301      OG301      CG311
   56   104    57	5 ;      CG2O2      OG302      CG311
   59   105   120	5 ;      CG301      OG311       HGP1
   60   106    61	5 ;      CG311      OG302      CG2O2
   72   109    73	5 ;      CG311      OG302      CG2O2
   81   111   145	5 ;      CG311      OG311       HGP1
   83   112    84	5 ;     CG3RC1     OG3C51     CG3C41
   85   113    86	5 ;     CG3RC1      OG302      CG2O2

[ dihedrals ]
;	ai	  aj	ak	  al funct			  c0			c1			  c2			c3			  c4			c5
   19     1     2     3	 9 ;       HGA3      CG331      CG321      CG321
   19     1     2    22	 9 ;       HGA3      CG331      CG321       HGA2
   19     1     2    23	 9 ;       HGA3      CG331      CG321       HGA2
   20     1     2     3	 9 ;       HGA3      CG331      CG321      CG321
   20     1     2    22	 9 ;       HGA3      CG331      CG321       HGA2
   20     1     2    23	 9 ;       HGA3      CG331      CG321       HGA2
   21     1     2     3	 9 ;       HGA3      CG331      CG321      CG321
   21     1     2    22	 9 ;       HGA3      CG331      CG321       HGA2
   21     1     2    23	 9 ;       HGA3      CG331      CG321       HGA2
    1     2     3     4	 9 ;      CG331      CG321      CG321      CG321
    1     2     3    24	 9 ;      CG331      CG321      CG321       HGA2
    1     2     3    25	 9 ;      CG331      CG321      CG321       HGA2
   22     2     3     4	 9 ;       HGA2      CG321      CG321      CG321
   22     2     3    24	 9 ;       HGA2      CG321      CG321       HGA2
   22     2     3    25	 9 ;       HGA2      CG321      CG321       HGA2
   23     2     3     4	 9 ;       HGA2      CG321      CG321      CG321
   23     2     3    24	 9 ;       HGA2      CG321      CG321       HGA2
   23     2     3    25	 9 ;       HGA2      CG321      CG321       HGA2
    2     3     4     5	 9 ;      CG321      CG321      CG321      CG321
    2     3     4    26	 9 ;      CG321      CG321      CG321       HGA2
    2     3     4    27	 9 ;      CG321      CG321      CG321       HGA2
   24     3     4     5	 9 ;       HGA2      CG321      CG321      CG321
   24     3     4    26	 9 ;       HGA2      CG321      CG321       HGA2
   24     3     4    27	 9 ;       HGA2      CG321      CG321       HGA2
   25     3     4     5	 9 ;       HGA2      CG321      CG321      CG321
   25     3     4    26	 9 ;       HGA2      CG321      CG321       HGA2
   25     3     4    27	 9 ;       HGA2      CG321      CG321       HGA2
    3     4     5     6	 9 ;      CG321      CG321      CG321      CG321
    3     4     5    28	 9 ;      CG321      CG321      CG321       HGA2
    3     4     5    29	 9 ;      CG321      CG321      CG321       HGA2
   26     4     5     6	 9 ;       HGA2      CG321      CG321      CG321
   26     4     5    28	 9 ;       HGA2      CG321      CG321       HGA2
   26     4     5    29	 9 ;       HGA2      CG321      CG321       HGA2
   27     4     5     6	 9 ;       HGA2      CG321      CG321      CG321
   27     4     5    28	 9 ;       HGA2      CG321      CG321       HGA2
   27     4     5    29	 9 ;       HGA2      CG321      CG321       HGA2
    4     5     6     7	 9 ;      CG321      CG321      CG321      CG321
    4     5     6    30	 9 ;      CG321      CG321      CG321       HGA2
    4     5     6    31	 9 ;      CG321      CG321      CG321       HGA2
   28     5     6     7	 9 ;       HGA2      CG321      CG321      CG321
   28     5     6    30	 9 ;       HGA2      CG321      CG321       HGA2
   28     5     6    31	 9 ;       HGA2      CG321      CG321       HGA2
   29     5     6     7	 9 ;       HGA2      CG321      CG321      CG321
   29     5     6    30	 9 ;       HGA2      CG321      CG321       HGA2
   29     5     6    31	 9 ;       HGA2      CG321      CG321       HGA2
    5     6     7     8	 9 ;      CG321      CG321      CG321      CG321
    5     6     7    32	 9 ;      CG321      CG321      CG321       HGA2
    5     6     7    33	 9 ;      CG321      CG321      CG321       HGA2
   30     6     7     8	 9 ;       HGA2      CG321      CG321      CG321
   30     6     7    32	 9 ;       HGA2      CG321      CG321       HGA2
   30     6     7    33	 9 ;       HGA2      CG321      CG321       HGA2
   31     6     7     8	 9 ;       HGA2      CG321      CG321      CG321
   31     6     7    32	 9 ;       HGA2      CG321      CG321       HGA2
   31     6     7    33	 9 ;       HGA2      CG321      CG321       HGA2
    6     7     8     9	 9 ;      CG321      CG321      CG321      CG321
    6     7     8    34	 9 ;      CG321      CG321      CG321       HGA2
    6     7     8    35	 9 ;      CG321      CG321      CG321       HGA2
   32     7     8     9	 9 ;       HGA2      CG321      CG321      CG321
   32     7     8    34	 9 ;       HGA2      CG321      CG321       HGA2
   32     7     8    35	 9 ;       HGA2      CG321      CG321       HGA2
   33     7     8     9	 9 ;       HGA2      CG321      CG321      CG321
   33     7     8    34	 9 ;       HGA2      CG321      CG321       HGA2
   33     7     8    35	 9 ;       HGA2      CG321      CG321       HGA2
    7     8     9    10	 9 ;      CG321      CG321      CG321      CG321
    7     8     9    36	 9 ;      CG321      CG321      CG321       HGA2
    7     8     9    37	 9 ;      CG321      CG321      CG321       HGA2
   34     8     9    10	 9 ;       HGA2      CG321      CG321      CG321
   34     8     9    36	 9 ;       HGA2      CG321      CG321       HGA2
   34     8     9    37	 9 ;       HGA2      CG321      CG321       HGA2
   35     8     9    10	 9 ;       HGA2      CG321      CG321      CG321
   35     8     9    36	 9 ;       HGA2      CG321      CG321       HGA2
   35     8     9    37	 9 ;       HGA2      CG321      CG321       HGA2
    8     9    10    11	 9 ;      CG321      CG321      CG321      CG321
    8     9    10    38	 9 ;      CG321      CG321      CG321       HGA2
    8     9    10    39	 9 ;      CG321      CG321      CG321       HGA2
   36     9    10    11	 9 ;       HGA2      CG321      CG321      CG321
   36     9    10    38	 9 ;       HGA2      CG321      CG321       HGA2
   36     9    10    39	 9 ;       HGA2      CG321      CG321       HGA2
   37     9    10    11	 9 ;       HGA2      CG321      CG321      CG321
   37     9    10    38	 9 ;       HGA2      CG321      CG321       HGA2
   37     9    10    39	 9 ;       HGA2      CG321      CG321       HGA2
    9    10    11    12	 9 ;      CG321      CG321      CG321      CG321
    9    10    11    40	 9 ;      CG321      CG321      CG321       HGA2
    9    10    11    41	 9 ;      CG321      CG321      CG321       HGA2
   38    10    11    12	 9 ;       HGA2      CG321      CG321      CG321
   38    10    11    40	 9 ;       HGA2      CG321      CG321       HGA2
   38    10    11    41	 9 ;       HGA2      CG321      CG321       HGA2
   39    10    11    12	 9 ;       HGA2      CG321      CG321      CG321
   39    10    11    40	 9 ;       HGA2      CG321      CG321       HGA2
   39    10    11    41	 9 ;       HGA2      CG321      CG321       HGA2
   10    11    12    13	 9 ;      CG321      CG321      CG321      CG321
   10    11    12    42	 9 ;      CG321      CG321      CG321       HGA2
   10    11    12    43	 9 ;      CG321      CG321      CG321       HGA2
   40    11    12    13	 9 ;       HGA2      CG321      CG321      CG321
   40    11    12    42	 9 ;       HGA2      CG321      CG321       HGA2
   40    11    12    43	 9 ;       HGA2      CG321      CG321       HGA2
   41    11    12    13	 9 ;       HGA2      CG321      CG321      CG321
   41    11    12    42	 9 ;       HGA2      CG321      CG321       HGA2
   41    11    12    43	 9 ;       HGA2      CG321      CG321       HGA2
   11    12    13    14	 9 ;      CG321      CG321      CG321      CG321
   11    12    13    44	 9 ;      CG321      CG321      CG321       HGA2
   11    12    13    45	 9 ;      CG321      CG321      CG321       HGA2
   42    12    13    14	 9 ;       HGA2      CG321      CG321      CG321
   42    12    13    44	 9 ;       HGA2      CG321      CG321       HGA2
   42    12    13    45	 9 ;       HGA2      CG321      CG321       HGA2
   43    12    13    14	 9 ;       HGA2      CG321      CG321      CG321
   43    12    13    44	 9 ;       HGA2      CG321      CG321       HGA2
   43    12    13    45	 9 ;       HGA2      CG321      CG321       HGA2
   12    13    14    18	 9 ;      CG321      CG321      CG321      OG301
   12    13    14    46	 9 ;      CG321      CG321      CG321       HGA2
   12    13    14    47	 9 ;      CG321      CG321      CG321       HGA2
   44    13    14    18	 9 ;       HGA2      CG321      CG321      OG301
   44    13    14    46	 9 ;       HGA2      CG321      CG321       HGA2
   44    13    14    47	 9 ;       HGA2      CG321      CG321       HGA2
   45    13    14    18	 9 ;       HGA2      CG321      CG321      OG301
   45    13    14    46	 9 ;       HGA2      CG321      CG321       HGA2
   45    13    14    47	 9 ;       HGA2      CG321      CG321       HGA2
   13    14    18    15	 9 ;      CG321      CG321      OG301      CG301
   46    14    18    15	 9 ;       HGA2      CG321      OG301      CG301
   47    14    18    15	 9 ;       HGA2      CG321      OG301      CG301
   17    15    16    48	 9 ;      CG331      CG301      CG331       HGA3
   17    15    16    49	 9 ;      CG331      CG301      CG331       HGA3
   17    15    16    50	 9 ;      CG331      CG301      CG331       HGA3
  102    15    16    48	 9 ;      OG301      CG301      CG331       HGA3
  102    15    16    49	 9 ;      OG301      CG301      CG331       HGA3
  102    15    16    50	 9 ;      OG301      CG301      CG331       HGA3
   18    15    16    48	 9 ;      OG301      CG301      CG331       HGA3
   18    15    16    49	 9 ;      OG301      CG301      CG331       HGA3
   18    15    16    50	 9 ;      OG301      CG301      CG331       HGA3
   16    15    17    51	 9 ;      CG331      CG301      CG331       HGA3
   16    15    17    52	 9 ;      CG331      CG301      CG331       HGA3
   16    15    17    53	 9 ;      CG331      CG301      CG331       HGA3
  102    15    17    51	 9 ;      OG301      CG301      CG331       HGA3
  102    15    17    52	 9 ;      OG301      CG301      CG331       HGA3
  102    15    17    53	 9 ;      OG301      CG301      CG331       HGA3
   18    15    17    51	 9 ;      OG301      CG301      CG331       HGA3
   18    15    17    52	 9 ;      OG301      CG301      CG331       HGA3
   18    15    17    53	 9 ;      OG301      CG301      CG331       HGA3
   16    15   102    55	 9 ;      CG331      CG301      OG301      CG311
   17    15   102    55	 9 ;      CG331      CG301      OG301      CG311
   18    15   102    55	 9 ;      OG301      CG301      OG301      CG311
   16    15    18    14	 9 ;      CG331      CG301      OG301      CG321
   17    15    18    14	 9 ;      CG331      CG301      OG301      CG321
  102    15    18    14	 9 ;      OG301      CG301      OG301      CG321
  155    54    89    90	 9 ;       HGP1      NG2S1      CG2O1     CG2R61
  155    54    89   115	 9 ;       HGP1      NG2S1      CG2O1      OG2D1
   88    54    89    90	 9 ;      CG311      NG2S1      CG2O1     CG2R61
   88    54    89   115	 9 ;      CG311      NG2S1      CG2O1      OG2D1
   89    54    88    55	 9 ;      CG2O1      NG2S1      CG311      CG311
   89    54    88    96	 9 ;      CG2O1      NG2S1      CG311     CG2R61
   89    54    88   154	 9 ;      CG2O1      NG2S1      CG311       HGA1
  155    54    88    55	 9 ;       HGP1      NG2S1      CG311      CG311
  155    54    88    96	 9 ;       HGP1      NG2S1      CG311     CG2R61
  155    54    88   154	 9 ;       HGP1      NG2S1      CG311       HGA1
   88    55    56   103	 9 ;      CG311      CG311      CG2O2      OG2D1
   88    55    56   104	 9 ;      CG311      CG311      CG2O2      OG302
  116    55    56   103	 9 ;       HGA1      CG311      CG2O2      OG2D1
  116    55    56   104	 9 ;       HGA1      CG311      CG2O2      OG302
  102    55    56   103	 9 ;      OG301      CG311      CG2O2      OG2D1
  102    55    56   104	 9 ;      OG301      CG311      CG2O2      OG302
   56    55    88    54	 9 ;      CG2O2      CG311      CG311      NG2S1
   56    55    88    96	 9 ;      CG2O2      CG311      CG311     CG2R61
   56    55    88   154	 9 ;      CG2O2      CG311      CG311       HGA1
  116    55    88    54	 9 ;       HGA1      CG311      CG311      NG2S1
  116    55    88    96	 9 ;       HGA1      CG311      CG311     CG2R61
  116    55    88   154	 9 ;       HGA1      CG311      CG311       HGA1
  102    55    88    54	 9 ;      OG301      CG311      CG311      NG2S1
  102    55    88    96	 9 ;      OG301      CG311      CG311     CG2R61
  102    55    88   154	 9 ;      OG301      CG311      CG311       HGA1
   56    55   102    15	 9 ;      CG2O2      CG311      OG301      CG301
   88    55   102    15	 9 ;      CG311      CG311      OG301      CG301
  116    55   102    15	 9 ;       HGA1      CG311      OG301      CG301
   55    56   104    57	 9 ;      CG311      CG2O2      OG302      CG311
  103    56   104    57	 9 ;      OG2D1      CG2O2      OG302      CG311
   76    57    58    59	 9 ;      CG2D1      CG311      CG321      CG301
   76    57    58   118	 9 ;      CG2D1      CG311      CG321       HGA2
   76    57    58   119	 9 ;      CG2D1      CG311      CG321       HGA2
  117    57    58    59	 9 ;       HGA1      CG311      CG321      CG301
  117    57    58   118	 9 ;       HGA1      CG311      CG321       HGA2
  117    57    58   119	 9 ;       HGA1      CG311      CG321       HGA2
  104    57    58    59	 9 ;      OG302      CG311      CG321      CG301
  104    57    58   118	 9 ;      OG302      CG311      CG321       HGA2
  104    57    58   119	 9 ;      OG302      CG311      CG321       HGA2
   58    57    76    75	 9 ;      CG321      CG311      CG2D1      CG2D1
   58    57    76    77	 9 ;      CG321      CG311      CG2D1      CG331
  117    57    76    75	 9 ;       HGA1      CG311      CG2D1      CG2D1
  117    57    76    77	 9 ;       HGA1      CG311      CG2D1      CG331
  104    57    76    75	 9 ;      OG302      CG311      CG2D1      CG2D1
  104    57    76    77	 9 ;      OG302      CG311      CG2D1      CG331
   58    57   104    56	 9 ;      CG321      CG311      OG302      CG2O2
   76    57   104    56	 9 ;      CG2D1      CG311      OG302      CG2O2
  117    57   104    56	 9 ;       HGA1      CG311      OG302      CG2O2
   57    58    59    60	 9 ;      CG311      CG321      CG301      CG311
   57    58    59    78	 9 ;      CG311      CG321      CG301      CG301
   57    58    59   105	 9 ;      CG311      CG321      CG301      OG311
  118    58    59    60	 9 ;       HGA2      CG321      CG301      CG311
  118    58    59    78	 9 ;       HGA2      CG321      CG301      CG301
  118    58    59   105	 9 ;       HGA2      CG321      CG301      OG311
  119    58    59    60	 9 ;       HGA2      CG321      CG301      CG311
  119    58    59    78	 9 ;       HGA2      CG321      CG301      CG301
  119    58    59   105	 9 ;       HGA2      CG321      CG301      OG311
   58    59    60    68	 9 ;      CG321      CG301      CG311      CG311
   58    59    60   106	 9 ;      CG321      CG301      CG311      OG302
   58    59    60   121	 9 ;      CG321      CG301      CG311       HGA1
   78    59    60    68	 9 ;      CG301      CG301      CG311      CG311
   78    59    60   106	 9 ;      CG301      CG301      CG311      OG302
   78    59    60   121	 9 ;      CG301      CG301      CG311       HGA1
  105    59    60    68	 9 ;      OG311      CG301      CG311      CG311
  105    59    60   106	 9 ;      OG311      CG301      CG311      OG302
  105    59    60   121	 9 ;      OG311      CG301      CG311       HGA1
   58    59    78    75	 9 ;      CG321      CG301      CG301      CG2D1
   58    59    78    79	 9 ;      CG321      CG301      CG301      CG331
   58    59    78    80	 9 ;      CG321      CG301      CG301      CG331
   60    59    78    75	 9 ;      CG311      CG301      CG301      CG2D1
   60    59    78    79	 9 ;      CG311      CG301      CG301      CG331
   60    59    78    80	 9 ;      CG311      CG301      CG301      CG331
  105    59    78    75	 9 ;      OG311      CG301      CG301      CG2D1
  105    59    78    79	 9 ;      OG311      CG301      CG301      CG331
  105    59    78    80	 9 ;      OG311      CG301      CG301      CG331
   58    59   105   120	 9 ;      CG321      CG301      OG311       HGP1
   60    59   105   120	 9 ;      CG311      CG301      OG311       HGP1
   78    59   105   120	 9 ;      CG301      CG301      OG311       HGP1
   59    60    68    69	 9 ;      CG301      CG311      CG311      CG301
   59    60    68    85	 9 ;      CG301      CG311      CG311     CG3RC1
   59    60    68   127	 9 ;      CG301      CG311      CG311       HGA1
  106    60    68    69	 9 ;      OG302      CG311      CG311      CG301
  106    60    68    85	 9 ;      OG302      CG311      CG311     CG3RC1
  106    60    68   127	 9 ;      OG302      CG311      CG311       HGA1
  121    60    68    69	 9 ;       HGA1      CG311      CG311      CG301
  121    60    68    85	 9 ;       HGA1      CG311      CG311     CG3RC1
  121    60    68   127	 9 ;       HGA1      CG311      CG311       HGA1
   59    60   106    61	 9 ;      CG301      CG311      OG302      CG2O2
   68    60   106    61	 9 ;      CG311      CG311      OG302      CG2O2
  121    60   106    61	 9 ;       HGA1      CG311      OG302      CG2O2
  107    61    62    63	 9 ;      OG2D1      CG2O2     CG2R61     CG2R61
  107    61    62    67	 9 ;      OG2D1      CG2O2     CG2R61     CG2R61
  106    61    62    63	 9 ;      OG302      CG2O2     CG2R61     CG2R61
  106    61    62    67	 9 ;      OG302      CG2O2     CG2R61     CG2R61
   62    61   106    60	 9 ;     CG2R61      CG2O2      OG302      CG311
  107    61   106    60	 9 ;      OG2D1      CG2O2      OG302      CG311
   61    62    63    64	 9 ;      CG2O2     CG2R61     CG2R61     CG2R61
   61    62    63   122	 9 ;      CG2O2     CG2R61     CG2R61      HGR61
   67    62    63    64	 9 ;     CG2R61     CG2R61     CG2R61     CG2R61
   67    62    63   122	 9 ;     CG2R61     CG2R61     CG2R61      HGR61
   61    62    67    66	 9 ;      CG2O2     CG2R61     CG2R61     CG2R61
   61    62    67   126	 9 ;      CG2O2     CG2R61     CG2R61      HGR61
   63    62    67    66	 9 ;     CG2R61     CG2R61     CG2R61     CG2R61
   63    62    67   126	 9 ;     CG2R61     CG2R61     CG2R61      HGR61
   62    63    64    65	 9 ;     CG2R61     CG2R61     CG2R61     CG2R61
   62    63    64   123	 9 ;     CG2R61     CG2R61     CG2R61      HGR61
  122    63    64    65	 9 ;      HGR61     CG2R61     CG2R61     CG2R61
  122    63    64   123	 9 ;      HGR61     CG2R61     CG2R61      HGR61
   63    64    65    66	 9 ;     CG2R61     CG2R61     CG2R61     CG2R61
   63    64    65   124	 9 ;     CG2R61     CG2R61     CG2R61      HGR61
  123    64    65    66	 9 ;      HGR61     CG2R61     CG2R61     CG2R61
  123    64    65   124	 9 ;      HGR61     CG2R61     CG2R61      HGR61
   64    65    66    67	 9 ;     CG2R61     CG2R61     CG2R61     CG2R61
   64    65    66   125	 9 ;     CG2R61     CG2R61     CG2R61      HGR61
  124    65    66    67	 9 ;      HGR61     CG2R61     CG2R61     CG2R61
  124    65    66   125	 9 ;      HGR61     CG2R61     CG2R61      HGR61
   65    66    67    62	 9 ;     CG2R61     CG2R61     CG2R61     CG2R61
   65    66    67   126	 9 ;     CG2R61     CG2R61     CG2R61      HGR61
  125    66    67    62	 9 ;      HGR61     CG2R61     CG2R61     CG2R61
  125    66    67   126	 9 ;      HGR61     CG2R61     CG2R61      HGR61
   60    68    69    70	 9 ;      CG311      CG311      CG301      CG331
   60    68    69    71	 9 ;      CG311      CG311      CG301      CG2O5
   60    68    69    81	 9 ;      CG311      CG311      CG301      CG311
   85    68    69    70	 9 ;     CG3RC1      CG311      CG301      CG331
   85    68    69    71	 9 ;     CG3RC1      CG311      CG301      CG2O5
   85    68    69    81	 9 ;     CG3RC1      CG311      CG301      CG311
  127    68    69    70	 9 ;       HGA1      CG311      CG301      CG331
  127    68    69    71	 9 ;       HGA1      CG311      CG301      CG2O5
  127    68    69    81	 9 ;       HGA1      CG311      CG301      CG311
   60    68    85    83	 9 ;      CG311      CG311     CG3RC1     CG3RC1
   60    68    85    84	 9 ;      CG311      CG311     CG3RC1     CG3C41
   60    68    85   113	 9 ;      CG311      CG311     CG3RC1      OG302
   69    68    85    83	 9 ;      CG301      CG311     CG3RC1     CG3RC1
   69    68    85    84	 9 ;      CG301      CG311     CG3RC1     CG3C41
   69    68    85   113	 9 ;      CG301      CG311     CG3RC1      OG302
  127    68    85    83	 9 ;       HGA1      CG311     CG3RC1     CG3RC1
  127    68    85    84	 9 ;       HGA1      CG311     CG3RC1     CG3C41
  127    68    85   113	 9 ;       HGA1      CG311     CG3RC1      OG302
   68    69    70   128	 9 ;      CG311      CG301      CG331       HGA3
   68    69    70   129	 9 ;      CG311      CG301      CG331       HGA3
   68    69    70   130	 9 ;      CG311      CG301      CG331       HGA3
   71    69    70   128	 9 ;      CG2O5      CG301      CG331       HGA3
   71    69    70   129	 9 ;      CG2O5      CG301      CG331       HGA3
   71    69    70   130	 9 ;      CG2O5      CG301      CG331       HGA3
   81    69    70   128	 9 ;      CG311      CG301      CG331       HGA3
   81    69    70   129	 9 ;      CG311      CG301      CG331       HGA3
   81    69    70   130	 9 ;      CG311      CG301      CG331       HGA3
   68    69    71    72	 9 ;      CG311      CG301      CG2O5      CG311
   68    69    71   108	 9 ;      CG311      CG301      CG2O5      OG2D3
   70    69    71    72	 9 ;      CG331      CG301      CG2O5      CG311
   70    69    71   108	 9 ;      CG331      CG301      CG2O5      OG2D3
   81    69    71    72	 9 ;      CG311      CG301      CG2O5      CG311
   81    69    71   108	 9 ;      CG311      CG301      CG2O5      OG2D3
   68    69    81    82	 9 ;      CG311      CG301      CG311      CG321
   68    69    81   111	 9 ;      CG311      CG301      CG311      OG311
   68    69    81   144	 9 ;      CG311      CG301      CG311       HGA1
   70    69    81    82	 9 ;      CG331      CG301      CG311      CG321
   70    69    81   111	 9 ;      CG331      CG301      CG311      OG311
   70    69    81   144	 9 ;      CG331      CG301      CG311       HGA1
   71    69    81    82	 9 ;      CG2O5      CG301      CG311      CG321
   71    69    81   111	 9 ;      CG2O5      CG301      CG311      OG311
   71    69    81   144	 9 ;      CG2O5      CG301      CG311       HGA1
   69    71    72    75	 9 ;      CG301      CG2O5      CG311      CG2D1
   69    71    72   109	 9 ;      CG301      CG2O5      CG311      OG302
   69    71    72   131	 9 ;      CG301      CG2O5      CG311       HGA1
  108    71    72    75	 9 ;      OG2D3      CG2O5      CG311      CG2D1
  108    71    72   109	 9 ;      OG2D3      CG2O5      CG311      OG302
  108    71    72   131	 9 ;      OG2D3      CG2O5      CG311       HGA1
   71    72    75    76	 9 ;      CG2O5      CG311      CG2D1      CG2D1
   71    72    75    78	 9 ;      CG2O5      CG311      CG2D1      CG301
  109    72    75    76	 9 ;      OG302      CG311      CG2D1      CG2D1
  109    72    75    78	 9 ;      OG302      CG311      CG2D1      CG301
  131    72    75    76	 9 ;       HGA1      CG311      CG2D1      CG2D1
  131    72    75    78	 9 ;       HGA1      CG311      CG2D1      CG301
   71    72   109    73	 9 ;      CG2O5      CG311      OG302      CG2O2
   75    72   109    73	 9 ;      CG2D1      CG311      OG302      CG2O2
  131    72   109    73	 9 ;       HGA1      CG311      OG302      CG2O2
  110    73    74   132	 9 ;      OG2D1      CG2O2      CG331       HGA3
  110    73    74   133	 9 ;      OG2D1      CG2O2      CG331       HGA3
  110    73    74   134	 9 ;      OG2D1      CG2O2      CG331       HGA3
  109    73    74   132	 9 ;      OG302      CG2O2      CG331       HGA3
  109    73    74   133	 9 ;      OG302      CG2O2      CG331       HGA3
  109    73    74   134	 9 ;      OG302      CG2O2      CG331       HGA3
   74    73   109    72	 9 ;      CG331      CG2O2      OG302      CG311
  110    73   109    72	 9 ;      OG2D1      CG2O2      OG302      CG311
   72    75    76    57	 9 ;      CG311      CG2D1      CG2D1      CG311
   72    75    76    77	 9 ;      CG311      CG2D1      CG2D1      CG331
   78    75    76    57	 9 ;      CG301      CG2D1      CG2D1      CG311
   78    75    76    77	 9 ;      CG301      CG2D1      CG2D1      CG331
   72    75    78    59	 9 ;      CG311      CG2D1      CG301      CG301
   72    75    78    79	 9 ;      CG311      CG2D1      CG301      CG331
   72    75    78    80	 9 ;      CG311      CG2D1      CG301      CG331
   76    75    78    59	 9 ;      CG2D1      CG2D1      CG301      CG301
   76    75    78    79	 9 ;      CG2D1      CG2D1      CG301      CG331
   76    75    78    80	 9 ;      CG2D1      CG2D1      CG301      CG331
   57    76    77   135	 9 ;      CG311      CG2D1      CG331       HGA3
   57    76    77   136	 9 ;      CG311      CG2D1      CG331       HGA3
   57    76    77   137	 9 ;      CG311      CG2D1      CG331       HGA3
   75    76    77   135	 9 ;      CG2D1      CG2D1      CG331       HGA3
   75    76    77   136	 9 ;      CG2D1      CG2D1      CG331       HGA3
   75    76    77   137	 9 ;      CG2D1      CG2D1      CG331       HGA3
   59    78    79   138	 9 ;      CG301      CG301      CG331       HGA3
   59    78    79   139	 9 ;      CG301      CG301      CG331       HGA3
   59    78    79   140	 9 ;      CG301      CG301      CG331       HGA3
   75    78    79   138	 9 ;      CG2D1      CG301      CG331       HGA3
   75    78    79   139	 9 ;      CG2D1      CG301      CG331       HGA3
   75    78    79   140	 9 ;      CG2D1      CG301      CG331       HGA3
   80    78    79   138	 9 ;      CG331      CG301      CG331       HGA3
   80    78    79   139	 9 ;      CG331      CG301      CG331       HGA3
   80    78    79   140	 9 ;      CG331      CG301      CG331       HGA3
   59    78    80   141	 9 ;      CG301      CG301      CG331       HGA3
   59    78    80   142	 9 ;      CG301      CG301      CG331       HGA3
   59    78    80   143	 9 ;      CG301      CG301      CG331       HGA3
   75    78    80   141	 9 ;      CG2D1      CG301      CG331       HGA3
   75    78    80   142	 9 ;      CG2D1      CG301      CG331       HGA3
   75    78    80   143	 9 ;      CG2D1      CG301      CG331       HGA3
   79    78    80   141	 9 ;      CG331      CG301      CG331       HGA3
   79    78    80   142	 9 ;      CG331      CG301      CG331       HGA3
   79    78    80   143	 9 ;      CG331      CG301      CG331       HGA3
   69    81    82    83	 9 ;      CG301      CG311      CG321     CG3RC1
   69    81    82   146	 9 ;      CG301      CG311      CG321       HGA2
   69    81    82   147	 9 ;      CG301      CG311      CG321       HGA2
  111    81    82    83	 9 ;      OG311      CG311      CG321     CG3RC1
  111    81    82   146	 9 ;      OG311      CG311      CG321       HGA2
  111    81    82   147	 9 ;      OG311      CG311      CG321       HGA2
  144    81    82    83	 9 ;       HGA1      CG311      CG321     CG3RC1
  144    81    82   146	 9 ;       HGA1      CG311      CG321       HGA2
  144    81    82   147	 9 ;       HGA1      CG311      CG321       HGA2
   69    81   111   145	 9 ;      CG301      CG311      OG311       HGP1
   82    81   111   145	 9 ;      CG321      CG311      OG311       HGP1
  144    81   111   145	 9 ;       HGA1      CG311      OG311       HGP1
   81    82    83    85	 9 ;      CG311      CG321     CG3RC1     CG3RC1
   81    82    83   112	 9 ;      CG311      CG321     CG3RC1     OG3C51
   81    82    83   148	 9 ;      CG311      CG321     CG3RC1       HGA1
  146    82    83    85	 9 ;       HGA2      CG321     CG3RC1     CG3RC1
  146    82    83   112	 9 ;       HGA2      CG321     CG3RC1     OG3C51
  146    82    83   148	 9 ;       HGA2      CG321     CG3RC1       HGA1
  147    82    83    85	 9 ;       HGA2      CG321     CG3RC1     CG3RC1
  147    82    83   112	 9 ;       HGA2      CG321     CG3RC1     OG3C51
  147    82    83   148	 9 ;       HGA2      CG321     CG3RC1       HGA1
   82    83    85    68	 9 ;      CG321     CG3RC1     CG3RC1      CG311
   82    83    85    84	 9 ;      CG321     CG3RC1     CG3RC1     CG3C41
   82    83    85   113	 9 ;      CG321     CG3RC1     CG3RC1      OG302
  112    83    85    68	 9 ;     OG3C51     CG3RC1     CG3RC1      CG311
  112    83    85    84	 9 ;     OG3C51     CG3RC1     CG3RC1     CG3C41
  112    83    85   113	 9 ;     OG3C51     CG3RC1     CG3RC1      OG302
  148    83    85    68	 9 ;       HGA1     CG3RC1     CG3RC1      CG311
  148    83    85    84	 9 ;       HGA1     CG3RC1     CG3RC1     CG3C41
  148    83    85   113	 9 ;       HGA1     CG3RC1     CG3RC1      OG302
   82    83   112    84	 9 ;      CG321     CG3RC1     OG3C51     CG3C41
   85    83   112    84	 9 ;     CG3RC1     CG3RC1     OG3C51     CG3C41
  148    83   112    84	 9 ;       HGA1     CG3RC1     OG3C51     CG3C41
  149    84    85    68	 9 ;       HGA2     CG3C41     CG3RC1      CG311
  149    84    85    83	 9 ;       HGA2     CG3C41     CG3RC1     CG3RC1
  149    84    85   113	 9 ;       HGA2     CG3C41     CG3RC1      OG302
  150    84    85    68	 9 ;       HGA2     CG3C41     CG3RC1      CG311
  150    84    85    83	 9 ;       HGA2     CG3C41     CG3RC1     CG3RC1
  150    84    85   113	 9 ;       HGA2     CG3C41     CG3RC1      OG302
  112    84    85    68	 9 ;     OG3C51     CG3C41     CG3RC1      CG311
  112    84    85    83	 9 ;     OG3C51     CG3C41     CG3RC1     CG3RC1
  112    84    85   113	 9 ;     OG3C51     CG3C41     CG3RC1      OG302
   85    84   112    83	 9 ;     CG3RC1     CG3C41     OG3C51     CG3RC1
  149    84   112    83	 9 ;       HGA2     CG3C41     OG3C51     CG3RC1
  150    84   112    83	 9 ;       HGA2     CG3C41     OG3C51     CG3RC1
   68    85   113    86	 9 ;      CG311     CG3RC1      OG302      CG2O2
   83    85   113    86	 9 ;     CG3RC1     CG3RC1      OG302      CG2O2
   84    85   113    86	 9 ;     CG3C41     CG3RC1      OG302      CG2O2
  114    86    87   151	 9 ;      OG2D1      CG2O2      CG331       HGA3
  114    86    87   152	 9 ;      OG2D1      CG2O2      CG331       HGA3
  114    86    87   153	 9 ;      OG2D1      CG2O2      CG331       HGA3
  113    86    87   151	 9 ;      OG302      CG2O2      CG331       HGA3
  113    86    87   152	 9 ;      OG302      CG2O2      CG331       HGA3
  113    86    87   153	 9 ;      OG302      CG2O2      CG331       HGA3
   87    86   113    85	 9 ;      CG331      CG2O2      OG302     CG3RC1
  114    86   113    85	 9 ;      OG2D1      CG2O2      OG302     CG3RC1
   55    88    96    97	 9 ;      CG311      CG311     CG2R61     CG2R61
   55    88    96   101	 9 ;      CG311      CG311     CG2R61     CG2R61
   54    88    96    97	 9 ;      NG2S1      CG311     CG2R61     CG2R61
   54    88    96   101	 9 ;      NG2S1      CG311     CG2R61     CG2R61
  154    88    96    97	 9 ;       HGA1      CG311     CG2R61     CG2R61
  154    88    96   101	 9 ;       HGA1      CG311     CG2R61     CG2R61
   54    89    90    91	 9 ;      NG2S1      CG2O1     CG2R61     CG2R61
   54    89    90    95	 9 ;      NG2S1      CG2O1     CG2R61     CG2R61
  115    89    90    91	 9 ;      OG2D1      CG2O1     CG2R61     CG2R61
  115    89    90    95	 9 ;      OG2D1      CG2O1     CG2R61     CG2R61
   89    90    91    92	 9 ;      CG2O1     CG2R61     CG2R61     CG2R61
   89    90    91   156	 9 ;      CG2O1     CG2R61     CG2R61      HGR61
   95    90    91    92	 9 ;     CG2R61     CG2R61     CG2R61     CG2R61
   95    90    91   156	 9 ;     CG2R61     CG2R61     CG2R61      HGR61
   89    90    95    94	 9 ;      CG2O1     CG2R61     CG2R61     CG2R61
   89    90    95   160	 9 ;      CG2O1     CG2R61     CG2R61      HGR61
   91    90    95    94	 9 ;     CG2R61     CG2R61     CG2R61     CG2R61
   91    90    95   160	 9 ;     CG2R61     CG2R61     CG2R61      HGR61
   90    91    92    93	 9 ;     CG2R61     CG2R61     CG2R61     CG2R61
   90    91    92   157	 9 ;     CG2R61     CG2R61     CG2R61      HGR61
  156    91    92    93	 9 ;      HGR61     CG2R61     CG2R61     CG2R61
  156    91    92   157	 9 ;      HGR61     CG2R61     CG2R61      HGR61
   91    92    93    94	 9 ;     CG2R61     CG2R61     CG2R61     CG2R61
   91    92    93   158	 9 ;     CG2R61     CG2R61     CG2R61      HGR61
  157    92    93    94	 9 ;      HGR61     CG2R61     CG2R61     CG2R61
  157    92    93   158	 9 ;      HGR61     CG2R61     CG2R61      HGR61
   92    93    94    95	 9 ;     CG2R61     CG2R61     CG2R61     CG2R61
   92    93    94   159	 9 ;     CG2R61     CG2R61     CG2R61      HGR61
  158    93    94    95	 9 ;      HGR61     CG2R61     CG2R61     CG2R61
  158    93    94   159	 9 ;      HGR61     CG2R61     CG2R61      HGR61
   93    94    95    90	 9 ;     CG2R61     CG2R61     CG2R61     CG2R61
   93    94    95   160	 9 ;     CG2R61     CG2R61     CG2R61      HGR61
  159    94    95    90	 9 ;      HGR61     CG2R61     CG2R61     CG2R61
  159    94    95   160	 9 ;      HGR61     CG2R61     CG2R61      HGR61
   88    96    97    98	 9 ;      CG311     CG2R61     CG2R61     CG2R61
   88    96    97   161	 9 ;      CG311     CG2R61     CG2R61      HGR61
  101    96    97    98	 9 ;     CG2R61     CG2R61     CG2R61     CG2R61
  101    96    97   161	 9 ;     CG2R61     CG2R61     CG2R61      HGR61
   88    96   101   100	 9 ;      CG311     CG2R61     CG2R61     CG2R61
   88    96   101   165	 9 ;      CG311     CG2R61     CG2R61      HGR61
   97    96   101   100	 9 ;     CG2R61     CG2R61     CG2R61     CG2R61
   97    96   101   165	 9 ;     CG2R61     CG2R61     CG2R61      HGR61
   96    97    98    99	 9 ;     CG2R61     CG2R61     CG2R61     CG2R61
   96    97    98   162	 9 ;     CG2R61     CG2R61     CG2R61      HGR61
  161    97    98    99	 9 ;      HGR61     CG2R61     CG2R61     CG2R61
  161    97    98   162	 9 ;      HGR61     CG2R61     CG2R61      HGR61
   97    98    99   100	 9 ;     CG2R61     CG2R61     CG2R61     CG2R61
   97    98    99   163	 9 ;     CG2R61     CG2R61     CG2R61      HGR61
  162    98    99   100	 9 ;      HGR61     CG2R61     CG2R61     CG2R61
  162    98    99   163	 9 ;      HGR61     CG2R61     CG2R61      HGR61
   98    99   100   101	 9 ;     CG2R61     CG2R61     CG2R61     CG2R61
   98    99   100   164	 9 ;     CG2R61     CG2R61     CG2R61      HGR61
  163    99   100   101	 9 ;      HGR61     CG2R61     CG2R61     CG2R61
  163    99   100   164	 9 ;      HGR61     CG2R61     CG2R61      HGR61
   99   100   101    96	 9 ;     CG2R61     CG2R61     CG2R61     CG2R61
   99   100   101   165	 9 ;     CG2R61     CG2R61     CG2R61      HGR61
  164   100   101    96	 9 ;      HGR61     CG2R61     CG2R61     CG2R61
  164   100   101   165	 9 ;      HGR61     CG2R61     CG2R61      HGR61

[ dihedrals ]
;	ai	  aj	ak	  al funct			  c0			c1			  c2			c3
   56    55   103   104	 2
   61    62   107   106	 2
   71    69    72   108	 2
   73    74   110   109	 2
   86    87   114   113	 2
   89    90    54   115	 2

