; Created by cgenff_charmm2gmx.py

[ moleculetype ]
; Name			   nrexcl
CBZ				 3

[ atoms ]
;	 nr		  type	resnr residue  atom   cgnr	   charge		mass  typeB    chargeB		massB
; residue	 1 CBZ rtp CBZ q	qsum
     1      CG331      1    CBZ     C1      1     -0.101     12.011   ;
     2      OG301      1    CBZ     O1      2     -0.367     15.999   ;
     3      CG311      1    CBZ     C2      3      0.118     12.011   ;
     4      CG321      1    CBZ     C3      4     -0.212     12.011   ;
     5     CG3RC1      1    CBZ     C4      5      0.020     12.011   ;
     6     OG3C51      1    CBZ     O2      6     -0.343     15.999   ;
     7     CG3C41      1    CBZ     C5      7     -0.106     12.011   ;
     8     CG3RC1      1    CBZ     C6      8      0.366     12.011   ;
     9      OG302      1    CBZ     O3      9     -0.422     15.999   ;
    10      CG2O2      1    CBZ     C7     10      0.885     12.011   ;
    11      CG331      1    CBZ     C8     11     -0.313     12.011   ;
    12      OG2D1      1    CBZ     O4     12     -0.617     15.999   ;
    13      CG311      1    CBZ     C9     13     -0.074     12.011   ;
    14      CG311      1    CBZ    C10     14      0.133     12.011   ;
    15      OG302      1    CBZ     O5     15     -0.310     15.999   ;
    16      CG2O2      1    CBZ    C11     16      0.459     12.011   ;
    17      OG2D1      1    CBZ     O6     17     -0.496     15.999   ;
    18     CG2R61      1    CBZ    C12     18      0.086     12.011   ;
    19     CG2R61      1    CBZ    C13     19     -0.110     12.011   ;
    20     CG2R61      1    CBZ    C14     20     -0.114     12.011   ;
    21     CG2R61      1    CBZ    C15     21     -0.115     12.011   ;
    22     CG2R61      1    CBZ    C16     22     -0.114     12.011   ;
    23     CG2R61      1    CBZ    C17     23     -0.110     12.011   ;
    24      CG301      1    CBZ    C18     24      0.186     12.011   ;
    25      OG311      1    CBZ     O7     25     -0.460     15.999   ;
    26      CG321      1    CBZ    C19     26     -0.212     12.011   ;
    27      CG311      1    CBZ    C20     27      0.272     12.011   ;
    28      OG302      1    CBZ     O8     28     -0.419     15.999   ;
    29      CG2O2      1    CBZ    C21     29      0.853     12.011   ;
    30      OG2D1      1    CBZ     O9     30     -0.628     15.999   ;
    31      CG311      1    CBZ    C22     31      0.124     12.011   ;
    32      OG311      1    CBZ    O10     32     -0.662     15.999   ;
    33      CG311      1    CBZ    C23     33      0.127     12.011   ;
    34      NG2S1      1    CBZ      N     34     -0.548     14.007   ;
    35      CG2O1      1    CBZ    C24     35      0.638     12.011   ;
    36      OG2D1      1    CBZ    O11     36     -0.511     15.999   ;
    37      CG301      1    CBZ    C25     37     -0.054     12.011   ;
    38      CG331      1    CBZ    C26     38     -0.273     12.011   ;
    39      CG331      1    CBZ    C27     39     -0.273     12.011   ;
    40      CG331      1    CBZ    C28     40     -0.273     12.011   ;
    41     CG2R61      1    CBZ    C29     41     -0.040     12.011   ;
    42     CG2R61      1    CBZ    C30     42     -0.106     12.011   ;
    43     CG2R61      1    CBZ    C31     43     -0.115     12.011   ;
    44     CG2R61      1    CBZ    C32     44     -0.115     12.011   ;
    45     CG2R61      1    CBZ    C33     45     -0.115     12.011   ;
    46     CG2R61      1    CBZ    C34     46     -0.106     12.011   ;
    47      CG2D1      1    CBZ    C35     47     -0.153     12.011   ;
    48      CG331      1    CBZ    C36     48     -0.265     12.011   ;
    49      CG2D1      1    CBZ    C37     49     -0.113     12.011   ;
    50      CG311      1    CBZ    C38     50      0.362     12.011   ;
    51      OG301      1    CBZ    O12     51     -0.377     15.999   ;
    52      CG331      1    CBZ    C39     52     -0.088     12.011   ;
    53      CG2O5      1    CBZ    C40     53      0.306     12.011   ;
    54      OG2D3      1    CBZ    O13     54     -0.515     15.999   ;
    55      CG301      1    CBZ    C41     55      0.088     12.011   ;
    56      CG331      1    CBZ    C42     56     -0.263     12.011   ;
    57      CG301      1    CBZ    C43     57      0.016     12.011   ;
    58      CG331      1    CBZ    C44     58     -0.269     12.011   ;
    59      CG331      1    CBZ    C45     59     -0.269     12.011   ;
    60       HGA3      1    CBZ     H1     60      0.090      1.008   ;
    61       HGA3      1    CBZ     H2     61      0.090      1.008   ;
    62       HGA3      1    CBZ     H3     62      0.090      1.008   ;
    63       HGA1      1    CBZ     H4     63      0.090      1.008   ;
    64       HGA2      1    CBZ     H5     64      0.090      1.008   ;
    65       HGA2      1    CBZ     H6     65      0.090      1.008   ;
    66       HGA1      1    CBZ     H7     66      0.090      1.008   ;
    67       HGA2      1    CBZ     H8     67      0.090      1.008   ;
    68       HGA2      1    CBZ     H9     68      0.090      1.008   ;
    69       HGA3      1    CBZ    H10     69      0.090      1.008   ;
    70       HGA3      1    CBZ    H11     70      0.090      1.008   ;
    71       HGA3      1    CBZ    H12     71      0.090      1.008   ;
    72       HGA1      1    CBZ    H13     72      0.090      1.008   ;
    73       HGA1      1    CBZ    H14     73      0.090      1.008   ;
    74      HGR61      1    CBZ    H15     74      0.115      1.008   ;
    75      HGR61      1    CBZ    H16     75      0.115      1.008   ;
    76      HGR61      1    CBZ    H17     76      0.115      1.008   ;
    77      HGR61      1    CBZ    H18     77      0.115      1.008   ;
    78      HGR61      1    CBZ    H19     78      0.115      1.008   ;
    79       HGP1      1    CBZ    H20     79      0.292      1.008   ;
    80       HGA2      1    CBZ    H21     80      0.090      1.008   ;
    81       HGA2      1    CBZ    H22     81      0.090      1.008   ;
    82       HGA1      1    CBZ    H23     82      0.090      1.008   ;
    83       HGA1      1    CBZ    H24     83      0.090      1.008   ;
    84       HGP1      1    CBZ    H25     84      0.421      1.008   ;
    85       HGA1      1    CBZ    H26     85      0.090      1.008   ;
    86       HGP1      1    CBZ    H27     86      0.284      1.008   ;
    87       HGA3      1    CBZ    H28     87      0.090      1.008   ;
    88       HGA3      1    CBZ    H29     88      0.090      1.008   ;
    89       HGA3      1    CBZ    H30     89      0.090      1.008   ;
    90       HGA3      1    CBZ    H31     90      0.090      1.008   ;
    91       HGA3      1    CBZ    H32     91      0.090      1.008   ;
    92       HGA3      1    CBZ    H33     92      0.090      1.008   ;
    93       HGA3      1    CBZ    H34     93      0.090      1.008   ;
    94       HGA3      1    CBZ    H35     94      0.090      1.008   ;
    95       HGA3      1    CBZ    H36     95      0.090      1.008   ;
    96      HGR61      1    CBZ    H37     96      0.115      1.008   ;
    97      HGR61      1    CBZ    H38     97      0.115      1.008   ;
    98      HGR61      1    CBZ    H39     98      0.115      1.008   ;
    99      HGR61      1    CBZ    H40     99      0.115      1.008   ;
   100      HGR61      1    CBZ    H41    100      0.115      1.008   ;
   101       HGA3      1    CBZ    H42    101      0.090      1.008   ;
   102       HGA3      1    CBZ    H43    102      0.090      1.008   ;
   103       HGA3      1    CBZ    H44    103      0.090      1.008   ;
   104       HGA1      1    CBZ    H45    104      0.090      1.008   ;
   105       HGA3      1    CBZ    H46    105      0.090      1.008   ;
   106       HGA3      1    CBZ    H47    106      0.090      1.008   ;
   107       HGA3      1    CBZ    H48    107      0.090      1.008   ;
   108       HGA3      1    CBZ    H49    108      0.090      1.008   ;
   109       HGA3      1    CBZ    H50    109      0.090      1.008   ;
   110       HGA3      1    CBZ    H51    110      0.090      1.008   ;
   111       HGA3      1    CBZ    H52    111      0.090      1.008   ;
   112       HGA3      1    CBZ    H53    112      0.090      1.008   ;
   113       HGA3      1    CBZ    H54    113      0.090      1.008   ;
   114       HGA3      1    CBZ    H55    114      0.090      1.008   ;
   115       HGA3      1    CBZ    H56    115      0.090      1.008   ;
   116       HGA3      1    CBZ    H57    116      0.090      1.008   ;

[ bonds ]
;	ai	  aj funct			  c0			c1			  c2			c3
    1     2	 1
    1    60	 1
    1    61	 1
    1    62	 1
    2     3	 1
    3     4	 1
    3    63	 1
    3    55	 1
    4    65	 1
    4     5	 1
    4    64	 1
    5    66	 1
    5     6	 1
    5     8	 1
    6     7	 1
    7    67	 1
    7    68	 1
    7     8	 1
    8     9	 1
    8    13	 1
    9    10	 1
   10    11	 1
   10    12	 1
   11    69	 1
   11    70	 1
   11    71	 1
   13    72	 1
   13    14	 1
   13    55	 1
   14    73	 1
   14    15	 1
   14    24	 1
   15    16	 1
   16    17	 1
   16    18	 1
   18    19	 1
   18    23	 1
   19    20	 1
   19    74	 1
   20    21	 1
   20    75	 1
   21    76	 1
   21    22	 1
   22    77	 1
   22    23	 1
   23    78	 1
   24    25	 1
   24    26	 1
   24    57	 1
   25    79	 1
   26    81	 1
   26    27	 1
   26    80	 1
   27    28	 1
   27    47	 1
   27    82	 1
   28    29	 1
   29    30	 1
   29    31	 1
   31    33	 1
   31    83	 1
   31    32	 1
   32    84	 1
   33    41	 1
   33    34	 1
   33    85	 1
   34    35	 1
   34    86	 1
   35    36	 1
   35    37	 1
   37    38	 1
   37    39	 1
   37    40	 1
   38    89	 1
   38    87	 1
   38    88	 1
   39    90	 1
   39    91	 1
   39    92	 1
   40    93	 1
   40    94	 1
   40    95	 1
   41    42	 1
   41    46	 1
   42    43	 1
   42    96	 1
   43    97	 1
   43    44	 1
   44    98	 1
   44    45	 1
   45    99	 1
   45    46	 1
   46   100	 1
   47    49	 1
   47    48	 1
   48   103	 1
   48   101	 1
   48   102	 1
   49    57	 1
   49    50	 1
   50    51	 1
   50    53	 1
   50   104	 1
   51    52	 1
   52   105	 1
   52   106	 1
   52   107	 1
   53    54	 1
   53    55	 1
   55    56	 1
   56   108	 1
   56   109	 1
   56   110	 1
   57    58	 1
   57    59	 1
   58   113	 1
   58   111	 1
   58   112	 1
   59   114	 1
   59   115	 1
   59   116	 1

[ pairs ]
;	ai	  aj funct			  c0			c1			  c2			c3
    1     4	 1
    1    55	 1
    1    63	 1
    2    65	 1
    2     5	 1
    2    13	 1
    2    53	 1
    2    56	 1
    2    64	 1
    3    66	 1
    3   108	 1
    3     6	 1
    3     8	 1
    3    72	 1
    3   109	 1
    3    14	 1
    3   110	 1
    3    50	 1
    3    54	 1
    3    60	 1
    3    61	 1
    3    62	 1
    4     7	 1
    4     9	 1
    4    13	 1
    4    53	 1
    4    56	 1
    5    67	 1
    5    68	 1
    5    72	 1
    5    10	 1
    5    14	 1
    5    55	 1
    5    63	 1
    6    65	 1
    6     9	 1
    6    13	 1
    6    64	 1
    7    66	 1
    7    72	 1
    7    10	 1
    7    14	 1
    7    55	 1
    8    65	 1
    8    73	 1
    8    11	 1
    8    12	 1
    8    15	 1
    8    53	 1
    8    24	 1
    8    56	 1
    8    64	 1
    9    66	 1
    9    67	 1
    9    68	 1
    9    69	 1
    9    71	 1
    9    72	 1
    9    14	 1
    9    55	 1
    9    70	 1
   10    13	 1
   12    69	 1
   12    70	 1
   12    71	 1
   13    67	 1
   13    66	 1
   13   108	 1
   13   109	 1
   13   110	 1
   13    16	 1
   13    57	 1
   13    68	 1
   13    54	 1
   13    25	 1
   13    26	 1
   13    50	 1
   13    63	 1
   14    81	 1
   14    49	 1
   14    79	 1
   14    80	 1
   14    17	 1
   14    18	 1
   14    53	 1
   14    56	 1
   14    58	 1
   14    27	 1
   14    59	 1
   15    23	 1
   15    72	 1
   15    57	 1
   15    19	 1
   15    55	 1
   15    25	 1
   15    26	 1
   16    73	 1
   16    74	 1
   16    78	 1
   16    20	 1
   16    22	 1
   16    24	 1
   17    19	 1
   17    23	 1
   18    77	 1
   18    75	 1
   18    21	 1
   19    76	 1
   19    22	 1
   19    78	 1
   20    77	 1
   20    23	 1
   21    78	 1
   21    74	 1
   22    75	 1
   23    74	 1
   23    76	 1
   24   114	 1
   24    50	 1
   24    72	 1
   24    47	 1
   24   113	 1
   24    82	 1
   24   115	 1
   24   116	 1
   24   111	 1
   24    55	 1
   24   112	 1
   24    28	 1
   25    49	 1
   25    73	 1
   25    80	 1
   25    81	 1
   25    58	 1
   25    27	 1
   25    59	 1
   26    73	 1
   26    79	 1
   26    48	 1
   26    49	 1
   26    58	 1
   26    59	 1
   26    29	 1
   27   101	 1
   27   102	 1
   27   103	 1
   27    50	 1
   27    57	 1
   27    30	 1
   27    31	 1
   28    33	 1
   28    49	 1
   28    48	 1
   28    81	 1
   28    83	 1
   28    80	 1
   28    32	 1
   29    34	 1
   29    41	 1
   29    47	 1
   29    82	 1
   29    84	 1
   29    85	 1
   30    33	 1
   30    83	 1
   30    32	 1
   31    42	 1
   31    35	 1
   31    46	 1
   31    86	 1
   32    41	 1
   32    34	 1
   32    85	 1
   33    36	 1
   33    37	 1
   33    43	 1
   33    45	 1
   33   100	 1
   33    84	 1
   33    96	 1
   34    38	 1
   34    39	 1
   34    40	 1
   34    42	 1
   34    46	 1
   34    83	 1
   35    41	 1
   35    85	 1
   35    95	 1
   35    87	 1
   35    88	 1
   35    89	 1
   35    90	 1
   35    91	 1
   35    92	 1
   35    93	 1
   35    94	 1
   36    40	 1
   36    86	 1
   36    39	 1
   36    38	 1
   37    86	 1
   38    90	 1
   38    91	 1
   38    92	 1
   38    93	 1
   38    94	 1
   38    95	 1
   39    87	 1
   39    88	 1
   39    89	 1
   39    93	 1
   39    94	 1
   39    95	 1
   40    87	 1
   40    88	 1
   40    89	 1
   40    90	 1
   40    91	 1
   40    92	 1
   41    97	 1
   41    44	 1
   41    99	 1
   41    83	 1
   41    86	 1
   42   100	 1
   42    98	 1
   42    45	 1
   42    85	 1
   43    99	 1
   43    46	 1
   44   100	 1
   44    96	 1
   45    97	 1
   46    98	 1
   46    85	 1
   46    96	 1
   47   104	 1
   47    80	 1
   47    81	 1
   47    51	 1
   47    53	 1
   47    58	 1
   47    59	 1
   48    57	 1
   48    50	 1
   48    82	 1
   49   116	 1
   49   101	 1
   49   102	 1
   49   103	 1
   49   114	 1
   49   111	 1
   49   112	 1
   49   113	 1
   49    82	 1
   49   115	 1
   49    52	 1
   49    54	 1
   49    55	 1
   50   105	 1
   50   106	 1
   50   107	 1
   50    56	 1
   50    58	 1
   50    59	 1
   51    57	 1
   51    55	 1
   51    54	 1
   52    53	 1
   52   104	 1
   53   108	 1
   53    72	 1
   53   109	 1
   53   110	 1
   53    57	 1
   53    63	 1
   54   104	 1
   54    56	 1
   55    65	 1
   55   104	 1
   55    73	 1
   55    64	 1
   56    72	 1
   56    63	 1
   57   104	 1
   57    73	 1
   57    79	 1
   57    80	 1
   57    81	 1
   58   114	 1
   58   115	 1
   58   116	 1
   59   112	 1
   59   113	 1
   59   111	 1
   63    65	 1
   63    64	 1
   64    66	 1
   65    66	 1
   72    73	 1
   74    75	 1
   75    76	 1
   76    77	 1
   77    78	 1
   80    82	 1
   81    82	 1
   83    84	 1
   83    85	 1
   85    86	 1
   96    97	 1
   97    98	 1
   98    99	 1
   99   100	 1

[ angles ]
;	ai	  aj	ak funct			c0			  c1			c2			  c3
    2     1    60	5
    2     1    61	5
    2     1    62	5
   60     1    61	5
   60     1    62	5
   61     1    62	5
    1     2     3	5
    2     3     4	5
    2     3    63	5
    2     3    55	5
    4     3    63	5
    4     3    55	5
   63     3    55	5
   65     4     3	5
   65     4     5	5
   65     4    64	5
    3     4     5	5
    3     4    64	5
    5     4    64	5
   66     5     4	5
   66     5     6	5
   66     5     8	5
    4     5     6	5
    4     5     8	5
    6     5     8	5
    5     6     7	5
   67     7    68	5
   67     7     6	5
   67     7     8	5
   68     7     6	5
   68     7     8	5
    6     7     8	5
    9     8    13	5
    9     8     5	5
    9     8     7	5
   13     8     5	5
   13     8     7	5
    5     8     7	5
   10     9     8	5
    9    10    11	5
    9    10    12	5
   11    10    12	5
   10    11    69	5
   10    11    70	5
   10    11    71	5
   69    11    70	5
   69    11    71	5
   70    11    71	5
   72    13    14	5
   72    13    55	5
   72    13     8	5
   14    13    55	5
   14    13     8	5
   55    13     8	5
   73    14    13	5
   73    14    15	5
   73    14    24	5
   13    14    15	5
   13    14    24	5
   15    14    24	5
   14    15    16	5
   17    16    18	5
   17    16    15	5
   18    16    15	5
   19    18    23	5
   19    18    16	5
   23    18    16	5
   18    19    20	5
   18    19    74	5
   20    19    74	5
   19    20    21	5
   19    20    75	5
   21    20    75	5
   76    21    20	5
   76    21    22	5
   20    21    22	5
   77    22    21	5
   77    22    23	5
   21    22    23	5
   18    23    22	5
   18    23    78	5
   22    23    78	5
   25    24    26	5
   25    24    14	5
   25    24    57	5
   26    24    14	5
   26    24    57	5
   14    24    57	5
   79    25    24	5
   81    26    27	5
   81    26    80	5
   81    26    24	5
   27    26    80	5
   27    26    24	5
   80    26    24	5
   26    27    28	5
   26    27    47	5
   26    27    82	5
   28    27    47	5
   28    27    82	5
   47    27    82	5
   27    28    29	5
   28    29    30	5
   28    29    31	5
   30    29    31	5
   33    31    83	5
   33    31    29	5
   33    31    32	5
   83    31    29	5
   83    31    32	5
   29    31    32	5
   84    32    31	5
   41    33    34	5
   41    33    85	5
   41    33    31	5
   34    33    85	5
   34    33    31	5
   85    33    31	5
   33    34    35	5
   33    34    86	5
   35    34    86	5
   34    35    36	5
   34    35    37	5
   36    35    37	5
   35    37    38	5
   35    37    39	5
   35    37    40	5
   38    37    39	5
   38    37    40	5
   39    37    40	5
   89    38    37	5
   89    38    87	5
   89    38    88	5
   37    38    87	5
   37    38    88	5
   87    38    88	5
   90    39    91	5
   90    39    92	5
   90    39    37	5
   91    39    92	5
   91    39    37	5
   92    39    37	5
   93    40    37	5
   93    40    94	5
   93    40    95	5
   37    40    94	5
   37    40    95	5
   94    40    95	5
   33    41    42	5
   33    41    46	5
   42    41    46	5
   41    42    43	5
   41    42    96	5
   43    42    96	5
   97    43    42	5
   97    43    44	5
   42    43    44	5
   98    44    43	5
   98    44    45	5
   43    44    45	5
   99    45    44	5
   99    45    46	5
   44    45    46	5
   41    46   100	5
   41    46    45	5
  100    46    45	5
   49    47    27	5
   49    47    48	5
   27    47    48	5
  103    48   101	5
  103    48   102	5
  103    48    47	5
  101    48   102	5
  101    48    47	5
  102    48    47	5
   57    49    50	5
   57    49    47	5
   50    49    47	5
   49    50    51	5
   49    50    53	5
   49    50   104	5
   51    50    53	5
   51    50   104	5
   53    50   104	5
   50    51    52	5
  105    52   106	5
  105    52    51	5
  105    52   107	5
  106    52    51	5
  106    52   107	5
   51    52   107	5
   50    53    54	5
   50    53    55	5
   54    53    55	5
   53    55     3	5
   53    55    13	5
   53    55    56	5
    3    55    13	5
    3    55    56	5
   13    55    56	5
  108    56   109	5
  108    56   110	5
  108    56    55	5
  109    56   110	5
  109    56    55	5
  110    56    55	5
   49    57    58	5
   49    57    59	5
   49    57    24	5
   58    57    59	5
   58    57    24	5
   59    57    24	5
   57    58   113	5
   57    58   111	5
   57    58   112	5
  113    58   111	5
  113    58   112	5
  111    58   112	5
   57    59   114	5
   57    59   115	5
   57    59   116	5
  114    59   115	5
  114    59   116	5
  115    59   116	5

[ dihedrals ]
;	ai	  aj	ak	  al funct			  c0			c1			  c2			c3			  c4			c5
   60     1     2     3	 9
   61     1     2     3	 9
   62     1     2     3	 9
    1     2     3     4	 9
    1     2     3    63	 9
    1     2     3    55	 9
    2     3     4    65	 9
    2     3     4     5	 9
    2     3     4    64	 9
   63     3     4    65	 9
   63     3     4     5	 9
   63     3     4    64	 9
   55     3     4    65	 9
   55     3     4     5	 9
   55     3     4    64	 9
    2     3    55    53	 9
    2     3    55    13	 9
    2     3    55    56	 9
    4     3    55    53	 9
    4     3    55    13	 9
    4     3    55    56	 9
   63     3    55    53	 9
   63     3    55    13	 9
   63     3    55    56	 9
   65     4     5    66	 9
   65     4     5     6	 9
   65     4     5     8	 9
    3     4     5    66	 9
    3     4     5     6	 9
    3     4     5     8	 9
   64     4     5    66	 9
   64     4     5     6	 9
   64     4     5     8	 9
   66     5     6     7	 9
    4     5     6     7	 9
    8     5     6     7	 9
   66     5     8     9	 9
   66     5     8    13	 9
   66     5     8     7	 9
    4     5     8     9	 9
    4     5     8    13	 9
    4     5     8     7	 9
    6     5     8     9	 9
    6     5     8    13	 9
    6     5     8     7	 9
    5     6     7    67	 9
    5     6     7    68	 9
    5     6     7     8	 9
   67     7     8     9	 9
   67     7     8    13	 9
   67     7     8     5	 9
   68     7     8     9	 9
   68     7     8    13	 9
   68     7     8     5	 9
    6     7     8     9	 9
    6     7     8    13	 9
    6     7     8     5	 9
   13     8     9    10	 9
    5     8     9    10	 9
    7     8     9    10	 9
    9     8    13    72	 9
    9     8    13    14	 9
    9     8    13    55	 9
    5     8    13    72	 9
    5     8    13    14	 9
    5     8    13    55	 9
    7     8    13    72	 9
    7     8    13    14	 9
    7     8    13    55	 9
    8     9    10    11	 9
    8     9    10    12	 9
    9    10    11    69	 9
    9    10    11    70	 9
    9    10    11    71	 9
   12    10    11    69	 9
   12    10    11    70	 9
   12    10    11    71	 9
   72    13    14    73	 9
   72    13    14    15	 9
   72    13    14    24	 9
   55    13    14    73	 9
   55    13    14    15	 9
   55    13    14    24	 9
    8    13    14    73	 9
    8    13    14    15	 9
    8    13    14    24	 9
   72    13    55    53	 9
   72    13    55     3	 9
   72    13    55    56	 9
   14    13    55    53	 9
   14    13    55     3	 9
   14    13    55    56	 9
    8    13    55    53	 9
    8    13    55     3	 9
    8    13    55    56	 9
   73    14    15    16	 9
   13    14    15    16	 9
   24    14    15    16	 9
   73    14    24    25	 9
   73    14    24    26	 9
   73    14    24    57	 9
   13    14    24    25	 9
   13    14    24    26	 9
   13    14    24    57	 9
   15    14    24    25	 9
   15    14    24    26	 9
   15    14    24    57	 9
   14    15    16    17	 9
   14    15    16    18	 9
   17    16    18    19	 9
   17    16    18    23	 9
   15    16    18    19	 9
   15    16    18    23	 9
   23    18    19    20	 9
   23    18    19    74	 9
   16    18    19    20	 9
   16    18    19    74	 9
   19    18    23    22	 9
   19    18    23    78	 9
   16    18    23    22	 9
   16    18    23    78	 9
   18    19    20    21	 9
   18    19    20    75	 9
   74    19    20    21	 9
   74    19    20    75	 9
   19    20    21    76	 9
   19    20    21    22	 9
   75    20    21    76	 9
   75    20    21    22	 9
   76    21    22    77	 9
   76    21    22    23	 9
   20    21    22    77	 9
   20    21    22    23	 9
   77    22    23    18	 9
   77    22    23    78	 9
   21    22    23    18	 9
   21    22    23    78	 9
   26    24    25    79	 9
   14    24    25    79	 9
   57    24    25    79	 9
   25    24    26    81	 9
   25    24    26    27	 9
   25    24    26    80	 9
   14    24    26    81	 9
   14    24    26    27	 9
   14    24    26    80	 9
   57    24    26    81	 9
   57    24    26    27	 9
   57    24    26    80	 9
   25    24    57    49	 9
   25    24    57    58	 9
   25    24    57    59	 9
   26    24    57    49	 9
   26    24    57    58	 9
   26    24    57    59	 9
   14    24    57    49	 9
   14    24    57    58	 9
   14    24    57    59	 9
   81    26    27    28	 9
   81    26    27    47	 9
   81    26    27    82	 9
   80    26    27    28	 9
   80    26    27    47	 9
   80    26    27    82	 9
   24    26    27    28	 9
   24    26    27    47	 9
   24    26    27    82	 9
   26    27    28    29	 9
   47    27    28    29	 9
   82    27    28    29	 9
   26    27    47    49	 9
   26    27    47    48	 9
   28    27    47    49	 9
   28    27    47    48	 9
   82    27    47    49	 9
   82    27    47    48	 9
   27    28    29    30	 9
   27    28    29    31	 9
   28    29    31    33	 9
   28    29    31    83	 9
   28    29    31    32	 9
   30    29    31    33	 9
   30    29    31    83	 9
   30    29    31    32	 9
   83    31    33    41	 9
   83    31    33    34	 9
   83    31    33    85	 9
   29    31    33    41	 9
   29    31    33    34	 9
   29    31    33    85	 9
   32    31    33    41	 9
   32    31    33    34	 9
   32    31    33    85	 9
   33    31    32    84	 9
   83    31    32    84	 9
   29    31    32    84	 9
   34    33    41    42	 9
   34    33    41    46	 9
   85    33    41    42	 9
   85    33    41    46	 9
   31    33    41    42	 9
   31    33    41    46	 9
   41    33    34    35	 9
   41    33    34    86	 9
   85    33    34    35	 9
   85    33    34    86	 9
   31    33    34    35	 9
   31    33    34    86	 9
   33    34    35    36	 9
   33    34    35    37	 9
   86    34    35    36	 9
   86    34    35    37	 9
   34    35    37    38	 9
   34    35    37    39	 9
   34    35    37    40	 9
   36    35    37    38	 9
   36    35    37    39	 9
   36    35    37    40	 9
   35    37    38    89	 9
   35    37    38    87	 9
   35    37    38    88	 9
   39    37    38    89	 9
   39    37    38    87	 9
   39    37    38    88	 9
   40    37    38    89	 9
   40    37    38    87	 9
   40    37    38    88	 9
   35    37    39    90	 9
   35    37    39    91	 9
   35    37    39    92	 9
   38    37    39    90	 9
   38    37    39    91	 9
   38    37    39    92	 9
   40    37    39    90	 9
   40    37    39    91	 9
   40    37    39    92	 9
   35    37    40    93	 9
   35    37    40    94	 9
   35    37    40    95	 9
   38    37    40    93	 9
   38    37    40    94	 9
   38    37    40    95	 9
   39    37    40    93	 9
   39    37    40    94	 9
   39    37    40    95	 9
   33    41    42    43	 9
   33    41    42    96	 9
   46    41    42    43	 9
   46    41    42    96	 9
   33    41    46   100	 9
   33    41    46    45	 9
   42    41    46   100	 9
   42    41    46    45	 9
   41    42    43    97	 9
   41    42    43    44	 9
   96    42    43    97	 9
   96    42    43    44	 9
   97    43    44    98	 9
   97    43    44    45	 9
   42    43    44    98	 9
   42    43    44    45	 9
   98    44    45    99	 9
   98    44    45    46	 9
   43    44    45    99	 9
   43    44    45    46	 9
   99    45    46    41	 9
   99    45    46   100	 9
   44    45    46    41	 9
   44    45    46   100	 9
   27    47    49    57	 9
   27    47    49    50	 9
   48    47    49    57	 9
   48    47    49    50	 9
   49    47    48   103	 9
   49    47    48   101	 9
   49    47    48   102	 9
   27    47    48   103	 9
   27    47    48   101	 9
   27    47    48   102	 9
   50    49    57    58	 9
   50    49    57    59	 9
   50    49    57    24	 9
   47    49    57    58	 9
   47    49    57    59	 9
   47    49    57    24	 9
   57    49    50    51	 9
   57    49    50    53	 9
   57    49    50   104	 9
   47    49    50    51	 9
   47    49    50    53	 9
   47    49    50   104	 9
   49    50    51    52	 9
   53    50    51    52	 9
  104    50    51    52	 9
   49    50    53    54	 9
   49    50    53    55	 9
   51    50    53    54	 9
   51    50    53    55	 9
  104    50    53    54	 9
  104    50    53    55	 9
   50    51    52   105	 9
   50    51    52   106	 9
   50    51    52   107	 9
   50    53    55     3	 9
   50    53    55    13	 9
   50    53    55    56	 9
   54    53    55     3	 9
   54    53    55    13	 9
   54    53    55    56	 9
   53    55    56   108	 9
   53    55    56   109	 9
   53    55    56   110	 9
    3    55    56   108	 9
    3    55    56   109	 9
    3    55    56   110	 9
   13    55    56   108	 9
   13    55    56   109	 9
   13    55    56   110	 9
   49    57    58   113	 9
   49    57    58   111	 9
   49    57    58   112	 9
   59    57    58   113	 9
   59    57    58   111	 9
   59    57    58   112	 9
   24    57    58   113	 9
   24    57    58   111	 9
   24    57    58   112	 9
   49    57    59   114	 9
   49    57    59   115	 9
   49    57    59   116	 9
   58    57    59   114	 9
   58    57    59   115	 9
   58    57    59   116	 9
   24    57    59   114	 9
   24    57    59   115	 9
   24    57    59   116	 9

[ dihedrals ]
;	ai	  aj	ak	  al funct			  c0			c1			  c2			c3
   10    11    12     9	 2
   16    18    17    15	 2
   29    31    30    28	 2
   35    37    34    36	 2
   53    55    50    54	 2

