; Created by cgenff_charmm2gmx.py

[ moleculetype ]
; Name			   nrexcl
DTX				 3

[ atoms ]
;	 nr		  type	resnr residue  atom   cgnr	   charge		mass  typeB    chargeB		massB
; residue	 1 DTX rtp DTX q	qsum
     1      CG331      1    DTX     C1      1     -0.313     12.011   ;
     2      CG2O2      1    DTX     C2      2      0.885     12.011   ;
     3      OG2D1      1    DTX     O1      3     -0.617     15.999   ;
     4      OG302      1    DTX     O2      4     -0.422     15.999   ;
     5     CG3RC1      1    DTX     C3      5      0.366     12.011   ;
     6     CG3C41      1    DTX     C4      6     -0.106     12.011   ;
     7     OG3C51      1    DTX     O3      7     -0.343     15.999   ;
     8     CG3RC1      1    DTX     C5      8      0.015     12.011   ;
     9      CG321      1    DTX     C6      9     -0.201     12.011   ;
    10      CG311      1    DTX     C7     10      0.166     12.011   ;
    11      OG311      1    DTX     O4     11     -0.642     15.999   ;
    12      CG301      1    DTX     C8     12      0.081     12.011   ;
    13      CG331      1    DTX     C9     13     -0.263     12.011   ;
    14      CG2O5      1    DTX    C10     14      0.331     12.011   ;
    15      OG2D3      1    DTX     O5     15     -0.515     15.999   ;
    16      CG311      1    DTX    C11     16      0.376     12.011   ;
    17      OG311      1    DTX     O6     17     -0.612     15.999   ;
    18      CG2D1      1    DTX    C12     18     -0.097     12.011   ;
    19      CG2D1      1    DTX    C13     19     -0.158     12.011   ;
    20      CG331      1    DTX    C14     20     -0.265     12.011   ;
    21      CG311      1    DTX    C15     21      0.272     12.011   ;
    22      OG302      1    DTX     O7     22     -0.419     15.999   ;
    23      CG2O2      1    DTX    C16     23      0.853     12.011   ;
    24      OG2D1      1    DTX     O8     24     -0.628     15.999   ;
    25      CG311      1    DTX    C17     25      0.124     12.011   ;
    26      OG311      1    DTX     O9     26     -0.662     15.999   ;
    27      CG311      1    DTX    C18     27      0.127     12.011   ;
    28      NG2S1      1    DTX      N     28     -0.548     14.007   ;
    29      CG2O1      1    DTX    C19     29      0.638     12.011   ;
    30      OG2D1      1    DTX    O10     30     -0.511     15.999   ;
    31      CG301      1    DTX    C20     31     -0.054     12.011   ;
    32      CG331      1    DTX    C21     32     -0.273     12.011   ;
    33      CG331      1    DTX    C22     33     -0.273     12.011   ;
    34      CG331      1    DTX    C23     34     -0.273     12.011   ;
    35     CG2R61      1    DTX    C24     35     -0.040     12.011   ;
    36     CG2R61      1    DTX    C25     36     -0.106     12.011   ;
    37     CG2R61      1    DTX    C26     37     -0.115     12.011   ;
    38     CG2R61      1    DTX    C27     38     -0.115     12.011   ;
    39     CG2R61      1    DTX    C28     39     -0.115     12.011   ;
    40     CG2R61      1    DTX    C29     40     -0.106     12.011   ;
    41      CG321      1    DTX    C30     41     -0.212     12.011   ;
    42      CG301      1    DTX    C31     42      0.186     12.011   ;
    43      OG311      1    DTX    O11     43     -0.460     15.999   ;
    44      CG311      1    DTX    C32     44      0.133     12.011   ;
    45      OG302      1    DTX    O12     45     -0.310     15.999   ;
    46      CG2O2      1    DTX    C33     46      0.459     12.011   ;
    47      OG2D1      1    DTX    O13     47     -0.496     15.999   ;
    48     CG2R61      1    DTX    C34     48      0.086     12.011   ;
    49     CG2R61      1    DTX    C35     49     -0.110     12.011   ;
    50     CG2R61      1    DTX    C36     50     -0.114     12.011   ;
    51     CG2R61      1    DTX    C37     51     -0.115     12.011   ;
    52     CG2R61      1    DTX    C38     52     -0.114     12.011   ;
    53     CG2R61      1    DTX    C39     53     -0.110     12.011   ;
    54      CG311      1    DTX    C40     54     -0.074     12.011   ;
    55      CG301      1    DTX    C41     55      0.016     12.011   ;
    56      CG331      1    DTX    C42     56     -0.269     12.011   ;
    57      CG331      1    DTX    C43     57     -0.269     12.011   ;
    58       HGA3      1    DTX     H1     58      0.090      1.008   ;
    59       HGA3      1    DTX     H2     59      0.090      1.008   ;
    60       HGA3      1    DTX     H3     60      0.090      1.008   ;
    61       HGA2      1    DTX     H4     61      0.090      1.008   ;
    62       HGA2      1    DTX     H5     62      0.090      1.008   ;
    63       HGA1      1    DTX     H6     63      0.090      1.008   ;
    64       HGA2      1    DTX     H7     64      0.090      1.008   ;
    65       HGA2      1    DTX     H8     65      0.090      1.008   ;
    66       HGA1      1    DTX     H9     66      0.090      1.008   ;
    67       HGP1      1    DTX    H10     67      0.400      1.008   ;
    68       HGA3      1    DTX    H11     68      0.090      1.008   ;
    69       HGA3      1    DTX    H12     69      0.090      1.008   ;
    70       HGA3      1    DTX    H13     70      0.090      1.008   ;
    71       HGA1      1    DTX    H14     71      0.090      1.008   ;
    72       HGP1      1    DTX    H15     72      0.364      1.008   ;
    73       HGA3      1    DTX    H16     73      0.090      1.008   ;
    74       HGA3      1    DTX    H17     74      0.090      1.008   ;
    75       HGA3      1    DTX    H18     75      0.090      1.008   ;
    76       HGA1      1    DTX    H19     76      0.090      1.008   ;
    77       HGA1      1    DTX    H20     77      0.090      1.008   ;
    78       HGP1      1    DTX    H21     78      0.421      1.008   ;
    79       HGA1      1    DTX    H22     79      0.090      1.008   ;
    80       HGP1      1    DTX    H23     80      0.284      1.008   ;
    81       HGA3      1    DTX    H24     81      0.090      1.008   ;
    82       HGA3      1    DTX    H25     82      0.090      1.008   ;
    83       HGA3      1    DTX    H26     83      0.090      1.008   ;
    84       HGA3      1    DTX    H27     84      0.090      1.008   ;
    85       HGA3      1    DTX    H28     85      0.090      1.008   ;
    86       HGA3      1    DTX    H29     86      0.090      1.008   ;
    87       HGA3      1    DTX    H30     87      0.090      1.008   ;
    88       HGA3      1    DTX    H31     88      0.090      1.008   ;
    89       HGA3      1    DTX    H32     89      0.090      1.008   ;
    90      HGR61      1    DTX    H33     90      0.115      1.008   ;
    91      HGR61      1    DTX    H34     91      0.115      1.008   ;
    92      HGR61      1    DTX    H35     92      0.115      1.008   ;
    93      HGR61      1    DTX    H36     93      0.115      1.008   ;
    94      HGR61      1    DTX    H37     94      0.115      1.008   ;
    95       HGA2      1    DTX    H38     95      0.090      1.008   ;
    96       HGA2      1    DTX    H39     96      0.090      1.008   ;
    97       HGP1      1    DTX    H40     97      0.292      1.008   ;
    98       HGA1      1    DTX    H41     98      0.090      1.008   ;
    99      HGR61      1    DTX    H42     99      0.115      1.008   ;
   100      HGR61      1    DTX    H43    100      0.115      1.008   ;
   101      HGR61      1    DTX    H44    101      0.115      1.008   ;
   102      HGR61      1    DTX    H45    102      0.115      1.008   ;
   103      HGR61      1    DTX    H46    103      0.115      1.008   ;
   104       HGA1      1    DTX    H47    104      0.090      1.008   ;
   105       HGA3      1    DTX    H48    105      0.090      1.008   ;
   106       HGA3      1    DTX    H49    106      0.090      1.008   ;
   107       HGA3      1    DTX    H50    107      0.090      1.008   ;
   108       HGA3      1    DTX    H51    108      0.090      1.008   ;
   109       HGA3      1    DTX    H52    109      0.090      1.008   ;
   110       HGA3      1    DTX    H53    110      0.090      1.008   ;

[ bonds ]
;	ai	  aj funct			  c0			c1			  c2			c3
    1     2	 1
    1    59	 1
    1    60	 1
    1    58	 1
    2     3	 1
    2     4	 1
    4     5	 1
    5    54	 1
    5     6	 1
    5     8	 1
    6    61	 1
    6    62	 1
    6     7	 1
    7     8	 1
    8     9	 1
    8    63	 1
    9    65	 1
    9    10	 1
    9    64	 1
   10    66	 1
   10    11	 1
   10    12	 1
   11    67	 1
   12    13	 1
   12    14	 1
   12    54	 1
   13    68	 1
   13    69	 1
   13    70	 1
   14    15	 1
   14    16	 1
   16    17	 1
   16    18	 1
   16    71	 1
   17    72	 1
   18    19	 1
   18    55	 1
   19    20	 1
   19    21	 1
   20    73	 1
   20    74	 1
   20    75	 1
   21    41	 1
   21    76	 1
   21    22	 1
   22    23	 1
   23    25	 1
   23    24	 1
   25    26	 1
   25    27	 1
   25    77	 1
   26    78	 1
   27    35	 1
   27    28	 1
   27    79	 1
   28    29	 1
   28    80	 1
   29    30	 1
   29    31	 1
   31    33	 1
   31    34	 1
   31    32	 1
   32    81	 1
   32    82	 1
   32    83	 1
   33    84	 1
   33    85	 1
   33    86	 1
   34    89	 1
   34    87	 1
   34    88	 1
   35    36	 1
   35    40	 1
   36    90	 1
   36    37	 1
   37    91	 1
   37    38	 1
   38    92	 1
   38    39	 1
   39    93	 1
   39    40	 1
   40    94	 1
   41    42	 1
   41    95	 1
   41    96	 1
   42    43	 1
   42    44	 1
   42    55	 1
   43    97	 1
   44    45	 1
   44    54	 1
   44    98	 1
   45    46	 1
   46    47	 1
   46    48	 1
   48    49	 1
   48    53	 1
   49    50	 1
   49    99	 1
   50    51	 1
   50   100	 1
   51    52	 1
   51   101	 1
   52    53	 1
   52   102	 1
   53   103	 1
   54   104	 1
   55    57	 1
   55    56	 1
   56   105	 1
   56   106	 1
   56   107	 1
   57   108	 1
   57   109	 1
   57   110	 1

[ pairs ]
;	ai	  aj funct			  c0			c1			  c2			c3
    1     5	 1
    2     8	 1
    2    54	 1
    2     6	 1
    3    58	 1
    3    59	 1
    3    60	 1
    3     5	 1
    4    44	 1
    4     7	 1
    4   104	 1
    4     9	 1
    4    12	 1
    4    58	 1
    4    59	 1
    4    60	 1
    4    61	 1
    4    62	 1
    4    63	 1
    5    65	 1
    5    98	 1
    5    10	 1
    5    13	 1
    5    14	 1
    5    45	 1
    5    42	 1
    5    64	 1
    6    44	 1
    6   104	 1
    6     9	 1
    6    12	 1
    6    63	 1
    7    65	 1
    7    10	 1
    7    54	 1
    7    64	 1
    8    44	 1
    8    66	 1
    8   104	 1
    8    11	 1
    8    12	 1
    8    61	 1
    8    62	 1
    9    67	 1
    9    13	 1
    9    14	 1
    9    54	 1
   10    68	 1
   10    69	 1
   10    70	 1
   10   104	 1
   10    44	 1
   10    15	 1
   10    16	 1
   10    63	 1
   11    65	 1
   11    13	 1
   11    14	 1
   11    54	 1
   11    64	 1
   12    65	 1
   12    98	 1
   12    67	 1
   12    71	 1
   12    42	 1
   12    45	 1
   12    17	 1
   12    18	 1
   12    64	 1
   13    66	 1
   13   104	 1
   13    44	 1
   13    15	 1
   13    16	 1
   14    66	 1
   14    68	 1
   14    69	 1
   14    70	 1
   14   104	 1
   14    44	 1
   14    19	 1
   14    55	 1
   14    72	 1
   15    71	 1
   15    17	 1
   15    18	 1
   15    54	 1
   16    42	 1
   16    20	 1
   16    21	 1
   16    54	 1
   16    56	 1
   16    57	 1
   17    19	 1
   17    55	 1
   18   107	 1
   18    76	 1
   18    72	 1
   18    73	 1
   18    74	 1
   18    75	 1
   18   109	 1
   18   110	 1
   18    41	 1
   18   108	 1
   18    22	 1
   18    44	 1
   18   106	 1
   18   105	 1
   18    43	 1
   19    71	 1
   19    42	 1
   19    23	 1
   19    56	 1
   19    57	 1
   19    95	 1
   19    96	 1
   20    41	 1
   20    76	 1
   20    22	 1
   20    55	 1
   21    73	 1
   21    74	 1
   21    75	 1
   21    44	 1
   21    55	 1
   21    24	 1
   21    25	 1
   21    43	 1
   22    42	 1
   22    77	 1
   22    26	 1
   22    27	 1
   22    95	 1
   22    96	 1
   23    35	 1
   23    41	 1
   23    76	 1
   23    78	 1
   23    79	 1
   23    28	 1
   24    77	 1
   24    26	 1
   24    27	 1
   25    29	 1
   25    80	 1
   25    36	 1
   25    40	 1
   26    35	 1
   26    28	 1
   26    79	 1
   27    37	 1
   27    39	 1
   27    78	 1
   27    94	 1
   27    90	 1
   27    30	 1
   27    31	 1
   28    33	 1
   28    34	 1
   28    36	 1
   28    40	 1
   28    77	 1
   28    32	 1
   29    35	 1
   29    82	 1
   29    79	 1
   29    81	 1
   29    89	 1
   29    83	 1
   29    84	 1
   29    85	 1
   29    86	 1
   29    87	 1
   29    88	 1
   30    33	 1
   30    34	 1
   30    32	 1
   30    80	 1
   31    80	 1
   32    84	 1
   32    85	 1
   32    86	 1
   32    87	 1
   32    88	 1
   32    89	 1
   33    81	 1
   33    82	 1
   33    83	 1
   33    87	 1
   33    88	 1
   33    89	 1
   34    81	 1
   34    82	 1
   34    83	 1
   34    84	 1
   34    85	 1
   34    86	 1
   35    38	 1
   35    93	 1
   35    77	 1
   35    80	 1
   35    91	 1
   36    39	 1
   36    79	 1
   36    92	 1
   36    94	 1
   37    93	 1
   37    40	 1
   38    90	 1
   38    94	 1
   39    91	 1
   40    79	 1
   40    90	 1
   40    92	 1
   41    97	 1
   41    98	 1
   41    45	 1
   41    54	 1
   41    56	 1
   41    57	 1
   42    76	 1
   42   104	 1
   42   105	 1
   42   106	 1
   42   107	 1
   42   109	 1
   42    46	 1
   42   108	 1
   42   110	 1
   43    98	 1
   43    45	 1
   43    54	 1
   43    56	 1
   43    57	 1
   43    95	 1
   43    96	 1
   44    97	 1
   44    47	 1
   44    48	 1
   44    56	 1
   44    57	 1
   44    95	 1
   44    96	 1
   45   104	 1
   45    49	 1
   45    53	 1
   45    55	 1
   46    98	 1
   46    99	 1
   46   103	 1
   46    50	 1
   46    52	 1
   46    54	 1
   47    49	 1
   47    53	 1
   48   100	 1
   48    51	 1
   48   102	 1
   49   101	 1
   49    52	 1
   49   103	 1
   50    53	 1
   50   102	 1
   51    99	 1
   51   103	 1
   52   100	 1
   53    99	 1
   53   101	 1
   54    68	 1
   54    69	 1
   54    70	 1
   54    66	 1
   54    55	 1
   54    61	 1
   54    62	 1
   54    63	 1
   55    97	 1
   55    98	 1
   55    71	 1
   55    95	 1
   55    96	 1
   56   108	 1
   56   109	 1
   56   110	 1
   57   106	 1
   57   105	 1
   57   107	 1
   63    65	 1
   63    64	 1
   64    66	 1
   65    66	 1
   66    67	 1
   71    72	 1
   76    95	 1
   76    96	 1
   77    78	 1
   77    79	 1
   79    80	 1
   90    91	 1
   91    92	 1
   92    93	 1
   93    94	 1
   98   104	 1
   99   100	 1
  100   101	 1
  101   102	 1
  102   103	 1

[ angles ]
;	ai	  aj	ak funct			c0			  c1			c2			  c3
    2     1    59	5
    2     1    60	5
    2     1    58	5
   59     1    60	5
   59     1    58	5
   60     1    58	5
    1     2     3	5
    1     2     4	5
    3     2     4	5
    2     4     5	5
   54     5     4	5
   54     5     6	5
   54     5     8	5
    4     5     6	5
    4     5     8	5
    6     5     8	5
   61     6     5	5
   61     6    62	5
   61     6     7	5
    5     6    62	5
    5     6     7	5
   62     6     7	5
    6     7     8	5
    9     8     5	5
    9     8    63	5
    9     8     7	5
    5     8    63	5
    5     8     7	5
   63     8     7	5
   65     9    10	5
   65     9    64	5
   65     9     8	5
   10     9    64	5
   10     9     8	5
   64     9     8	5
    9    10    66	5
    9    10    11	5
    9    10    12	5
   66    10    11	5
   66    10    12	5
   11    10    12	5
   10    11    67	5
   10    12    13	5
   10    12    14	5
   10    12    54	5
   13    12    14	5
   13    12    54	5
   14    12    54	5
   68    13    12	5
   68    13    69	5
   68    13    70	5
   12    13    69	5
   12    13    70	5
   69    13    70	5
   12    14    15	5
   12    14    16	5
   15    14    16	5
   17    16    18	5
   17    16    14	5
   17    16    71	5
   18    16    14	5
   18    16    71	5
   14    16    71	5
   72    17    16	5
   19    18    55	5
   19    18    16	5
   55    18    16	5
   18    19    20	5
   18    19    21	5
   20    19    21	5
   73    20    74	5
   73    20    19	5
   73    20    75	5
   74    20    19	5
   74    20    75	5
   19    20    75	5
   41    21    19	5
   41    21    76	5
   41    21    22	5
   19    21    76	5
   19    21    22	5
   76    21    22	5
   21    22    23	5
   25    23    22	5
   25    23    24	5
   22    23    24	5
   26    25    27	5
   26    25    77	5
   26    25    23	5
   27    25    77	5
   27    25    23	5
   77    25    23	5
   25    26    78	5
   25    27    35	5
   25    27    28	5
   25    27    79	5
   35    27    28	5
   35    27    79	5
   28    27    79	5
   27    28    29	5
   27    28    80	5
   29    28    80	5
   28    29    30	5
   28    29    31	5
   30    29    31	5
   33    31    34	5
   33    31    29	5
   33    31    32	5
   34    31    29	5
   34    31    32	5
   29    31    32	5
   81    32    82	5
   81    32    83	5
   81    32    31	5
   82    32    83	5
   82    32    31	5
   83    32    31	5
   84    33    85	5
   84    33    86	5
   84    33    31	5
   85    33    86	5
   85    33    31	5
   86    33    31	5
   89    34    87	5
   89    34    31	5
   89    34    88	5
   87    34    31	5
   87    34    88	5
   31    34    88	5
   27    35    36	5
   27    35    40	5
   36    35    40	5
   90    36    35	5
   90    36    37	5
   35    36    37	5
   91    37    36	5
   91    37    38	5
   36    37    38	5
   92    38    37	5
   92    38    39	5
   37    38    39	5
   93    39    38	5
   93    39    40	5
   38    39    40	5
   35    40    94	5
   35    40    39	5
   94    40    39	5
   42    41    21	5
   42    41    95	5
   42    41    96	5
   21    41    95	5
   21    41    96	5
   95    41    96	5
   41    42    43	5
   41    42    44	5
   41    42    55	5
   43    42    44	5
   43    42    55	5
   44    42    55	5
   97    43    42	5
   42    44    45	5
   42    44    54	5
   42    44    98	5
   45    44    54	5
   45    44    98	5
   54    44    98	5
   44    45    46	5
   45    46    47	5
   45    46    48	5
   47    46    48	5
   49    48    53	5
   49    48    46	5
   53    48    46	5
   50    49    99	5
   50    49    48	5
   99    49    48	5
   49    50    51	5
   49    50   100	5
   51    50   100	5
   50    51    52	5
   50    51   101	5
   52    51   101	5
   51    52    53	5
   51    52   102	5
   53    52   102	5
   52    53   103	5
   52    53    48	5
  103    53    48	5
   44    54    12	5
   44    54     5	5
   44    54   104	5
   12    54     5	5
   12    54   104	5
    5    54   104	5
   57    55    18	5
   57    55    56	5
   57    55    42	5
   18    55    56	5
   18    55    42	5
   56    55    42	5
  105    56   106	5
  105    56   107	5
  105    56    55	5
  106    56   107	5
  106    56    55	5
  107    56    55	5
  108    57   109	5
  108    57   110	5
  108    57    55	5
  109    57   110	5
  109    57    55	5
  110    57    55	5

[ dihedrals ]
;	ai	  aj	ak	  al funct			  c0			c1			  c2			c3			  c4			c5
   59     1     2     3	 9
   59     1     2     4	 9
   60     1     2     3	 9
   60     1     2     4	 9
   58     1     2     3	 9
   58     1     2     4	 9
    1     2     4     5	 9
    3     2     4     5	 9
    2     4     5    54	 9
    2     4     5     6	 9
    2     4     5     8	 9
    4     5    54    44	 9
    4     5    54    12	 9
    4     5    54   104	 9
    6     5    54    44	 9
    6     5    54    12	 9
    6     5    54   104	 9
    8     5    54    44	 9
    8     5    54    12	 9
    8     5    54   104	 9
   54     5     6    61	 9
   54     5     6    62	 9
   54     5     6     7	 9
    4     5     6    61	 9
    4     5     6    62	 9
    4     5     6     7	 9
    8     5     6    61	 9
    8     5     6    62	 9
    8     5     6     7	 9
   54     5     8     9	 9
   54     5     8    63	 9
   54     5     8     7	 9
    4     5     8     9	 9
    4     5     8    63	 9
    4     5     8     7	 9
    6     5     8     9	 9
    6     5     8    63	 9
    6     5     8     7	 9
   61     6     7     8	 9
    5     6     7     8	 9
   62     6     7     8	 9
    6     7     8     9	 9
    6     7     8     5	 9
    6     7     8    63	 9
    5     8     9    65	 9
    5     8     9    10	 9
    5     8     9    64	 9
   63     8     9    65	 9
   63     8     9    10	 9
   63     8     9    64	 9
    7     8     9    65	 9
    7     8     9    10	 9
    7     8     9    64	 9
   65     9    10    66	 9
   65     9    10    11	 9
   65     9    10    12	 9
   64     9    10    66	 9
   64     9    10    11	 9
   64     9    10    12	 9
    8     9    10    66	 9
    8     9    10    11	 9
    8     9    10    12	 9
    9    10    11    67	 9
   66    10    11    67	 9
   12    10    11    67	 9
    9    10    12    13	 9
    9    10    12    14	 9
    9    10    12    54	 9
   66    10    12    13	 9
   66    10    12    14	 9
   66    10    12    54	 9
   11    10    12    13	 9
   11    10    12    14	 9
   11    10    12    54	 9
   10    12    13    68	 9
   10    12    13    69	 9
   10    12    13    70	 9
   14    12    13    68	 9
   14    12    13    69	 9
   14    12    13    70	 9
   54    12    13    68	 9
   54    12    13    69	 9
   54    12    13    70	 9
   10    12    14    15	 9
   10    12    14    16	 9
   13    12    14    15	 9
   13    12    14    16	 9
   54    12    14    15	 9
   54    12    14    16	 9
   10    12    54    44	 9
   10    12    54     5	 9
   10    12    54   104	 9
   13    12    54    44	 9
   13    12    54     5	 9
   13    12    54   104	 9
   14    12    54    44	 9
   14    12    54     5	 9
   14    12    54   104	 9
   12    14    16    17	 9
   12    14    16    18	 9
   12    14    16    71	 9
   15    14    16    17	 9
   15    14    16    18	 9
   15    14    16    71	 9
   18    16    17    72	 9
   14    16    17    72	 9
   71    16    17    72	 9
   17    16    18    19	 9
   17    16    18    55	 9
   14    16    18    19	 9
   14    16    18    55	 9
   71    16    18    19	 9
   71    16    18    55	 9
   55    18    19    20	 9
   55    18    19    21	 9
   16    18    19    20	 9
   16    18    19    21	 9
   19    18    55    57	 9
   19    18    55    56	 9
   19    18    55    42	 9
   16    18    55    57	 9
   16    18    55    56	 9
   16    18    55    42	 9
   18    19    20    73	 9
   18    19    20    74	 9
   18    19    20    75	 9
   21    19    20    73	 9
   21    19    20    74	 9
   21    19    20    75	 9
   18    19    21    41	 9
   18    19    21    76	 9
   18    19    21    22	 9
   20    19    21    41	 9
   20    19    21    76	 9
   20    19    21    22	 9
   19    21    41    42	 9
   19    21    41    95	 9
   19    21    41    96	 9
   76    21    41    42	 9
   76    21    41    95	 9
   76    21    41    96	 9
   22    21    41    42	 9
   22    21    41    95	 9
   22    21    41    96	 9
   41    21    22    23	 9
   19    21    22    23	 9
   76    21    22    23	 9
   21    22    23    25	 9
   21    22    23    24	 9
   22    23    25    26	 9
   22    23    25    27	 9
   22    23    25    77	 9
   24    23    25    26	 9
   24    23    25    27	 9
   24    23    25    77	 9
   27    25    26    78	 9
   77    25    26    78	 9
   23    25    26    78	 9
   26    25    27    35	 9
   26    25    27    28	 9
   26    25    27    79	 9
   77    25    27    35	 9
   77    25    27    28	 9
   77    25    27    79	 9
   23    25    27    35	 9
   23    25    27    28	 9
   23    25    27    79	 9
   25    27    35    36	 9
   25    27    35    40	 9
   28    27    35    36	 9
   28    27    35    40	 9
   79    27    35    36	 9
   79    27    35    40	 9
   25    27    28    29	 9
   25    27    28    80	 9
   35    27    28    29	 9
   35    27    28    80	 9
   79    27    28    29	 9
   79    27    28    80	 9
   27    28    29    30	 9
   27    28    29    31	 9
   80    28    29    30	 9
   80    28    29    31	 9
   28    29    31    33	 9
   28    29    31    34	 9
   28    29    31    32	 9
   30    29    31    33	 9
   30    29    31    34	 9
   30    29    31    32	 9
   34    31    33    84	 9
   34    31    33    85	 9
   34    31    33    86	 9
   29    31    33    84	 9
   29    31    33    85	 9
   29    31    33    86	 9
   32    31    33    84	 9
   32    31    33    85	 9
   32    31    33    86	 9
   33    31    34    89	 9
   33    31    34    87	 9
   33    31    34    88	 9
   29    31    34    89	 9
   29    31    34    87	 9
   29    31    34    88	 9
   32    31    34    89	 9
   32    31    34    87	 9
   32    31    34    88	 9
   33    31    32    81	 9
   33    31    32    82	 9
   33    31    32    83	 9
   34    31    32    81	 9
   34    31    32    82	 9
   34    31    32    83	 9
   29    31    32    81	 9
   29    31    32    82	 9
   29    31    32    83	 9
   27    35    36    90	 9
   27    35    36    37	 9
   40    35    36    90	 9
   40    35    36    37	 9
   27    35    40    94	 9
   27    35    40    39	 9
   36    35    40    94	 9
   36    35    40    39	 9
   90    36    37    91	 9
   90    36    37    38	 9
   35    36    37    91	 9
   35    36    37    38	 9
   91    37    38    92	 9
   91    37    38    39	 9
   36    37    38    92	 9
   36    37    38    39	 9
   92    38    39    93	 9
   92    38    39    40	 9
   37    38    39    93	 9
   37    38    39    40	 9
   93    39    40    35	 9
   93    39    40    94	 9
   38    39    40    35	 9
   38    39    40    94	 9
   21    41    42    43	 9
   21    41    42    44	 9
   21    41    42    55	 9
   95    41    42    43	 9
   95    41    42    44	 9
   95    41    42    55	 9
   96    41    42    43	 9
   96    41    42    44	 9
   96    41    42    55	 9
   41    42    43    97	 9
   44    42    43    97	 9
   55    42    43    97	 9
   41    42    44    45	 9
   41    42    44    54	 9
   41    42    44    98	 9
   43    42    44    45	 9
   43    42    44    54	 9
   43    42    44    98	 9
   55    42    44    45	 9
   55    42    44    54	 9
   55    42    44    98	 9
   41    42    55    57	 9
   41    42    55    18	 9
   41    42    55    56	 9
   43    42    55    57	 9
   43    42    55    18	 9
   43    42    55    56	 9
   44    42    55    57	 9
   44    42    55    18	 9
   44    42    55    56	 9
   42    44    45    46	 9
   54    44    45    46	 9
   98    44    45    46	 9
   42    44    54    12	 9
   42    44    54     5	 9
   42    44    54   104	 9
   45    44    54    12	 9
   45    44    54     5	 9
   45    44    54   104	 9
   98    44    54    12	 9
   98    44    54     5	 9
   98    44    54   104	 9
   44    45    46    47	 9
   44    45    46    48	 9
   45    46    48    49	 9
   45    46    48    53	 9
   47    46    48    49	 9
   47    46    48    53	 9
   53    48    49    50	 9
   53    48    49    99	 9
   46    48    49    50	 9
   46    48    49    99	 9
   49    48    53    52	 9
   49    48    53   103	 9
   46    48    53    52	 9
   46    48    53   103	 9
   99    49    50    51	 9
   99    49    50   100	 9
   48    49    50    51	 9
   48    49    50   100	 9
   49    50    51    52	 9
   49    50    51   101	 9
  100    50    51    52	 9
  100    50    51   101	 9
   50    51    52    53	 9
   50    51    52   102	 9
  101    51    52    53	 9
  101    51    52   102	 9
   51    52    53   103	 9
   51    52    53    48	 9
  102    52    53   103	 9
  102    52    53    48	 9
   18    55    57   108	 9
   18    55    57   109	 9
   18    55    57   110	 9
   56    55    57   108	 9
   56    55    57   109	 9
   56    55    57   110	 9
   42    55    57   108	 9
   42    55    57   109	 9
   42    55    57   110	 9
   57    55    56   105	 9
   57    55    56   106	 9
   57    55    56   107	 9
   18    55    56   105	 9
   18    55    56   106	 9
   18    55    56   107	 9
   42    55    56   105	 9
   42    55    56   106	 9
   42    55    56   107	 9

[ dihedrals ]
;	ai	  aj	ak	  al funct			  c0			c1			  c2			c3
    2     1     3     4	 2
   14    12    16    15	 2
   23    25    24    22	 2
   29    31    28    30	 2
   46    48    47    45	 2

