; Created by cgenff_charmm2gmx.py

[ moleculetype ]
; Name			   nrexcl
LST				 3

[ atoms ]
;	 nr		  type	resnr residue  atom   cgnr	   charge		mass  typeB    chargeB		massB
; residue	 1 LST rtp LST q	qsum
     1      CG301      1    LSL     C1      1      0.381     12.011   ;
     2      CG331      1    LSL     C2      2     -0.269     12.011   ;
     3      CG331      1    LSL     C3      3     -0.269     12.011   ;
     4      CG321      1    LSL     C4      4      0.036     12.011   ;
     5      CG321      1    LSL     C5      5     -0.180     12.011   ;
     6      CG321      1    LSL     C6      6     -0.180     12.011   ;
     7      CG321      1    LSL     C7      7     -0.180     12.011   ;
     8      CG321      1    LSL     C8      8     -0.180     12.011   ;
     9      CG321      1    LSL     C9      9     -0.180     12.011   ;
    10      CG321      1    LSL    C10     10     -0.180     12.011   ;
    11      CG321      1    LSL    C11     11     -0.180     12.011   ;
    12      CG321      1    LSL    C12     12     -0.180     12.011   ;
    13      CG321      1    LSL    C13     13     -0.180     12.011   ;
    14      CG321      1    LSL    C14     14     -0.180     12.011   ;
    15      CG321      1    LSL    C15     15     -0.180     12.011   ;
    16      CG321      1    LSL    C16     16     -0.180     12.011   ;
    17      CG321      1    LSL    C17     17     -0.180     12.011   ;
    18      CG321      1    LSL    C18     18     -0.179     12.011   ;
    19      CG321      1    LSL    C19     19     -0.181     12.011   ;
    20      CG321      1    LSL    C20     20     -0.177     12.011   ;
    21      CG331      1    LSL    C21     21     -0.273     12.011   ;
    22      OG301      1    LSL     O1     22     -0.402     15.999   ;
    23       HGA3      1    LSL     H1     23      0.090      1.008   ;
    24       HGA3      1    LSL     H2     24      0.090      1.008   ;
    25       HGA3      1    LSL     H3     25      0.090      1.008   ;
    26       HGA3      1    LSL     H4     26      0.090      1.008   ;
    27       HGA3      1    LSL     H5     27      0.090      1.008   ;
    28       HGA3      1    LSL     H6     28      0.090      1.008   ;
    29       HGA2      1    LSL     H7     29      0.090      1.008   ;
    30       HGA2      1    LSL     H8     30      0.090      1.008   ;
    31       HGA2      1    LSL     H9     31      0.090      1.008   ;
    32       HGA2      1    LSL    H10     32      0.090      1.008   ;
    33       HGA2      1    LSL    H11     33      0.090      1.008   ;
    34       HGA2      1    LSL    H12     34      0.090      1.008   ;
    35       HGA2      1    LSL    H13     35      0.090      1.008   ;
    36       HGA2      1    LSL    H14     36      0.090      1.008   ;
    37       HGA2      1    LSL    H15     37      0.090      1.008   ;
    38       HGA2      1    LSL    H16     38      0.090      1.008   ;
    39       HGA2      1    LSL    H17     39      0.090      1.008   ;
    40       HGA2      1    LSL    H18     40      0.090      1.008   ;
    41       HGA2      1    LSL    H19     41      0.090      1.008   ;
    42       HGA2      1    LSL    H20     42      0.090      1.008   ;
    43       HGA2      1    LSL    H21     43      0.090      1.008   ;
    44       HGA2      1    LSL    H22     44      0.090      1.008   ;
    45       HGA2      1    LSL    H23     45      0.090      1.008   ;
    46       HGA2      1    LSL    H24     46      0.090      1.008   ;
    47       HGA2      1    LSL    H25     47      0.090      1.008   ;
    48       HGA2      1    LSL    H26     48      0.090      1.008   ;
    49       HGA2      1    LSL    H27     49      0.090      1.008   ;
    50       HGA2      1    LSL    H28     50      0.090      1.008   ;
    51       HGA2      1    LSL    H29     51      0.090      1.008   ;
    52       HGA2      1    LSL    H30     52      0.090      1.008   ;
    53       HGA2      1    LSL    H31     53      0.090      1.008   ;
    54       HGA2      1    LSL    H32     54      0.090      1.008   ;
    55       HGA2      1    LSL    H33     55      0.090      1.008   ;
    56       HGA2      1    LSL    H34     56      0.090      1.008   ;
    57       HGA2      1    LSL    H35     57      0.090      1.008   ;
    58       HGA2      1    LSL    H36     58      0.090      1.008   ;
    59       HGA2      1    LSL    H37     59      0.090      1.008   ;
    60       HGA2      1    LSL    H38     60      0.090      1.008   ;
    61       HGA2      1    LSL    H39     61      0.090      1.008   ;
    62       HGA2      1    LSL    H40     62      0.090      1.008   ;
    63       HGA3      1    LSL    H41     63      0.090      1.008   ;
    64       HGA3      1    LSL    H42     64      0.090      1.008   ;
    65       HGA3      1    LSL    H43     65      0.090      1.008   ;
    66     NG2R50      1    LST     N1     66     -0.851     14.007   ;
    67     NG2R51      1    LST     N2     67     -0.103     14.007   ;
    68     NG2R50      1    LST     N3     68     -0.664     14.007   ;
    69     NG2R51      1    LST     N4     69      0.469     14.007   ;
    70     NG2R50      1    LST     N5     70     -0.294     14.007   ;
    71     NG2R50      1    LST     N6     71     -0.520     14.007   ;
    72     CG2R53      1    LST    C22     72      0.411     12.011   ;
    73     CG2R51      1    LST    C23     73      0.387     12.011   ;
    74     CG2R51      1    LST    C24     74     -0.292     12.011   ;
    75      CG321      1    LST    C25     75      0.235     12.011   ;
    76      CG321      1    LST    C26     76      0.105     12.011   ;
    77     CG2R67      1    LST    C27     77     -0.000     12.011   ;
    78     CG2R61      1    LST    C28     78     -0.107     12.011   ;
    79     CG2R61      1    LST    C29     79     -0.117     12.011   ;
    80     CG2R61      1    LST    C30     80     -0.004     12.011   ;
    81     CG2R61      1    LST    C31     81     -0.117     12.011   ;
    82     CG2R61      1    LST    C32     82     -0.107     12.011   ;
    83     CG2R67      1    LST    C33     83      0.005     12.011   ;
    84     CG2R61      1    LST    C34     84      0.065     12.011   ;
    85     CG2R61      1    LST    C35     85     -0.119     12.011   ;
    86     CG2R61      1    LST    C36     86     -0.117     12.011   ;
    87     CG2R61      1    LST    C37     87     -0.115     12.011   ;
    88     CG2R61      1    LST    C38     88     -0.122     12.011   ;
    89     CG2R53      1    LST    C39     89      0.657     12.011   ;
    90      CG321      1    LST    C40     90     -0.105     12.011   ;
    91      CG321      1    LST    C41     91     -0.184     12.011   ;
    92      CG321      1    LST    C42     92     -0.173     12.011   ;
    93      CG331      1    LST    C43     93     -0.273     12.011   ;
    94      OG301      1    LST     O2     94     -0.424     15.999   ;
    95      CLGR1      1    LST     Cl     95     -0.158     35.453   ;
    96       HGA2      1    LST    H44     96      0.090      1.008   ;
    97       HGA2      1    LST    H45     97      0.090      1.008   ;
    98       HGA2      1    LST    H46     98      0.090      1.008   ;
    99       HGA2      1    LST    H47     99      0.090      1.008   ;
   100      HGR61      1    LST    H48    100      0.115      1.008   ;
   101      HGR61      1    LST    H49    101      0.115      1.008   ;
   102      HGR61      1    LST    H50    102      0.115      1.008   ;
   103      HGR61      1    LST    H51    103      0.115      1.008   ;
   104      HGR61      1    LST    H52    104      0.115      1.008   ;
   105      HGR61      1    LST    H53    105      0.115      1.008   ;
   106      HGR61      1    LST    H54    106      0.115      1.008   ;
   107      HGR61      1    LST    H55    107      0.115      1.008   ;
   108       HGP1      1    LST    H56    108      0.295      1.008   ;
   109       HGA2      1    LST    H57    109      0.090      1.008   ;
   110       HGA2      1    LST    H58    110      0.090      1.008   ;
   111       HGA2      1    LST    H59    111      0.090      1.008   ;
   112       HGA2      1    LST    H60    112      0.090      1.008   ;
   113       HGA2      1    LST    H61    113      0.090      1.008   ;
   114       HGA2      1    LST    H62    114      0.090      1.008   ;
   115       HGA3      1    LST    H63    115      0.090      1.008   ;
   116       HGA3      1    LST    H64    116      0.090      1.008   ;
   117       HGA3      1    LST    H65    117      0.090      1.008   ;
; ;  118        LPH      1    LST    LP1  ;  118      0.050      0.000   ;

[ bonds ]
;	ai	  aj funct			  c0			c1			  c2			c3
    1     2	 1 ;       CG301      CG331
    1     3	 1 ;       CG301      CG331
    1    22	 1 ;       CG301      OG301
    1    94	 1 ;       CG301      OG301
    2    23	 1 ;       CG331       HGA3
    2    24	 1 ;       CG331       HGA3
    2    25	 1 ;       CG331       HGA3
    3    26	 1 ;       CG331       HGA3
    3    27	 1 ;       CG331       HGA3
    3    28	 1 ;       CG331       HGA3
    4     5	 1 ;       CG321      CG321
    4    29	 1 ;       CG321       HGA2
    4    30	 1 ;       CG321       HGA2
    4    22	 1 ;       CG321      OG301
    5     6	 1 ;       CG321      CG321
    5    31	 1 ;       CG321       HGA2
    5    32	 1 ;       CG321       HGA2
    6     7	 1 ;       CG321      CG321
    6    33	 1 ;       CG321       HGA2
    6    34	 1 ;       CG321       HGA2
    7     8	 1 ;       CG321      CG321
    7    35	 1 ;       CG321       HGA2
    7    36	 1 ;       CG321       HGA2
    8     9	 1 ;       CG321      CG321
    8    37	 1 ;       CG321       HGA2
    8    38	 1 ;       CG321       HGA2
    9    10	 1 ;       CG321      CG321
    9    39	 1 ;       CG321       HGA2
    9    40	 1 ;       CG321       HGA2
   10    11	 1 ;       CG321      CG321
   10    41	 1 ;       CG321       HGA2
   10    42	 1 ;       CG321       HGA2
   11    12	 1 ;       CG321      CG321
   11    43	 1 ;       CG321       HGA2
   11    44	 1 ;       CG321       HGA2
   12    13	 1 ;       CG321      CG321
   12    45	 1 ;       CG321       HGA2
   12    46	 1 ;       CG321       HGA2
   13    14	 1 ;       CG321      CG321
   13    47	 1 ;       CG321       HGA2
   13    48	 1 ;       CG321       HGA2
   14    15	 1 ;       CG321      CG321
   14    49	 1 ;       CG321       HGA2
   14    50	 1 ;       CG321       HGA2
   15    16	 1 ;       CG321      CG321
   15    51	 1 ;       CG321       HGA2
   15    52	 1 ;       CG321       HGA2
   16    17	 1 ;       CG321      CG321
   16    53	 1 ;       CG321       HGA2
   16    54	 1 ;       CG321       HGA2
   17    18	 1 ;       CG321      CG321
   17    55	 1 ;       CG321       HGA2
   17    56	 1 ;       CG321       HGA2
   18    19	 1 ;       CG321      CG321
   18    57	 1 ;       CG321       HGA2
   18    58	 1 ;       CG321       HGA2
   19    20	 1 ;       CG321      CG321
   19    59	 1 ;       CG321       HGA2
   19    60	 1 ;       CG321       HGA2
   20    21	 1 ;       CG321      CG331
   20    61	 1 ;       CG321       HGA2
   20    62	 1 ;       CG321       HGA2
   21    63	 1 ;       CG331       HGA3
   21    64	 1 ;       CG331       HGA3
   21    65	 1 ;       CG331       HGA3
   66    73	 1 ;      NG2R50     CG2R51
   66    72	 1 ;      NG2R50     CG2R53
   67    76	 1 ;      NG2R51      CG321
   67    72	 1 ;      NG2R51     CG2R53
   67    74	 1 ;      NG2R51     CG2R51
   68    69	 1 ;      NG2R50     NG2R51
   68    89	 1 ;      NG2R50     CG2R53
   69    70	 1 ;      NG2R51     NG2R50
   69   108	 1 ;      NG2R51       HGP1
   70    71	 1 ;      NG2R50     NG2R50
   71    89	 1 ;      NG2R50     CG2R53
   72    90	 1 ;      CG2R53      CG321
   73    74	 1 ;      CG2R51     CG2R51
   73    95	 1 ;      CG2R51      CLGR1
   74    75	 1 ;      CG2R51      CG321
   75    94	 1 ;       CG321      OG301
   75    96	 1 ;       CG321       HGA2
   75    97	 1 ;       CG321       HGA2
   76    80	 1 ;       CG321     CG2R61
   76    98	 1 ;       CG321       HGA2
   76    99	 1 ;       CG321       HGA2
   77    78	 1 ;      CG2R67     CG2R61
   77    82	 1 ;      CG2R67     CG2R61
   77    83	 1 ;      CG2R67     CG2R67
   78    79	 1 ;      CG2R61     CG2R61
   78   100	 1 ;      CG2R61      HGR61
   79    80	 1 ;      CG2R61     CG2R61
   79   101	 1 ;      CG2R61      HGR61
   80    81	 1 ;      CG2R61     CG2R61
   81    82	 1 ;      CG2R61     CG2R61
   81   102	 1 ;      CG2R61      HGR61
   82   103	 1 ;      CG2R61      HGR61
   83    84	 1 ;      CG2R67     CG2R61
   83    88	 1 ;      CG2R67     CG2R61
   84    85	 1 ;      CG2R61     CG2R61
   84    89	 1 ;      CG2R61     CG2R53
   85    86	 1 ;      CG2R61     CG2R61
   85   104	 1 ;      CG2R61      HGR61
   86    87	 1 ;      CG2R61     CG2R61
   86   105	 1 ;      CG2R61      HGR61
   87    88	 1 ;      CG2R61     CG2R61
   87   106	 1 ;      CG2R61      HGR61
   88   107	 1 ;      CG2R61      HGR61
   90    91	 1 ;       CG321      CG321
   90   109	 1 ;       CG321       HGA2
   90   110	 1 ;       CG321       HGA2
   91    92	 1 ;       CG321      CG321
   91   111	 1 ;       CG321       HGA2
   91   112	 1 ;       CG321       HGA2
   92    93	 1 ;       CG321      CG331
   92   113	 1 ;       CG321       HGA2
   92   114	 1 ;       CG321       HGA2
   93   115	 1 ;       CG331       HGA3
   93   116	 1 ;       CG331       HGA3
   93   117	 1 ;       CG331       HGA3

[ pairs ]
;	ai	  aj funct			  c0			c1			  c2			c3
    1     5	 1
    1    29	 1
    1    30	 1
    1    74	 1
    1    96	 1
    1    97	 1
    2    26	 1
    2    27	 1
    2    28	 1
    2     4	 1
    2    75	 1
    3    23	 1
    3    24	 1
    3    25	 1
    3     4	 1
    3    75	 1
    4    94	 1
    4     7	 1
    4    33	 1
    4    34	 1
    5     8	 1
    5    35	 1
    5    36	 1
    6    29	 1
    6    30	 1
    6    22	 1
    6     9	 1
    6    37	 1
    6    38	 1
    7    31	 1
    7    32	 1
    7    10	 1
    7    39	 1
    7    40	 1
    8    33	 1
    8    34	 1
    8    11	 1
    8    41	 1
    8    42	 1
    9    35	 1
    9    36	 1
    9    12	 1
    9    43	 1
    9    44	 1
   10    37	 1
   10    38	 1
   10    13	 1
   10    45	 1
   10    46	 1
   11    39	 1
   11    40	 1
   11    14	 1
   11    47	 1
   11    48	 1
   12    41	 1
   12    42	 1
   12    15	 1
   12    49	 1
   12    50	 1
   13    43	 1
   13    44	 1
   13    16	 1
   13    51	 1
   13    52	 1
   14    45	 1
   14    46	 1
   14    17	 1
   14    53	 1
   14    54	 1
   15    47	 1
   15    48	 1
   15    18	 1
   15    55	 1
   15    56	 1
   16    49	 1
   16    50	 1
   16    19	 1
   16    57	 1
   16    58	 1
   17    51	 1
   17    52	 1
   17    20	 1
   17    59	 1
   17    60	 1
   18    53	 1
   18    54	 1
   18    21	 1
   18    61	 1
   18    62	 1
   19    55	 1
   19    56	 1
   19    63	 1
   19    64	 1
   19    65	 1
   20    57	 1
   20    58	 1
   21    59	 1
   21    60	 1
   22    23	 1
   22    24	 1
   22    25	 1
   22    26	 1
   22    27	 1
   22    28	 1
   22    75	 1
   22    31	 1
   22    32	 1
   23    94	 1
   24    94	 1
   25    94	 1
   26    94	 1
   27    94	 1
   28    94	 1
   29    31	 1
   29    32	 1
   30    31	 1
   30    32	 1
   31    33	 1
   31    34	 1
   32    33	 1
   32    34	 1
   33    35	 1
   33    36	 1
   34    35	 1
   34    36	 1
   35    37	 1
   35    38	 1
   36    37	 1
   36    38	 1
   37    39	 1
   37    40	 1
   38    39	 1
   38    40	 1
   39    41	 1
   39    42	 1
   40    41	 1
   40    42	 1
   41    43	 1
   41    44	 1
   42    43	 1
   42    44	 1
   43    45	 1
   43    46	 1
   44    45	 1
   44    46	 1
   45    47	 1
   45    48	 1
   46    47	 1
   46    48	 1
   47    49	 1
   47    50	 1
   48    49	 1
   48    50	 1
   49    51	 1
   49    52	 1
   50    51	 1
   50    52	 1
   51    53	 1
   51    54	 1
   52    53	 1
   52    54	 1
   53    55	 1
   53    56	 1
   54    55	 1
   54    56	 1
   55    57	 1
   55    58	 1
   56    57	 1
   56    58	 1
   57    59	 1
   57    60	 1
   58    59	 1
   58    60	 1
   59    61	 1
   59    62	 1
   60    61	 1
   60    62	 1
   61    63	 1
   61    64	 1
   61    65	 1
   62    63	 1
   62    64	 1
   62    65	 1
   66    76	 1
   66    91	 1
   66   109	 1
   66   110	 1
   66    75	 1
   67    91	 1
   67   109	 1
   67   110	 1
   67    95	 1
;  118    67	 1
   67    94	 1
   67    96	 1
   67    97	 1
   67    79	 1
   67    81	 1
   68    83	 1
   68    85	 1
   69    84	 1
   70    84	 1
   71   108	 1
   71    83	 1
   71    85	 1
   72    95	 1
;  118    72	 1
   72    80	 1
   72    98	 1
   72    99	 1
   72    75	 1
   72    92	 1
   72   111	 1
   72   112	 1
   73    90	 1
   73    76	 1
   73    94	 1
   73    96	 1
   73    97	 1
   74    80	 1
   74    98	 1
   74    99	 1
   74    90	 1
   75    76	 1
   75    95	 1
;  118    75	 1
   76    90	 1
   76    78	 1
   76   101	 1
   76    82	 1
   76   102	 1
   77    80	 1
   77   101	 1
   77   102	 1
   77    85	 1
   77    89	 1
   77    87	 1
   77   107	 1
   78    81	 1
   78   103	 1
   78    84	 1
   78    88	 1
   79    98	 1
   79    99	 1
   79    82	 1
   79    83	 1
   79   102	 1
   80   100	 1
   80   103	 1
   81    98	 1
   81    99	 1
   81    83	 1
   81   101	 1
   82   100	 1
   82    84	 1
   82    88	 1
   83   100	 1
   83   103	 1
   83    86	 1
   83   104	 1
   83   106	 1
   84    87	 1
   84   107	 1
   84   105	 1
   85    88	 1
   85   106	 1
   86    89	 1
   86   107	 1
   87   104	 1
   88    89	 1
   88   105	 1
   89   108	 1
   89   104	 1
   90    93	 1
   90   113	 1
   90   114	 1
   91   115	 1
   91   116	 1
   91   117	 1
   92   109	 1
   92   110	 1
   93   111	 1
   93   112	 1
  100   101	 1
  102   103	 1
  104   105	 1
  105   106	 1
  106   107	 1
  109   111	 1
  109   112	 1
  110   111	 1
  110   112	 1
  111   113	 1
  111   114	 1
  112   113	 1
  112   114	 1
  113   115	 1
  113   116	 1
  113   117	 1
  114   115	 1
  114   116	 1
  114   117	 1

[ angles ]
;	ai	  aj	ak funct			c0			  c1			c2			  c3
    2     1     3	5 ;      CG331      CG301      CG331
    2     1    22	5 ;      CG331      CG301      OG301
    2     1    94	5 ;      CG331      CG301      OG301
    3     1    22	5 ;      CG331      CG301      OG301
    3     1    94	5 ;      CG331      CG301      OG301
   22     1    94	5 ;      OG301      CG301      OG301
    1     2    23	5 ;      CG301      CG331       HGA3
    1     2    24	5 ;      CG301      CG331       HGA3
    1     2    25	5 ;      CG301      CG331       HGA3
   23     2    24	5 ;       HGA3      CG331       HGA3
   23     2    25	5 ;       HGA3      CG331       HGA3
   24     2    25	5 ;       HGA3      CG331       HGA3
    1     3    26	5 ;      CG301      CG331       HGA3
    1     3    27	5 ;      CG301      CG331       HGA3
    1     3    28	5 ;      CG301      CG331       HGA3
   26     3    27	5 ;       HGA3      CG331       HGA3
   26     3    28	5 ;       HGA3      CG331       HGA3
   27     3    28	5 ;       HGA3      CG331       HGA3
    5     4    29	5 ;      CG321      CG321       HGA2
    5     4    30	5 ;      CG321      CG321       HGA2
    5     4    22	5 ;      CG321      CG321      OG301
   29     4    30	5 ;       HGA2      CG321       HGA2
   29     4    22	5 ;       HGA2      CG321      OG301
   30     4    22	5 ;       HGA2      CG321      OG301
    4     5     6	5 ;      CG321      CG321      CG321
    4     5    31	5 ;      CG321      CG321       HGA2
    4     5    32	5 ;      CG321      CG321       HGA2
    6     5    31	5 ;      CG321      CG321       HGA2
    6     5    32	5 ;      CG321      CG321       HGA2
   31     5    32	5 ;       HGA2      CG321       HGA2
    5     6     7	5 ;      CG321      CG321      CG321
    5     6    33	5 ;      CG321      CG321       HGA2
    5     6    34	5 ;      CG321      CG321       HGA2
    7     6    33	5 ;      CG321      CG321       HGA2
    7     6    34	5 ;      CG321      CG321       HGA2
   33     6    34	5 ;       HGA2      CG321       HGA2
    6     7     8	5 ;      CG321      CG321      CG321
    6     7    35	5 ;      CG321      CG321       HGA2
    6     7    36	5 ;      CG321      CG321       HGA2
    8     7    35	5 ;      CG321      CG321       HGA2
    8     7    36	5 ;      CG321      CG321       HGA2
   35     7    36	5 ;       HGA2      CG321       HGA2
    7     8     9	5 ;      CG321      CG321      CG321
    7     8    37	5 ;      CG321      CG321       HGA2
    7     8    38	5 ;      CG321      CG321       HGA2
    9     8    37	5 ;      CG321      CG321       HGA2
    9     8    38	5 ;      CG321      CG321       HGA2
   37     8    38	5 ;       HGA2      CG321       HGA2
    8     9    10	5 ;      CG321      CG321      CG321
    8     9    39	5 ;      CG321      CG321       HGA2
    8     9    40	5 ;      CG321      CG321       HGA2
   10     9    39	5 ;      CG321      CG321       HGA2
   10     9    40	5 ;      CG321      CG321       HGA2
   39     9    40	5 ;       HGA2      CG321       HGA2
    9    10    11	5 ;      CG321      CG321      CG321
    9    10    41	5 ;      CG321      CG321       HGA2
    9    10    42	5 ;      CG321      CG321       HGA2
   11    10    41	5 ;      CG321      CG321       HGA2
   11    10    42	5 ;      CG321      CG321       HGA2
   41    10    42	5 ;       HGA2      CG321       HGA2
   10    11    12	5 ;      CG321      CG321      CG321
   10    11    43	5 ;      CG321      CG321       HGA2
   10    11    44	5 ;      CG321      CG321       HGA2
   12    11    43	5 ;      CG321      CG321       HGA2
   12    11    44	5 ;      CG321      CG321       HGA2
   43    11    44	5 ;       HGA2      CG321       HGA2
   11    12    13	5 ;      CG321      CG321      CG321
   11    12    45	5 ;      CG321      CG321       HGA2
   11    12    46	5 ;      CG321      CG321       HGA2
   13    12    45	5 ;      CG321      CG321       HGA2
   13    12    46	5 ;      CG321      CG321       HGA2
   45    12    46	5 ;       HGA2      CG321       HGA2
   12    13    14	5 ;      CG321      CG321      CG321
   12    13    47	5 ;      CG321      CG321       HGA2
   12    13    48	5 ;      CG321      CG321       HGA2
   14    13    47	5 ;      CG321      CG321       HGA2
   14    13    48	5 ;      CG321      CG321       HGA2
   47    13    48	5 ;       HGA2      CG321       HGA2
   13    14    15	5 ;      CG321      CG321      CG321
   13    14    49	5 ;      CG321      CG321       HGA2
   13    14    50	5 ;      CG321      CG321       HGA2
   15    14    49	5 ;      CG321      CG321       HGA2
   15    14    50	5 ;      CG321      CG321       HGA2
   49    14    50	5 ;       HGA2      CG321       HGA2
   14    15    16	5 ;      CG321      CG321      CG321
   14    15    51	5 ;      CG321      CG321       HGA2
   14    15    52	5 ;      CG321      CG321       HGA2
   16    15    51	5 ;      CG321      CG321       HGA2
   16    15    52	5 ;      CG321      CG321       HGA2
   51    15    52	5 ;       HGA2      CG321       HGA2
   15    16    17	5 ;      CG321      CG321      CG321
   15    16    53	5 ;      CG321      CG321       HGA2
   15    16    54	5 ;      CG321      CG321       HGA2
   17    16    53	5 ;      CG321      CG321       HGA2
   17    16    54	5 ;      CG321      CG321       HGA2
   53    16    54	5 ;       HGA2      CG321       HGA2
   16    17    18	5 ;      CG321      CG321      CG321
   16    17    55	5 ;      CG321      CG321       HGA2
   16    17    56	5 ;      CG321      CG321       HGA2
   18    17    55	5 ;      CG321      CG321       HGA2
   18    17    56	5 ;      CG321      CG321       HGA2
   55    17    56	5 ;       HGA2      CG321       HGA2
   17    18    19	5 ;      CG321      CG321      CG321
   17    18    57	5 ;      CG321      CG321       HGA2
   17    18    58	5 ;      CG321      CG321       HGA2
   19    18    57	5 ;      CG321      CG321       HGA2
   19    18    58	5 ;      CG321      CG321       HGA2
   57    18    58	5 ;       HGA2      CG321       HGA2
   18    19    20	5 ;      CG321      CG321      CG321
   18    19    59	5 ;      CG321      CG321       HGA2
   18    19    60	5 ;      CG321      CG321       HGA2
   20    19    59	5 ;      CG321      CG321       HGA2
   20    19    60	5 ;      CG321      CG321       HGA2
   59    19    60	5 ;       HGA2      CG321       HGA2
   19    20    21	5 ;      CG321      CG321      CG331
   19    20    61	5 ;      CG321      CG321       HGA2
   19    20    62	5 ;      CG321      CG321       HGA2
   21    20    61	5 ;      CG331      CG321       HGA2
   21    20    62	5 ;      CG331      CG321       HGA2
   61    20    62	5 ;       HGA2      CG321       HGA2
   20    21    63	5 ;      CG321      CG331       HGA3
   20    21    64	5 ;      CG321      CG331       HGA3
   20    21    65	5 ;      CG321      CG331       HGA3
   63    21    64	5 ;       HGA3      CG331       HGA3
   63    21    65	5 ;       HGA3      CG331       HGA3
   64    21    65	5 ;       HGA3      CG331       HGA3
    1    22     4	5 ;      CG301      OG301      CG321
   73    66    72	5 ;     CG2R51     NG2R50     CG2R53
   76    67    72	5 ;      CG321     NG2R51     CG2R53
   76    67    74	5 ;      CG321     NG2R51     CG2R51
   72    67    74	5 ;     CG2R53     NG2R51     CG2R51
   69    68    89	5 ;     NG2R51     NG2R50     CG2R53
   68    69    70	5 ;     NG2R50     NG2R51     NG2R50
   68    69   108	5 ;     NG2R50     NG2R51       HGP1
   70    69   108	5 ;     NG2R50     NG2R51       HGP1
   69    70    71	5 ;     NG2R51     NG2R50     NG2R50
   70    71    89	5 ;     NG2R50     NG2R50     CG2R53
   66    72    67	5 ;     NG2R50     CG2R53     NG2R51
   66    72    90	5 ;     NG2R50     CG2R53      CG321
   67    72    90	5 ;     NG2R51     CG2R53      CG321
   66    73    74	5 ;     NG2R50     CG2R51     CG2R51
   66    73    95	5 ;     NG2R50     CG2R51      CLGR1
   74    73    95	5 ;     CG2R51     CG2R51      CLGR1
   73    74    67	5 ;     CG2R51     CG2R51     NG2R51
   73    74    75	5 ;     CG2R51     CG2R51      CG321
   67    74    75	5 ;     NG2R51     CG2R51      CG321
   74    75    94	5 ;     CG2R51      CG321      OG301
   74    75    96	5 ;     CG2R51      CG321       HGA2
   74    75    97	5 ;     CG2R51      CG321       HGA2
   94    75    96	5 ;      OG301      CG321       HGA2
   94    75    97	5 ;      OG301      CG321       HGA2
   96    75    97	5 ;       HGA2      CG321       HGA2
   67    76    80	5 ;     NG2R51      CG321     CG2R61
   67    76    98	5 ;     NG2R51      CG321       HGA2
   67    76    99	5 ;     NG2R51      CG321       HGA2
   80    76    98	5 ;     CG2R61      CG321       HGA2
   80    76    99	5 ;     CG2R61      CG321       HGA2
   98    76    99	5 ;       HGA2      CG321       HGA2
   78    77    82	5 ;     CG2R61     CG2R67     CG2R61
   78    77    83	5 ;     CG2R61     CG2R67     CG2R67
   82    77    83	5 ;     CG2R61     CG2R67     CG2R67
   77    78    79	5 ;     CG2R67     CG2R61     CG2R61
   77    78   100	5 ;     CG2R67     CG2R61      HGR61
   79    78   100	5 ;     CG2R61     CG2R61      HGR61
   78    79    80	5 ;     CG2R61     CG2R61     CG2R61
   78    79   101	5 ;     CG2R61     CG2R61      HGR61
   80    79   101	5 ;     CG2R61     CG2R61      HGR61
   76    80    79	5 ;      CG321     CG2R61     CG2R61
   76    80    81	5 ;      CG321     CG2R61     CG2R61
   79    80    81	5 ;     CG2R61     CG2R61     CG2R61
   80    81    82	5 ;     CG2R61     CG2R61     CG2R61
   80    81   102	5 ;     CG2R61     CG2R61      HGR61
   82    81   102	5 ;     CG2R61     CG2R61      HGR61
   77    82    81	5 ;     CG2R67     CG2R61     CG2R61
   77    82   103	5 ;     CG2R67     CG2R61      HGR61
   81    82   103	5 ;     CG2R61     CG2R61      HGR61
   77    83    84	5 ;     CG2R67     CG2R67     CG2R61
   77    83    88	5 ;     CG2R67     CG2R67     CG2R61
   84    83    88	5 ;     CG2R61     CG2R67     CG2R61
   83    84    85	5 ;     CG2R67     CG2R61     CG2R61
   83    84    89	5 ;     CG2R67     CG2R61     CG2R53
   85    84    89	5 ;     CG2R61     CG2R61     CG2R53
   84    85    86	5 ;     CG2R61     CG2R61     CG2R61
   84    85   104	5 ;     CG2R61     CG2R61      HGR61
   86    85   104	5 ;     CG2R61     CG2R61      HGR61
   85    86    87	5 ;     CG2R61     CG2R61     CG2R61
   85    86   105	5 ;     CG2R61     CG2R61      HGR61
   87    86   105	5 ;     CG2R61     CG2R61      HGR61
   86    87    88	5 ;     CG2R61     CG2R61     CG2R61
   86    87   106	5 ;     CG2R61     CG2R61      HGR61
   88    87   106	5 ;     CG2R61     CG2R61      HGR61
   83    88    87	5 ;     CG2R67     CG2R61     CG2R61
   83    88   107	5 ;     CG2R67     CG2R61      HGR61
   87    88   107	5 ;     CG2R61     CG2R61      HGR61
   68    89    71	5 ;     NG2R50     CG2R53     NG2R50
   68    89    84	5 ;     NG2R50     CG2R53     CG2R61
   71    89    84	5 ;     NG2R50     CG2R53     CG2R61
   72    90    91	5 ;     CG2R53      CG321      CG321
   72    90   109	5 ;     CG2R53      CG321       HGA2
   72    90   110	5 ;     CG2R53      CG321       HGA2
   91    90   109	5 ;      CG321      CG321       HGA2
   91    90   110	5 ;      CG321      CG321       HGA2
  109    90   110	5 ;       HGA2      CG321       HGA2
   90    91    92	5 ;      CG321      CG321      CG321
   90    91   111	5 ;      CG321      CG321       HGA2
   90    91   112	5 ;      CG321      CG321       HGA2
   92    91   111	5 ;      CG321      CG321       HGA2
   92    91   112	5 ;      CG321      CG321       HGA2
  111    91   112	5 ;       HGA2      CG321       HGA2
   91    92    93	5 ;      CG321      CG321      CG331
   91    92   113	5 ;      CG321      CG321       HGA2
   91    92   114	5 ;      CG321      CG321       HGA2
   93    92   113	5 ;      CG331      CG321       HGA2
   93    92   114	5 ;      CG331      CG321       HGA2
  113    92   114	5 ;       HGA2      CG321       HGA2
   92    93   115	5 ;      CG321      CG331       HGA3
   92    93   116	5 ;      CG321      CG331       HGA3
   92    93   117	5 ;      CG321      CG331       HGA3
  115    93   116	5 ;       HGA3      CG331       HGA3
  115    93   117	5 ;       HGA3      CG331       HGA3
  116    93   117	5 ;       HGA3      CG331       HGA3
   75    94     1	5 ;      CG321      OG301      CG301

[ dihedrals ]
;	ai	  aj	ak	  al funct			  c0			c1			  c2			c3			  c4			c5
    3     1     2    23	 9 ;      CG331      CG301      CG331       HGA3
    3     1     2    24	 9 ;      CG331      CG301      CG331       HGA3
    3     1     2    25	 9 ;      CG331      CG301      CG331       HGA3
   22     1     2    23	 9 ;      OG301      CG301      CG331       HGA3
   22     1     2    24	 9 ;      OG301      CG301      CG331       HGA3
   22     1     2    25	 9 ;      OG301      CG301      CG331       HGA3
   94     1     2    23	 9 ;      OG301      CG301      CG331       HGA3
   94     1     2    24	 9 ;      OG301      CG301      CG331       HGA3
   94     1     2    25	 9 ;      OG301      CG301      CG331       HGA3
    2     1     3    26	 9 ;      CG331      CG301      CG331       HGA3
    2     1     3    27	 9 ;      CG331      CG301      CG331       HGA3
    2     1     3    28	 9 ;      CG331      CG301      CG331       HGA3
   22     1     3    26	 9 ;      OG301      CG301      CG331       HGA3
   22     1     3    27	 9 ;      OG301      CG301      CG331       HGA3
   22     1     3    28	 9 ;      OG301      CG301      CG331       HGA3
   94     1     3    26	 9 ;      OG301      CG301      CG331       HGA3
   94     1     3    27	 9 ;      OG301      CG301      CG331       HGA3
   94     1     3    28	 9 ;      OG301      CG301      CG331       HGA3
    2     1    22     4	 9 ;      CG331      CG301      OG301      CG321
    3     1    22     4	 9 ;      CG331      CG301      OG301      CG321
   94     1    22     4	 9 ;      OG301      CG301      OG301      CG321
    2     1    94    75	 9 ;      CG331      CG301      OG301      CG321
    3     1    94    75	 9 ;      CG331      CG301      OG301      CG321
   22     1    94    75	 9 ;      OG301      CG301      OG301      CG321
   29     4     5     6	 9 ;       HGA2      CG321      CG321      CG321
   29     4     5    31	 9 ;       HGA2      CG321      CG321       HGA2
   29     4     5    32	 9 ;       HGA2      CG321      CG321       HGA2
   30     4     5     6	 9 ;       HGA2      CG321      CG321      CG321
   30     4     5    31	 9 ;       HGA2      CG321      CG321       HGA2
   30     4     5    32	 9 ;       HGA2      CG321      CG321       HGA2
   22     4     5     6	 9 ;      OG301      CG321      CG321      CG321
   22     4     5    31	 9 ;      OG301      CG321      CG321       HGA2
   22     4     5    32	 9 ;      OG301      CG321      CG321       HGA2
    5     4    22     1	 9 ;      CG321      CG321      OG301      CG301
   29     4    22     1	 9 ;       HGA2      CG321      OG301      CG301
   30     4    22     1	 9 ;       HGA2      CG321      OG301      CG301
    4     5     6     7	 9 ;      CG321      CG321      CG321      CG321
    4     5     6    33	 9 ;      CG321      CG321      CG321       HGA2
    4     5     6    34	 9 ;      CG321      CG321      CG321       HGA2
   31     5     6     7	 9 ;       HGA2      CG321      CG321      CG321
   31     5     6    33	 9 ;       HGA2      CG321      CG321       HGA2
   31     5     6    34	 9 ;       HGA2      CG321      CG321       HGA2
   32     5     6     7	 9 ;       HGA2      CG321      CG321      CG321
   32     5     6    33	 9 ;       HGA2      CG321      CG321       HGA2
   32     5     6    34	 9 ;       HGA2      CG321      CG321       HGA2
    5     6     7     8	 9 ;      CG321      CG321      CG321      CG321
    5     6     7    35	 9 ;      CG321      CG321      CG321       HGA2
    5     6     7    36	 9 ;      CG321      CG321      CG321       HGA2
   33     6     7     8	 9 ;       HGA2      CG321      CG321      CG321
   33     6     7    35	 9 ;       HGA2      CG321      CG321       HGA2
   33     6     7    36	 9 ;       HGA2      CG321      CG321       HGA2
   34     6     7     8	 9 ;       HGA2      CG321      CG321      CG321
   34     6     7    35	 9 ;       HGA2      CG321      CG321       HGA2
   34     6     7    36	 9 ;       HGA2      CG321      CG321       HGA2
    6     7     8     9	 9 ;      CG321      CG321      CG321      CG321
    6     7     8    37	 9 ;      CG321      CG321      CG321       HGA2
    6     7     8    38	 9 ;      CG321      CG321      CG321       HGA2
   35     7     8     9	 9 ;       HGA2      CG321      CG321      CG321
   35     7     8    37	 9 ;       HGA2      CG321      CG321       HGA2
   35     7     8    38	 9 ;       HGA2      CG321      CG321       HGA2
   36     7     8     9	 9 ;       HGA2      CG321      CG321      CG321
   36     7     8    37	 9 ;       HGA2      CG321      CG321       HGA2
   36     7     8    38	 9 ;       HGA2      CG321      CG321       HGA2
    7     8     9    10	 9 ;      CG321      CG321      CG321      CG321
    7     8     9    39	 9 ;      CG321      CG321      CG321       HGA2
    7     8     9    40	 9 ;      CG321      CG321      CG321       HGA2
   37     8     9    10	 9 ;       HGA2      CG321      CG321      CG321
   37     8     9    39	 9 ;       HGA2      CG321      CG321       HGA2
   37     8     9    40	 9 ;       HGA2      CG321      CG321       HGA2
   38     8     9    10	 9 ;       HGA2      CG321      CG321      CG321
   38     8     9    39	 9 ;       HGA2      CG321      CG321       HGA2
   38     8     9    40	 9 ;       HGA2      CG321      CG321       HGA2
    8     9    10    11	 9 ;      CG321      CG321      CG321      CG321
    8     9    10    41	 9 ;      CG321      CG321      CG321       HGA2
    8     9    10    42	 9 ;      CG321      CG321      CG321       HGA2
   39     9    10    11	 9 ;       HGA2      CG321      CG321      CG321
   39     9    10    41	 9 ;       HGA2      CG321      CG321       HGA2
   39     9    10    42	 9 ;       HGA2      CG321      CG321       HGA2
   40     9    10    11	 9 ;       HGA2      CG321      CG321      CG321
   40     9    10    41	 9 ;       HGA2      CG321      CG321       HGA2
   40     9    10    42	 9 ;       HGA2      CG321      CG321       HGA2
    9    10    11    12	 9 ;      CG321      CG321      CG321      CG321
    9    10    11    43	 9 ;      CG321      CG321      CG321       HGA2
    9    10    11    44	 9 ;      CG321      CG321      CG321       HGA2
   41    10    11    12	 9 ;       HGA2      CG321      CG321      CG321
   41    10    11    43	 9 ;       HGA2      CG321      CG321       HGA2
   41    10    11    44	 9 ;       HGA2      CG321      CG321       HGA2
   42    10    11    12	 9 ;       HGA2      CG321      CG321      CG321
   42    10    11    43	 9 ;       HGA2      CG321      CG321       HGA2
   42    10    11    44	 9 ;       HGA2      CG321      CG321       HGA2
   10    11    12    13	 9 ;      CG321      CG321      CG321      CG321
   10    11    12    45	 9 ;      CG321      CG321      CG321       HGA2
   10    11    12    46	 9 ;      CG321      CG321      CG321       HGA2
   43    11    12    13	 9 ;       HGA2      CG321      CG321      CG321
   43    11    12    45	 9 ;       HGA2      CG321      CG321       HGA2
   43    11    12    46	 9 ;       HGA2      CG321      CG321       HGA2
   44    11    12    13	 9 ;       HGA2      CG321      CG321      CG321
   44    11    12    45	 9 ;       HGA2      CG321      CG321       HGA2
   44    11    12    46	 9 ;       HGA2      CG321      CG321       HGA2
   11    12    13    14	 9 ;      CG321      CG321      CG321      CG321
   11    12    13    47	 9 ;      CG321      CG321      CG321       HGA2
   11    12    13    48	 9 ;      CG321      CG321      CG321       HGA2
   45    12    13    14	 9 ;       HGA2      CG321      CG321      CG321
   45    12    13    47	 9 ;       HGA2      CG321      CG321       HGA2
   45    12    13    48	 9 ;       HGA2      CG321      CG321       HGA2
   46    12    13    14	 9 ;       HGA2      CG321      CG321      CG321
   46    12    13    47	 9 ;       HGA2      CG321      CG321       HGA2
   46    12    13    48	 9 ;       HGA2      CG321      CG321       HGA2
   12    13    14    15	 9 ;      CG321      CG321      CG321      CG321
   12    13    14    49	 9 ;      CG321      CG321      CG321       HGA2
   12    13    14    50	 9 ;      CG321      CG321      CG321       HGA2
   47    13    14    15	 9 ;       HGA2      CG321      CG321      CG321
   47    13    14    49	 9 ;       HGA2      CG321      CG321       HGA2
   47    13    14    50	 9 ;       HGA2      CG321      CG321       HGA2
   48    13    14    15	 9 ;       HGA2      CG321      CG321      CG321
   48    13    14    49	 9 ;       HGA2      CG321      CG321       HGA2
   48    13    14    50	 9 ;       HGA2      CG321      CG321       HGA2
   13    14    15    16	 9 ;      CG321      CG321      CG321      CG321
   13    14    15    51	 9 ;      CG321      CG321      CG321       HGA2
   13    14    15    52	 9 ;      CG321      CG321      CG321       HGA2
   49    14    15    16	 9 ;       HGA2      CG321      CG321      CG321
   49    14    15    51	 9 ;       HGA2      CG321      CG321       HGA2
   49    14    15    52	 9 ;       HGA2      CG321      CG321       HGA2
   50    14    15    16	 9 ;       HGA2      CG321      CG321      CG321
   50    14    15    51	 9 ;       HGA2      CG321      CG321       HGA2
   50    14    15    52	 9 ;       HGA2      CG321      CG321       HGA2
   14    15    16    17	 9 ;      CG321      CG321      CG321      CG321
   14    15    16    53	 9 ;      CG321      CG321      CG321       HGA2
   14    15    16    54	 9 ;      CG321      CG321      CG321       HGA2
   51    15    16    17	 9 ;       HGA2      CG321      CG321      CG321
   51    15    16    53	 9 ;       HGA2      CG321      CG321       HGA2
   51    15    16    54	 9 ;       HGA2      CG321      CG321       HGA2
   52    15    16    17	 9 ;       HGA2      CG321      CG321      CG321
   52    15    16    53	 9 ;       HGA2      CG321      CG321       HGA2
   52    15    16    54	 9 ;       HGA2      CG321      CG321       HGA2
   15    16    17    18	 9 ;      CG321      CG321      CG321      CG321
   15    16    17    55	 9 ;      CG321      CG321      CG321       HGA2
   15    16    17    56	 9 ;      CG321      CG321      CG321       HGA2
   53    16    17    18	 9 ;       HGA2      CG321      CG321      CG321
   53    16    17    55	 9 ;       HGA2      CG321      CG321       HGA2
   53    16    17    56	 9 ;       HGA2      CG321      CG321       HGA2
   54    16    17    18	 9 ;       HGA2      CG321      CG321      CG321
   54    16    17    55	 9 ;       HGA2      CG321      CG321       HGA2
   54    16    17    56	 9 ;       HGA2      CG321      CG321       HGA2
   16    17    18    19	 9 ;      CG321      CG321      CG321      CG321
   16    17    18    57	 9 ;      CG321      CG321      CG321       HGA2
   16    17    18    58	 9 ;      CG321      CG321      CG321       HGA2
   55    17    18    19	 9 ;       HGA2      CG321      CG321      CG321
   55    17    18    57	 9 ;       HGA2      CG321      CG321       HGA2
   55    17    18    58	 9 ;       HGA2      CG321      CG321       HGA2
   56    17    18    19	 9 ;       HGA2      CG321      CG321      CG321
   56    17    18    57	 9 ;       HGA2      CG321      CG321       HGA2
   56    17    18    58	 9 ;       HGA2      CG321      CG321       HGA2
   17    18    19    20	 9 ;      CG321      CG321      CG321      CG321
   17    18    19    59	 9 ;      CG321      CG321      CG321       HGA2
   17    18    19    60	 9 ;      CG321      CG321      CG321       HGA2
   57    18    19    20	 9 ;       HGA2      CG321      CG321      CG321
   57    18    19    59	 9 ;       HGA2      CG321      CG321       HGA2
   57    18    19    60	 9 ;       HGA2      CG321      CG321       HGA2
   58    18    19    20	 9 ;       HGA2      CG321      CG321      CG321
   58    18    19    59	 9 ;       HGA2      CG321      CG321       HGA2
   58    18    19    60	 9 ;       HGA2      CG321      CG321       HGA2
   18    19    20    21	 9 ;      CG321      CG321      CG321      CG331
   18    19    20    61	 9 ;      CG321      CG321      CG321       HGA2
   18    19    20    62	 9 ;      CG321      CG321      CG321       HGA2
   59    19    20    21	 9 ;       HGA2      CG321      CG321      CG331
   59    19    20    61	 9 ;       HGA2      CG321      CG321       HGA2
   59    19    20    62	 9 ;       HGA2      CG321      CG321       HGA2
   60    19    20    21	 9 ;       HGA2      CG321      CG321      CG331
   60    19    20    61	 9 ;       HGA2      CG321      CG321       HGA2
   60    19    20    62	 9 ;       HGA2      CG321      CG321       HGA2
   19    20    21    63	 9 ;      CG321      CG321      CG331       HGA3
   19    20    21    64	 9 ;      CG321      CG321      CG331       HGA3
   19    20    21    65	 9 ;      CG321      CG321      CG331       HGA3
   61    20    21    63	 9 ;       HGA2      CG321      CG331       HGA3
   61    20    21    64	 9 ;       HGA2      CG321      CG331       HGA3
   61    20    21    65	 9 ;       HGA2      CG321      CG331       HGA3
   62    20    21    63	 9 ;       HGA2      CG321      CG331       HGA3
   62    20    21    64	 9 ;       HGA2      CG321      CG331       HGA3
   62    20    21    65	 9 ;       HGA2      CG321      CG331       HGA3
   72    66    73    74	 9 ;     CG2R53     NG2R50     CG2R51     CG2R51
   72    66    73    95	 9 ;     CG2R53     NG2R50     CG2R51      CLGR1
   73    66    72    67	 9 ;     CG2R51     NG2R50     CG2R53     NG2R51
   73    66    72    90	 9 ;     CG2R51     NG2R50     CG2R53      CG321
   72    67    76    80	 9 ;     CG2R53     NG2R51      CG321     CG2R61
   72    67    76    98	 9 ;     CG2R53     NG2R51      CG321       HGA2
   72    67    76    99	 9 ;     CG2R53     NG2R51      CG321       HGA2
   74    67    76    80	 9 ;     CG2R51     NG2R51      CG321     CG2R61
   74    67    76    98	 9 ;     CG2R51     NG2R51      CG321       HGA2
   74    67    76    99	 9 ;     CG2R51     NG2R51      CG321       HGA2
   76    67    72    66	 9 ;      CG321     NG2R51     CG2R53     NG2R50
   76    67    72    90	 9 ;      CG321     NG2R51     CG2R53      CG321
   74    67    72    66	 9 ;     CG2R51     NG2R51     CG2R53     NG2R50
   74    67    72    90	 9 ;     CG2R51     NG2R51     CG2R53      CG321
   76    67    74    73	 9 ;      CG321     NG2R51     CG2R51     CG2R51
   76    67    74    75	 9 ;      CG321     NG2R51     CG2R51      CG321
   72    67    74    73	 9 ;     CG2R53     NG2R51     CG2R51     CG2R51
   72    67    74    75	 9 ;     CG2R53     NG2R51     CG2R51      CG321
   89    68    69    70	 9 ;     CG2R53     NG2R50     NG2R51     NG2R50
   89    68    69   108	 9 ;     CG2R53     NG2R50     NG2R51       HGP1
   69    68    89    71	 9 ;     NG2R51     NG2R50     CG2R53     NG2R50
   69    68    89    84	 9 ;     NG2R51     NG2R50     CG2R53     CG2R61
   68    69    70    71	 9 ;     NG2R50     NG2R51     NG2R50     NG2R50
  108    69    70    71	 9 ;       HGP1     NG2R51     NG2R50     NG2R50
   69    70    71    89	 9 ;     NG2R51     NG2R50     NG2R50     CG2R53
   70    71    89    68	 9 ;     NG2R50     NG2R50     CG2R53     NG2R50
   70    71    89    84	 9 ;     NG2R50     NG2R50     CG2R53     CG2R61
   66    72    90    91	 9 ;     NG2R50     CG2R53      CG321      CG321
   66    72    90   109	 9 ;     NG2R50     CG2R53      CG321       HGA2
   66    72    90   110	 9 ;     NG2R50     CG2R53      CG321       HGA2
   67    72    90    91	 9 ;     NG2R51     CG2R53      CG321      CG321
   67    72    90   109	 9 ;     NG2R51     CG2R53      CG321       HGA2
   67    72    90   110	 9 ;     NG2R51     CG2R53      CG321       HGA2
   66    73    74    67	 9 ;     NG2R50     CG2R51     CG2R51     NG2R51
   66    73    74    75	 9 ;     NG2R50     CG2R51     CG2R51      CG321
   95    73    74    67	 9 ;      CLGR1     CG2R51     CG2R51     NG2R51
   95    73    74    75	 9 ;      CLGR1     CG2R51     CG2R51      CG321
   73    74    75    94	 9 ;     CG2R51     CG2R51      CG321      OG301
   73    74    75    96	 9 ;     CG2R51     CG2R51      CG321       HGA2
   73    74    75    97	 9 ;     CG2R51     CG2R51      CG321       HGA2
   67    74    75    94	 9 ;     NG2R51     CG2R51      CG321      OG301
   67    74    75    96	 9 ;     NG2R51     CG2R51      CG321       HGA2
   67    74    75    97	 9 ;     NG2R51     CG2R51      CG321       HGA2
   74    75    94     1	 9 ;     CG2R51      CG321      OG301      CG301
   96    75    94     1	 9 ;       HGA2      CG321      OG301      CG301
   97    75    94     1	 9 ;       HGA2      CG321      OG301      CG301
   67    76    80    79	 9 ;     NG2R51      CG321     CG2R61     CG2R61
   67    76    80    81	 9 ;     NG2R51      CG321     CG2R61     CG2R61
   98    76    80    79	 9 ;       HGA2      CG321     CG2R61     CG2R61
   98    76    80    81	 9 ;       HGA2      CG321     CG2R61     CG2R61
   99    76    80    79	 9 ;       HGA2      CG321     CG2R61     CG2R61
   99    76    80    81	 9 ;       HGA2      CG321     CG2R61     CG2R61
   82    77    78    79	 9 ;     CG2R61     CG2R67     CG2R61     CG2R61
   82    77    78   100	 9 ;     CG2R61     CG2R67     CG2R61      HGR61
   83    77    78    79	 9 ;     CG2R67     CG2R67     CG2R61     CG2R61
   83    77    78   100	 9 ;     CG2R67     CG2R67     CG2R61      HGR61
   78    77    82    81	 9 ;     CG2R61     CG2R67     CG2R61     CG2R61
   78    77    82   103	 9 ;     CG2R61     CG2R67     CG2R61      HGR61
   83    77    82    81	 9 ;     CG2R67     CG2R67     CG2R61     CG2R61
   83    77    82   103	 9 ;     CG2R67     CG2R67     CG2R61      HGR61
   78    77    83    84	 9 ;     CG2R61     CG2R67     CG2R67     CG2R61
   78    77    83    88	 9 ;     CG2R61     CG2R67     CG2R67     CG2R61
   82    77    83    84	 9 ;     CG2R61     CG2R67     CG2R67     CG2R61
   82    77    83    88	 9 ;     CG2R61     CG2R67     CG2R67     CG2R61
   77    78    79    80	 9 ;     CG2R67     CG2R61     CG2R61     CG2R61
   77    78    79   101	 9 ;     CG2R67     CG2R61     CG2R61      HGR61
  100    78    79    80	 9 ;      HGR61     CG2R61     CG2R61     CG2R61
  100    78    79   101	 9 ;      HGR61     CG2R61     CG2R61      HGR61
   78    79    80    76	 9 ;     CG2R61     CG2R61     CG2R61      CG321
   78    79    80    81	 9 ;     CG2R61     CG2R61     CG2R61     CG2R61
  101    79    80    76	 9 ;      HGR61     CG2R61     CG2R61      CG321
  101    79    80    81	 9 ;      HGR61     CG2R61     CG2R61     CG2R61
   76    80    81    82	 9 ;      CG321     CG2R61     CG2R61     CG2R61
   76    80    81   102	 9 ;      CG321     CG2R61     CG2R61      HGR61
   79    80    81    82	 9 ;     CG2R61     CG2R61     CG2R61     CG2R61
   79    80    81   102	 9 ;     CG2R61     CG2R61     CG2R61      HGR61
   80    81    82    77	 9 ;     CG2R61     CG2R61     CG2R61     CG2R67
   80    81    82   103	 9 ;     CG2R61     CG2R61     CG2R61      HGR61
  102    81    82    77	 9 ;      HGR61     CG2R61     CG2R61     CG2R67
  102    81    82   103	 9 ;      HGR61     CG2R61     CG2R61      HGR61
   77    83    84    85	 9 ;     CG2R67     CG2R67     CG2R61     CG2R61
   77    83    84    89	 9 ;     CG2R67     CG2R67     CG2R61     CG2R53
   88    83    84    85	 9 ;     CG2R61     CG2R67     CG2R61     CG2R61
   88    83    84    89	 9 ;     CG2R61     CG2R67     CG2R61     CG2R53
   77    83    88    87	 9 ;     CG2R67     CG2R67     CG2R61     CG2R61
   77    83    88   107	 9 ;     CG2R67     CG2R67     CG2R61      HGR61
   84    83    88    87	 9 ;     CG2R61     CG2R67     CG2R61     CG2R61
   84    83    88   107	 9 ;     CG2R61     CG2R67     CG2R61      HGR61
   83    84    85    86	 9 ;     CG2R67     CG2R61     CG2R61     CG2R61
   83    84    85   104	 9 ;     CG2R67     CG2R61     CG2R61      HGR61
   89    84    85    86	 9 ;     CG2R53     CG2R61     CG2R61     CG2R61
   89    84    85   104	 9 ;     CG2R53     CG2R61     CG2R61      HGR61
   83    84    89    68	 9 ;     CG2R67     CG2R61     CG2R53     NG2R50
   83    84    89    71	 9 ;     CG2R67     CG2R61     CG2R53     NG2R50
   85    84    89    68	 9 ;     CG2R61     CG2R61     CG2R53     NG2R50
   85    84    89    71	 9 ;     CG2R61     CG2R61     CG2R53     NG2R50
   84    85    86    87	 9 ;     CG2R61     CG2R61     CG2R61     CG2R61
   84    85    86   105	 9 ;     CG2R61     CG2R61     CG2R61      HGR61
  104    85    86    87	 9 ;      HGR61     CG2R61     CG2R61     CG2R61
  104    85    86   105	 9 ;      HGR61     CG2R61     CG2R61      HGR61
   85    86    87    88	 9 ;     CG2R61     CG2R61     CG2R61     CG2R61
   85    86    87   106	 9 ;     CG2R61     CG2R61     CG2R61      HGR61
  105    86    87    88	 9 ;      HGR61     CG2R61     CG2R61     CG2R61
  105    86    87   106	 9 ;      HGR61     CG2R61     CG2R61      HGR61
   86    87    88    83	 9 ;     CG2R61     CG2R61     CG2R61     CG2R67
   86    87    88   107	 9 ;     CG2R61     CG2R61     CG2R61      HGR61
  106    87    88    83	 9 ;      HGR61     CG2R61     CG2R61     CG2R67
  106    87    88   107	 9 ;      HGR61     CG2R61     CG2R61      HGR61
   72    90    91    92	 9 ;     CG2R53      CG321      CG321      CG321
   72    90    91   111	 9 ;     CG2R53      CG321      CG321       HGA2
   72    90    91   112	 9 ;     CG2R53      CG321      CG321       HGA2
  109    90    91    92	 9 ;       HGA2      CG321      CG321      CG321
  109    90    91   111	 9 ;       HGA2      CG321      CG321       HGA2
  109    90    91   112	 9 ;       HGA2      CG321      CG321       HGA2
  110    90    91    92	 9 ;       HGA2      CG321      CG321      CG321
  110    90    91   111	 9 ;       HGA2      CG321      CG321       HGA2
  110    90    91   112	 9 ;       HGA2      CG321      CG321       HGA2
   90    91    92    93	 9 ;      CG321      CG321      CG321      CG331
   90    91    92   113	 9 ;      CG321      CG321      CG321       HGA2
   90    91    92   114	 9 ;      CG321      CG321      CG321       HGA2
  111    91    92    93	 9 ;       HGA2      CG321      CG321      CG331
  111    91    92   113	 9 ;       HGA2      CG321      CG321       HGA2
  111    91    92   114	 9 ;       HGA2      CG321      CG321       HGA2
  112    91    92    93	 9 ;       HGA2      CG321      CG321      CG331
  112    91    92   113	 9 ;       HGA2      CG321      CG321       HGA2
  112    91    92   114	 9 ;       HGA2      CG321      CG321       HGA2
   91    92    93   115	 9 ;      CG321      CG321      CG331       HGA3
   91    92    93   116	 9 ;      CG321      CG321      CG331       HGA3
   91    92    93   117	 9 ;      CG321      CG321      CG331       HGA3
  113    92    93   115	 9 ;       HGA2      CG321      CG331       HGA3
  113    92    93   116	 9 ;       HGA2      CG321      CG331       HGA3
  113    92    93   117	 9 ;       HGA2      CG321      CG331       HGA3
  114    92    93   115	 9 ;       HGA2      CG321      CG331       HGA3
  114    92    93   116	 9 ;       HGA2      CG321      CG331       HGA3
  114    92    93   117	 9 ;       HGA2      CG321      CG331       HGA3

;[ virtual_sites2 ]
; Site   from				funct a
;  118    95    73     2   -0.164

;[ exclusions ]
;	ai	  aj
;  95 ;  118	 1
;  118    73	 1
;  118    66	 1
;  118    74	 1
;  118    67	 1
;  118    72	 1
;  118    75	 1

