; Created by cgenff_charmm2gmx.py

[ moleculetype ]
; Name			   nrexcl
PTX				 3

[ atoms ]
;	 nr		  type	resnr residue  atom   cgnr	   charge		mass  typeB    chargeB		massB
; residue	 1 PTX rtp PTX q	qsum
     1      CG331      1    PTL     C1      1     -0.273     12.011   ;
     2      CG321      1    PTL     C2      2     -0.177     12.011   ;
     3      CG321      1    PTL     C3      3     -0.181     12.011   ;
     4      CG321      1    PTL     C4      4     -0.179     12.011   ;
     5      CG321      1    PTL     C5      5     -0.180     12.011   ;
     6      CG321      1    PTL     C6      6      0.036     12.011   ;
     7      CG301      1    PTL     C7      7      0.391     12.011   ;
     8      CG331      1    PTL     C8      8     -0.269     12.011   ;
     9      CG331      1    PTL     C9      9     -0.269     12.011   ;
    10      OG301      1    PTL     O1     10     -0.402     15.999   ;
    11       HGA3      1    PTL     H1     11      0.090      1.008   ;
    12       HGA3      1    PTL     H2     12      0.090      1.008   ;
    13       HGA3      1    PTL     H3     13      0.090      1.008   ;
    14       HGA2      1    PTL     H4     14      0.090      1.008   ;
    15       HGA2      1    PTL     H5     15      0.090      1.008   ;
    16       HGA2      1    PTL     H6     16      0.090      1.008   ;
    17       HGA2      1    PTL     H7     17      0.090      1.008   ;
    18       HGA2      1    PTL     H8     18      0.090      1.008   ;
    19       HGA2      1    PTL     H9     19      0.090      1.008   ;
    20       HGA2      1    PTL    H10     20      0.090      1.008   ;
    21       HGA2      1    PTL    H11     21      0.090      1.008   ;
    22       HGA2      1    PTL    H12     22      0.090      1.008   ;
    23       HGA2      1    PTL    H13     23      0.090      1.008   ;
    24       HGA3      1    PTL    H14     24      0.090      1.008   ;
    25       HGA3      1    PTL    H15     25      0.090      1.008   ;
    26       HGA3      1    PTL    H16     26      0.090      1.008   ;
    27       HGA3      1    PTL    H17     27      0.090      1.008   ;
    28       HGA3      1    PTL    H18     28      0.090      1.008   ;
    29       HGA3      1    PTL    H19     29      0.090      1.008   ;
    30      NG2S1      1    PTX      N     30     -0.404     14.007   ;
    31      CG311      1    PTX    C10     31      0.183     12.011   ;
    32      CG2O2      1    PTX    C11     32      0.850     12.011   ;
    33      CG311      1    PTX    C12     33      0.272     12.011   ;
    34      CG321      1    PTX    C13     34     -0.212     12.011   ;
    35      CG301      1    PTX    C14     35      0.186     12.011   ;
    36      CG311      1    PTX    C15     36      0.133     12.011   ;
    37      CG2O2      1    PTX    C16     37      0.459     12.011   ;
    38     CG2R61      1    PTX    C17     38      0.086     12.011   ;
    39     CG2R61      1    PTX    C18     39     -0.110     12.011   ;
    40     CG2R61      1    PTX    C19     40     -0.114     12.011   ;
    41     CG2R61      1    PTX    C20     41     -0.115     12.011   ;
    42     CG2R61      1    PTX    C21     42     -0.114     12.011   ;
    43     CG2R61      1    PTX    C22     43     -0.110     12.011   ;
    44      CG311      1    PTX    C23     44     -0.074     12.011   ;
    45      CG301      1    PTX    C24     45      0.081     12.011   ;
    46      CG331      1    PTX    C25     46     -0.263     12.011   ;
    47      CG2O5      1    PTX    C26     47      0.297     12.011   ;
    48      CG311      1    PTX    C27     48      0.432     12.011   ;
    49      CG2O2      1    PTX    C28     49      0.834     12.011   ;
    50      CG331      1    PTX    C29     50     -0.311     12.011   ;
    51      CG2D1      1    PTX    C30     51     -0.113     12.011   ;
    52      CG2D1      1    PTX    C31     52     -0.153     12.011   ;
    53      CG331      1    PTX    C32     53     -0.265     12.011   ;
    54      CG301      1    PTX    C33     54      0.016     12.011   ;
    55      CG331      1    PTX    C34     55     -0.269     12.011   ;
    56      CG331      1    PTX    C35     56     -0.269     12.011   ;
    57      CG311      1    PTX    C36     57      0.166     12.011   ;
    58      CG321      1    PTX    C37     58     -0.201     12.011   ;
    59     CG3RC1      1    PTX    C38     59      0.015     12.011   ;
    60     CG3C41      1    PTX    C39     60     -0.106     12.011   ;
    61     CG3RC1      1    PTX    C40     61      0.366     12.011   ;
    62      CG2O2      1    PTX    C41     62      0.885     12.011   ;
    63      CG331      1    PTX    C42     63     -0.313     12.011   ;
    64      CG311      1    PTX    C43     64      0.127     12.011   ;
    65      CG2O1      1    PTX    C44     65      0.341     12.011   ;
    66     CG2R61      1    PTX    C45     66     -0.137     12.011   ;
    67     CG2R61      1    PTX    C46     67     -0.024     12.011   ;
    68     CG2R61      1    PTX    C47     68     -0.109     12.011   ;
    69     CG2R61      1    PTX    C48     69     -0.115     12.011   ;
    70     CG2R61      1    PTX    C49     70     -0.109     12.011   ;
    71     CG2R61      1    PTX    C50     71     -0.024     12.011   ;
    72     CG2R61      1    PTX    C51     72     -0.040     12.011   ;
    73     CG2R61      1    PTX    C52     73     -0.106     12.011   ;
    74     CG2R61      1    PTX    C53     74     -0.115     12.011   ;
    75     CG2R61      1    PTX    C54     75     -0.115     12.011   ;
    76     CG2R61      1    PTX    C55     76     -0.115     12.011   ;
    77     CG2R61      1    PTX    C56     77     -0.106     12.011   ;
    78      OG301      1    PTX     O2     78     -0.506     15.999   ;
    79      OG2D1      1    PTX     O3     79     -0.623     15.999   ;
    80      OG302      1    PTX     O4     80     -0.432     15.999   ;
    81      OG311      1    PTX     O5     81     -0.460     15.999   ;
    82      OG302      1    PTX     O6     82     -0.310     15.999   ;
    83      OG2D1      1    PTX     O7     83     -0.496     15.999   ;
    84      OG2D3      1    PTX     O8     84     -0.515     15.999   ;
    85      OG302      1    PTX     O9     85     -0.427     15.999   ;
    86      OG2D1      1    PTX    O10     86     -0.625     15.999   ;
    87      OG311      1    PTX    O11     87     -0.642     15.999   ;
    88     OG3C51      1    PTX    O12     88     -0.343     15.999   ;
    89      OG302      1    PTX    O13     89     -0.422     15.999   ;
    90      OG2D1      1    PTX    O14     90     -0.617     15.999   ;
    91      OG2D1      1    PTX    O15     91     -0.458     15.999   ;
    92       HGA1      1    PTX    H20     92      0.090      1.008   ;
    93       HGA1      1    PTX    H21     93      0.090      1.008   ;
    94       HGA2      1    PTX    H22     94      0.090      1.008   ;
    95       HGA2      1    PTX    H23     95      0.090      1.008   ;
    96       HGP1      1    PTX    H24     96      0.292      1.008   ;
    97       HGA1      1    PTX    H25     97      0.090      1.008   ;
    98      HGR61      1    PTX    H26     98      0.115      1.008   ;
    99      HGR61      1    PTX    H27     99      0.115      1.008   ;
   100      HGR61      1    PTX    H28    100      0.115      1.008   ;
   101      HGR61      1    PTX    H29    101      0.115      1.008   ;
   102      HGR61      1    PTX    H30    102      0.115      1.008   ;
   103       HGA1      1    PTX    H31    103      0.090      1.008   ;
   104       HGA3      1    PTX    H32    104      0.090      1.008   ;
   105       HGA3      1    PTX    H33    105      0.090      1.008   ;
   106       HGA3      1    PTX    H34    106      0.090      1.008   ;
   107       HGA1      1    PTX    H35    107      0.090      1.008   ;
   108       HGA3      1    PTX    H36    108      0.090      1.008   ;
   109       HGA3      1    PTX    H37    109      0.090      1.008   ;
   110       HGA3      1    PTX    H38    110      0.090      1.008   ;
   111       HGA3      1    PTX    H39    111      0.090      1.008   ;
   112       HGA3      1    PTX    H40    112      0.090      1.008   ;
   113       HGA3      1    PTX    H41    113      0.090      1.008   ;
   114       HGA3      1    PTX    H42    114      0.090      1.008   ;
   115       HGA3      1    PTX    H43    115      0.090      1.008   ;
   116       HGA3      1    PTX    H44    116      0.090      1.008   ;
   117       HGA3      1    PTX    H45    117      0.090      1.008   ;
   118       HGA3      1    PTX    H46    118      0.090      1.008   ;
   119       HGA3      1    PTX    H47    119      0.090      1.008   ;
   120       HGA1      1    PTX    H48    120      0.090      1.008   ;
   121       HGP1      1    PTX    H49    121      0.400      1.008   ;
   122       HGA2      1    PTX    H50    122      0.090      1.008   ;
   123       HGA2      1    PTX    H51    123      0.090      1.008   ;
   124       HGA1      1    PTX    H52    124      0.090      1.008   ;
   125       HGA2      1    PTX    H53    125      0.090      1.008   ;
   126       HGA2      1    PTX    H54    126      0.090      1.008   ;
   127       HGA3      1    PTX    H55    127      0.090      1.008   ;
   128       HGA3      1    PTX    H56    128      0.090      1.008   ;
   129       HGA3      1    PTX    H57    129      0.090      1.008   ;
   130       HGA1      1    PTX    H58    130      0.090      1.008   ;
   131       HGP1      1    PTX    H59    131      0.274      1.008   ;
   132      HGR61      1    PTX    H60    132      0.115      1.008   ;
   133      HGR61      1    PTX    H61    133      0.115      1.008   ;
   134      HGR61      1    PTX    H62    134      0.115      1.008   ;
   135      HGR61      1    PTX    H63    135      0.115      1.008   ;
   136      HGR61      1    PTX    H64    136      0.115      1.008   ;
   137      HGR61      1    PTX    H65    137      0.115      1.008   ;
   138      HGR61      1    PTX    H66    138      0.115      1.008   ;
   139      HGR61      1    PTX    H67    139      0.115      1.008   ;
   140      HGR61      1    PTX    H68    140      0.115      1.008   ;
   141      HGR61      1    PTX    H69    141      0.115      1.008   ;

[ bonds ]
;	ai	  aj funct			  c0			c1			  c2			c3
    1     2	 1 ;       CG331      CG321
    1    11	 1 ;       CG331       HGA3
    1    12	 1 ;       CG331       HGA3
    1    13	 1 ;       CG331       HGA3
    2     3	 1 ;       CG321      CG321
    2    14	 1 ;       CG321       HGA2
    2    15	 1 ;       CG321       HGA2
    3     4	 1 ;       CG321      CG321
    3    16	 1 ;       CG321       HGA2
    3    17	 1 ;       CG321       HGA2
    4     5	 1 ;       CG321      CG321
    4    18	 1 ;       CG321       HGA2
    4    19	 1 ;       CG321       HGA2
    5     6	 1 ;       CG321      CG321
    5    20	 1 ;       CG321       HGA2
    5    21	 1 ;       CG321       HGA2
    6    10	 1 ;       CG321      OG301
    6    22	 1 ;       CG321       HGA2
    6    23	 1 ;       CG321       HGA2
    7     8	 1 ;       CG301      CG331
    7     9	 1 ;       CG301      CG331
    7    78	 1 ;       CG301      OG301
    7    10	 1 ;       CG301      OG301
    8    24	 1 ;       CG331       HGA3
    8    25	 1 ;       CG331       HGA3
    8    26	 1 ;       CG331       HGA3
    9    27	 1 ;       CG331       HGA3
    9    28	 1 ;       CG331       HGA3
    9    29	 1 ;       CG331       HGA3
   30    65	 1 ;       NG2S1      CG2O1
   30   131	 1 ;       NG2S1       HGP1
   30    64	 1 ;       NG2S1      CG311
   31    32	 1 ;       CG311      CG2O2
   31    64	 1 ;       CG311      CG311
   31    92	 1 ;       CG311       HGA1
   31    78	 1 ;       CG311      OG301
   32    79	 1 ;       CG2O2      OG2D1
   32    80	 1 ;       CG2O2      OG302
   33    34	 1 ;       CG311      CG321
   33    52	 1 ;       CG311      CG2D1
   33    93	 1 ;       CG311       HGA1
   33    80	 1 ;       CG311      OG302
   34    35	 1 ;       CG321      CG301
   34    94	 1 ;       CG321       HGA2
   34    95	 1 ;       CG321       HGA2
   35    36	 1 ;       CG301      CG311
   35    54	 1 ;       CG301      CG301
   35    81	 1 ;       CG301      OG311
   36    44	 1 ;       CG311      CG311
   36    82	 1 ;       CG311      OG302
   36    97	 1 ;       CG311       HGA1
   37    38	 1 ;       CG2O2     CG2R61
   37    83	 1 ;       CG2O2      OG2D1
   37    82	 1 ;       CG2O2      OG302
   38    39	 1 ;      CG2R61     CG2R61
   38    43	 1 ;      CG2R61     CG2R61
   39    40	 1 ;      CG2R61     CG2R61
   39    98	 1 ;      CG2R61      HGR61
   40    41	 1 ;      CG2R61     CG2R61
   40    99	 1 ;      CG2R61      HGR61
   41    42	 1 ;      CG2R61     CG2R61
   41   100	 1 ;      CG2R61      HGR61
   42    43	 1 ;      CG2R61     CG2R61
   42   101	 1 ;      CG2R61      HGR61
   43   102	 1 ;      CG2R61      HGR61
   44    45	 1 ;       CG311      CG301
   44    61	 1 ;       CG311     CG3RC1
   44   103	 1 ;       CG311       HGA1
   45    46	 1 ;       CG301      CG331
   45    47	 1 ;       CG301      CG2O5
   45    57	 1 ;       CG301      CG311
   46   104	 1 ;       CG331       HGA3
   46   105	 1 ;       CG331       HGA3
   46   106	 1 ;       CG331       HGA3
   47    48	 1 ;       CG2O5      CG311
   47    84	 1 ;       CG2O5      OG2D3
   48    51	 1 ;       CG311      CG2D1
   48    85	 1 ;       CG311      OG302
   48   107	 1 ;       CG311       HGA1
   49    50	 1 ;       CG2O2      CG331
   49    86	 1 ;       CG2O2      OG2D1
   49    85	 1 ;       CG2O2      OG302
   50   108	 1 ;       CG331       HGA3
   50   109	 1 ;       CG331       HGA3
   50   110	 1 ;       CG331       HGA3
   51    52	 1 ;       CG2D1      CG2D1
   51    54	 1 ;       CG2D1      CG301
   52    53	 1 ;       CG2D1      CG331
   53   111	 1 ;       CG331       HGA3
   53   112	 1 ;       CG331       HGA3
   53   113	 1 ;       CG331       HGA3
   54    55	 1 ;       CG301      CG331
   54    56	 1 ;       CG301      CG331
   55   114	 1 ;       CG331       HGA3
   55   115	 1 ;       CG331       HGA3
   55   116	 1 ;       CG331       HGA3
   56   117	 1 ;       CG331       HGA3
   56   118	 1 ;       CG331       HGA3
   56   119	 1 ;       CG331       HGA3
   57    58	 1 ;       CG311      CG321
   57    87	 1 ;       CG311      OG311
   57   120	 1 ;       CG311       HGA1
   58    59	 1 ;       CG321     CG3RC1
   58   122	 1 ;       CG321       HGA2
   58   123	 1 ;       CG321       HGA2
   59    61	 1 ;      CG3RC1     CG3RC1
   59    88	 1 ;      CG3RC1     OG3C51
   59   124	 1 ;      CG3RC1       HGA1
   60    61	 1 ;      CG3C41     CG3RC1
   60   125	 1 ;      CG3C41       HGA2
   60   126	 1 ;      CG3C41       HGA2
   60    88	 1 ;      CG3C41     OG3C51
   61    89	 1 ;      CG3RC1      OG302
   62    63	 1 ;       CG2O2      CG331
   62    90	 1 ;       CG2O2      OG2D1
   62    89	 1 ;       CG2O2      OG302
   63   127	 1 ;       CG331       HGA3
   63   128	 1 ;       CG331       HGA3
   63   129	 1 ;       CG331       HGA3
   64    72	 1 ;       CG311     CG2R61
   64   130	 1 ;       CG311       HGA1
   65    66	 1 ;       CG2O1     CG2R61
   65    91	 1 ;       CG2O1      OG2D1
   66    67	 1 ;      CG2R61     CG2R61
   66    71	 1 ;      CG2R61     CG2R61
   67    68	 1 ;      CG2R61     CG2R61
   67   132	 1 ;      CG2R61      HGR61
   68    69	 1 ;      CG2R61     CG2R61
   68   133	 1 ;      CG2R61      HGR61
   69    70	 1 ;      CG2R61     CG2R61
   69   134	 1 ;      CG2R61      HGR61
   70    71	 1 ;      CG2R61     CG2R61
   70   135	 1 ;      CG2R61      HGR61
   71   136	 1 ;      CG2R61      HGR61
   72    73	 1 ;      CG2R61     CG2R61
   72    77	 1 ;      CG2R61     CG2R61
   73    74	 1 ;      CG2R61     CG2R61
   73   137	 1 ;      CG2R61      HGR61
   74    75	 1 ;      CG2R61     CG2R61
   74   138	 1 ;      CG2R61      HGR61
   75    76	 1 ;      CG2R61     CG2R61
   75   139	 1 ;      CG2R61      HGR61
   76    77	 1 ;      CG2R61     CG2R61
   76   140	 1 ;      CG2R61      HGR61
   77   141	 1 ;      CG2R61      HGR61
   81    96	 1 ;       OG311       HGP1
   87   121	 1 ;       OG311       HGP1

[ pairs ]
;	ai	  aj funct			  c0			c1			  c2			c3
    1     4	 1
    1    16	 1
    1    17	 1
    2     5	 1
    2    18	 1
    2    19	 1
    3    11	 1
    3    12	 1
    3    13	 1
    3     6	 1
    3    20	 1
    3    21	 1
    4    14	 1
    4    15	 1
    4    10	 1
    4    22	 1
    4    23	 1
    5    16	 1
    5    17	 1
    5     7	 1
    6    18	 1
    6    19	 1
    6     8	 1
    6     9	 1
    6    78	 1
    7    22	 1
    7    23	 1
    7    32	 1
    7    64	 1
    7    92	 1
    8    27	 1
    8    28	 1
    8    29	 1
    8    31	 1
    9    24	 1
    9    25	 1
    9    26	 1
    9    31	 1
   10    20	 1
   10    21	 1
   10    24	 1
   10    25	 1
   10    26	 1
   10    27	 1
   10    28	 1
   10    29	 1
   10    31	 1
   11    14	 1
   11    15	 1
   12    14	 1
   12    15	 1
   13    14	 1
   13    15	 1
   14    16	 1
   14    17	 1
   15    16	 1
   15    17	 1
   16    18	 1
   16    19	 1
   17    18	 1
   17    19	 1
   18    20	 1
   18    21	 1
   19    20	 1
   19    21	 1
   20    22	 1
   20    23	 1
   21    22	 1
   21    23	 1
   24    78	 1
   25    78	 1
   26    78	 1
   27    78	 1
   28    78	 1
   29    78	 1
   30    32	 1
   30    92	 1
   30    78	 1
   30    73	 1
   30    77	 1
   30    67	 1
   30    71	 1
   31    65	 1
   31   131	 1
   31    33	 1
   31    73	 1
   31    77	 1
   32    72	 1
   32   130	 1
   32    34	 1
   32    52	 1
   32    93	 1
   33    79	 1
   33    36	 1
   33    54	 1
   33    81	 1
   33    48	 1
   33   111	 1
   33   112	 1
   33   113	 1
   34    51	 1
   34    53	 1
   34    44	 1
   34    82	 1
   34    97	 1
   34    55	 1
   34    56	 1
   34    96	 1
   35    52	 1
   35    93	 1
   35    80	 1
   35    45	 1
   35    61	 1
   35   103	 1
   35    37	 1
   35    48	 1
   35   114	 1
   35   115	 1
   35   116	 1
   35   117	 1
   35   118	 1
   35   119	 1
   36    94	 1
   36    95	 1
   36    51	 1
   36    55	 1
   36    56	 1
   36    96	 1
   36    38	 1
   36    83	 1
   36    46	 1
   36    47	 1
   36    57	 1
   36    59	 1
   36    60	 1
   36    89	 1
   37    44	 1
   37    97	 1
   37    40	 1
   37    98	 1
   37    42	 1
   37   102	 1
   38    41	 1
   38    99	 1
   38   101	 1
   39    83	 1
   39    82	 1
   39    42	 1
   39   102	 1
   39   100	 1
   40    43	 1
   40   101	 1
   41    98	 1
   41   102	 1
   42    99	 1
   43    83	 1
   43    82	 1
   43    98	 1
   43   100	 1
   44    54	 1
   44    81	 1
   44   104	 1
   44   105	 1
   44   106	 1
   44    48	 1
   44    84	 1
   44    58	 1
   44    87	 1
   44   120	 1
   44    88	 1
   44   124	 1
   44   125	 1
   44   126	 1
   44    62	 1
   45    82	 1
   45    97	 1
   45    59	 1
   45    60	 1
   45    89	 1
   45    51	 1
   45    85	 1
   45   107	 1
   45   122	 1
   45   123	 1
   45   121	 1
   46    61	 1
   46   103	 1
   46    48	 1
   46    84	 1
   46    58	 1
   46    87	 1
   46   120	 1
   47    61	 1
   47   103	 1
   47   104	 1
   47   105	 1
   47   106	 1
   47    58	 1
   47    87	 1
   47   120	 1
   47    52	 1
   47    54	 1
   47    49	 1
   48    57	 1
   48    50	 1
   48    86	 1
   48    53	 1
   48    55	 1
   48    56	 1
   49    51	 1
   49   107	 1
   51    93	 1
   51    80	 1
   51    81	 1
   51    84	 1
   51   111	 1
   51   112	 1
   51   113	 1
   51   114	 1
   51   115	 1
   51   116	 1
   51   117	 1
   51   118	 1
   51   119	 1
   52    94	 1
   52    95	 1
   52    85	 1
   52   107	 1
   52    55	 1
   52    56	 1
   53    93	 1
   53    80	 1
   53    54	 1
   54    94	 1
   54    95	 1
   54    82	 1
   54    97	 1
   54    96	 1
   54    85	 1
   54   107	 1
   55    81	 1
   55   117	 1
   55   118	 1
   55   119	 1
   56    81	 1
   56   114	 1
   56   115	 1
   56   116	 1
   57    61	 1
   57   103	 1
   57   104	 1
   57   105	 1
   57   106	 1
   57    84	 1
   57    88	 1
   57   124	 1
   58   121	 1
   58    60	 1
   58    89	 1
   59   103	 1
   59    87	 1
   59   120	 1
   59   125	 1
   59   126	 1
   59    62	 1
   60   103	 1
   60   124	 1
   60    62	 1
   61    82	 1
   61    97	 1
   61   122	 1
   61   123	 1
   61    63	 1
   61    90	 1
   64    66	 1
   64    91	 1
   64    79	 1
   64    80	 1
   64    74	 1
   64   137	 1
   64    76	 1
   64   141	 1
   65    72	 1
   65   130	 1
   65    68	 1
   65   132	 1
   65    70	 1
   65   136	 1
   66   131	 1
   66    69	 1
   66   133	 1
   66   135	 1
   67    91	 1
   67    70	 1
   67   136	 1
   67   134	 1
   68    71	 1
   68   135	 1
   69   132	 1
   69   136	 1
   70   133	 1
   71    91	 1
   71   132	 1
   71   134	 1
   72   131	 1
   72    92	 1
   72    78	 1
   72    75	 1
   72   138	 1
   72   140	 1
   73   130	 1
   73    76	 1
   73   141	 1
   73   139	 1
   74    77	 1
   74   140	 1
   75   137	 1
   75   141	 1
   76   138	 1
   77   130	 1
   77   137	 1
   77   139	 1
   78    79	 1
   78    80	 1
   78   130	 1
   79    92	 1
   80    92	 1
   80    94	 1
   80    95	 1
   81    94	 1
   81    95	 1
   81    82	 1
   81    97	 1
   82   103	 1
   84    85	 1
   84   107	 1
   85   108	 1
   85   109	 1
   85   110	 1
   86   108	 1
   86   109	 1
   86   110	 1
   87   122	 1
   87   123	 1
   88   122	 1
   88   123	 1
   88    89	 1
   89   103	 1
   89   124	 1
   89   125	 1
   89   126	 1
   89   127	 1
   89   128	 1
   89   129	 1
   90   127	 1
   90   128	 1
   90   129	 1
   91   131	 1
   92   130	 1
   93    94	 1
   93    95	 1
   97   103	 1
   98    99	 1
   99   100	 1
  100   101	 1
  101   102	 1
  120   122	 1
  120   123	 1
  120   121	 1
  122   124	 1
  123   124	 1
  130   131	 1
  132   133	 1
  133   134	 1
  134   135	 1
  135   136	 1
  137   138	 1
  138   139	 1
  139   140	 1
  140   141	 1

[ angles ]
;	ai	  aj	ak funct			c0			  c1			c2			  c3
    2     1    11	5 ;      CG321      CG331       HGA3
    2     1    12	5 ;      CG321      CG331       HGA3
    2     1    13	5 ;      CG321      CG331       HGA3
   11     1    12	5 ;       HGA3      CG331       HGA3
   11     1    13	5 ;       HGA3      CG331       HGA3
   12     1    13	5 ;       HGA3      CG331       HGA3
    1     2     3	5 ;      CG331      CG321      CG321
    1     2    14	5 ;      CG331      CG321       HGA2
    1     2    15	5 ;      CG331      CG321       HGA2
    3     2    14	5 ;      CG321      CG321       HGA2
    3     2    15	5 ;      CG321      CG321       HGA2
   14     2    15	5 ;       HGA2      CG321       HGA2
    2     3     4	5 ;      CG321      CG321      CG321
    2     3    16	5 ;      CG321      CG321       HGA2
    2     3    17	5 ;      CG321      CG321       HGA2
    4     3    16	5 ;      CG321      CG321       HGA2
    4     3    17	5 ;      CG321      CG321       HGA2
   16     3    17	5 ;       HGA2      CG321       HGA2
    3     4     5	5 ;      CG321      CG321      CG321
    3     4    18	5 ;      CG321      CG321       HGA2
    3     4    19	5 ;      CG321      CG321       HGA2
    5     4    18	5 ;      CG321      CG321       HGA2
    5     4    19	5 ;      CG321      CG321       HGA2
   18     4    19	5 ;       HGA2      CG321       HGA2
    4     5     6	5 ;      CG321      CG321      CG321
    4     5    20	5 ;      CG321      CG321       HGA2
    4     5    21	5 ;      CG321      CG321       HGA2
    6     5    20	5 ;      CG321      CG321       HGA2
    6     5    21	5 ;      CG321      CG321       HGA2
   20     5    21	5 ;       HGA2      CG321       HGA2
    5     6    10	5 ;      CG321      CG321      OG301
    5     6    22	5 ;      CG321      CG321       HGA2
    5     6    23	5 ;      CG321      CG321       HGA2
   10     6    22	5 ;      OG301      CG321       HGA2
   10     6    23	5 ;      OG301      CG321       HGA2
   22     6    23	5 ;       HGA2      CG321       HGA2
    8     7     9	5 ;      CG331      CG301      CG331
    8     7    78	5 ;      CG331      CG301      OG301
    8     7    10	5 ;      CG331      CG301      OG301
    9     7    78	5 ;      CG331      CG301      OG301
    9     7    10	5 ;      CG331      CG301      OG301
   78     7    10	5 ;      OG301      CG301      OG301
    7     8    24	5 ;      CG301      CG331       HGA3
    7     8    25	5 ;      CG301      CG331       HGA3
    7     8    26	5 ;      CG301      CG331       HGA3
   24     8    25	5 ;       HGA3      CG331       HGA3
   24     8    26	5 ;       HGA3      CG331       HGA3
   25     8    26	5 ;       HGA3      CG331       HGA3
    7     9    27	5 ;      CG301      CG331       HGA3
    7     9    28	5 ;      CG301      CG331       HGA3
    7     9    29	5 ;      CG301      CG331       HGA3
   27     9    28	5 ;       HGA3      CG331       HGA3
   27     9    29	5 ;       HGA3      CG331       HGA3
   28     9    29	5 ;       HGA3      CG331       HGA3
    6    10     7	5 ;      CG321      OG301      CG301
   65    30   131	5 ;      CG2O1      NG2S1       HGP1
   65    30    64	5 ;      CG2O1      NG2S1      CG311
  131    30    64	5 ;       HGP1      NG2S1      CG311
   32    31    64	5 ;      CG2O2      CG311      CG311
   32    31    92	5 ;      CG2O2      CG311       HGA1
   32    31    78	5 ;      CG2O2      CG311      OG301
   64    31    92	5 ;      CG311      CG311       HGA1
   64    31    78	5 ;      CG311      CG311      OG301
   92    31    78	5 ;       HGA1      CG311      OG301
   31    32    79	5 ;      CG311      CG2O2      OG2D1
   31    32    80	5 ;      CG311      CG2O2      OG302
   79    32    80	5 ;      OG2D1      CG2O2      OG302
   34    33    52	5 ;      CG321      CG311      CG2D1
   34    33    93	5 ;      CG321      CG311       HGA1
   34    33    80	5 ;      CG321      CG311      OG302
   52    33    93	5 ;      CG2D1      CG311       HGA1
   52    33    80	5 ;      CG2D1      CG311      OG302
   93    33    80	5 ;       HGA1      CG311      OG302
   33    34    35	5 ;      CG311      CG321      CG301
   33    34    94	5 ;      CG311      CG321       HGA2
   33    34    95	5 ;      CG311      CG321       HGA2
   35    34    94	5 ;      CG301      CG321       HGA2
   35    34    95	5 ;      CG301      CG321       HGA2
   94    34    95	5 ;       HGA2      CG321       HGA2
   34    35    36	5 ;      CG321      CG301      CG311
   34    35    54	5 ;      CG321      CG301      CG301
   34    35    81	5 ;      CG321      CG301      OG311
   36    35    54	5 ;      CG311      CG301      CG301
   36    35    81	5 ;      CG311      CG301      OG311
   54    35    81	5 ;      CG301      CG301      OG311
   35    36    44	5 ;      CG301      CG311      CG311
   35    36    82	5 ;      CG301      CG311      OG302
   35    36    97	5 ;      CG301      CG311       HGA1
   44    36    82	5 ;      CG311      CG311      OG302
   44    36    97	5 ;      CG311      CG311       HGA1
   82    36    97	5 ;      OG302      CG311       HGA1
   38    37    83	5 ;     CG2R61      CG2O2      OG2D1
   38    37    82	5 ;     CG2R61      CG2O2      OG302
   83    37    82	5 ;      OG2D1      CG2O2      OG302
   37    38    39	5 ;      CG2O2     CG2R61     CG2R61
   37    38    43	5 ;      CG2O2     CG2R61     CG2R61
   39    38    43	5 ;     CG2R61     CG2R61     CG2R61
   38    39    40	5 ;     CG2R61     CG2R61     CG2R61
   38    39    98	5 ;     CG2R61     CG2R61      HGR61
   40    39    98	5 ;     CG2R61     CG2R61      HGR61
   39    40    41	5 ;     CG2R61     CG2R61     CG2R61
   39    40    99	5 ;     CG2R61     CG2R61      HGR61
   41    40    99	5 ;     CG2R61     CG2R61      HGR61
   40    41    42	5 ;     CG2R61     CG2R61     CG2R61
   40    41   100	5 ;     CG2R61     CG2R61      HGR61
   42    41   100	5 ;     CG2R61     CG2R61      HGR61
   41    42    43	5 ;     CG2R61     CG2R61     CG2R61
   41    42   101	5 ;     CG2R61     CG2R61      HGR61
   43    42   101	5 ;     CG2R61     CG2R61      HGR61
   38    43    42	5 ;     CG2R61     CG2R61     CG2R61
   38    43   102	5 ;     CG2R61     CG2R61      HGR61
   42    43   102	5 ;     CG2R61     CG2R61      HGR61
   36    44    45	5 ;      CG311      CG311      CG301
   36    44    61	5 ;      CG311      CG311     CG3RC1
   36    44   103	5 ;      CG311      CG311       HGA1
   45    44    61	5 ;      CG301      CG311     CG3RC1
   45    44   103	5 ;      CG301      CG311       HGA1
   61    44   103	5 ;     CG3RC1      CG311       HGA1
   44    45    46	5 ;      CG311      CG301      CG331
   44    45    47	5 ;      CG311      CG301      CG2O5
   44    45    57	5 ;      CG311      CG301      CG311
   46    45    47	5 ;      CG331      CG301      CG2O5
   46    45    57	5 ;      CG331      CG301      CG311
   47    45    57	5 ;      CG2O5      CG301      CG311
   45    46   104	5 ;      CG301      CG331       HGA3
   45    46   105	5 ;      CG301      CG331       HGA3
   45    46   106	5 ;      CG301      CG331       HGA3
  104    46   105	5 ;       HGA3      CG331       HGA3
  104    46   106	5 ;       HGA3      CG331       HGA3
  105    46   106	5 ;       HGA3      CG331       HGA3
   45    47    48	5 ;      CG301      CG2O5      CG311
   45    47    84	5 ;      CG301      CG2O5      OG2D3
   48    47    84	5 ;      CG311      CG2O5      OG2D3
   47    48    51	5 ;      CG2O5      CG311      CG2D1
   47    48    85	5 ;      CG2O5      CG311      OG302
   47    48   107	5 ;      CG2O5      CG311       HGA1
   51    48    85	5 ;      CG2D1      CG311      OG302
   51    48   107	5 ;      CG2D1      CG311       HGA1
   85    48   107	5 ;      OG302      CG311       HGA1
   50    49    86	5 ;      CG331      CG2O2      OG2D1
   50    49    85	5 ;      CG331      CG2O2      OG302
   86    49    85	5 ;      OG2D1      CG2O2      OG302
   49    50   108	5 ;      CG2O2      CG331       HGA3
   49    50   109	5 ;      CG2O2      CG331       HGA3
   49    50   110	5 ;      CG2O2      CG331       HGA3
  108    50   109	5 ;       HGA3      CG331       HGA3
  108    50   110	5 ;       HGA3      CG331       HGA3
  109    50   110	5 ;       HGA3      CG331       HGA3
   48    51    52	5 ;      CG311      CG2D1      CG2D1
   48    51    54	5 ;      CG311      CG2D1      CG301
   52    51    54	5 ;      CG2D1      CG2D1      CG301
   33    52    51	5 ;      CG311      CG2D1      CG2D1
   33    52    53	5 ;      CG311      CG2D1      CG331
   51    52    53	5 ;      CG2D1      CG2D1      CG331
   52    53   111	5 ;      CG2D1      CG331       HGA3
   52    53   112	5 ;      CG2D1      CG331       HGA3
   52    53   113	5 ;      CG2D1      CG331       HGA3
  111    53   112	5 ;       HGA3      CG331       HGA3
  111    53   113	5 ;       HGA3      CG331       HGA3
  112    53   113	5 ;       HGA3      CG331       HGA3
   35    54    51	5 ;      CG301      CG301      CG2D1
   35    54    55	5 ;      CG301      CG301      CG331
   35    54    56	5 ;      CG301      CG301      CG331
   51    54    55	5 ;      CG2D1      CG301      CG331
   51    54    56	5 ;      CG2D1      CG301      CG331
   55    54    56	5 ;      CG331      CG301      CG331
   54    55   114	5 ;      CG301      CG331       HGA3
   54    55   115	5 ;      CG301      CG331       HGA3
   54    55   116	5 ;      CG301      CG331       HGA3
  114    55   115	5 ;       HGA3      CG331       HGA3
  114    55   116	5 ;       HGA3      CG331       HGA3
  115    55   116	5 ;       HGA3      CG331       HGA3
   54    56   117	5 ;      CG301      CG331       HGA3
   54    56   118	5 ;      CG301      CG331       HGA3
   54    56   119	5 ;      CG301      CG331       HGA3
  117    56   118	5 ;       HGA3      CG331       HGA3
  117    56   119	5 ;       HGA3      CG331       HGA3
  118    56   119	5 ;       HGA3      CG331       HGA3
   45    57    58	5 ;      CG301      CG311      CG321
   45    57    87	5 ;      CG301      CG311      OG311
   45    57   120	5 ;      CG301      CG311       HGA1
   58    57    87	5 ;      CG321      CG311      OG311
   58    57   120	5 ;      CG321      CG311       HGA1
   87    57   120	5 ;      OG311      CG311       HGA1
   57    58    59	5 ;      CG311      CG321     CG3RC1
   57    58   122	5 ;      CG311      CG321       HGA2
   57    58   123	5 ;      CG311      CG321       HGA2
   59    58   122	5 ;     CG3RC1      CG321       HGA2
   59    58   123	5 ;     CG3RC1      CG321       HGA2
  122    58   123	5 ;       HGA2      CG321       HGA2
   58    59    61	5 ;      CG321     CG3RC1     CG3RC1
   58    59    88	5 ;      CG321     CG3RC1     OG3C51
   58    59   124	5 ;      CG321     CG3RC1       HGA1
   61    59    88	5 ;     CG3RC1     CG3RC1     OG3C51
   61    59   124	5 ;     CG3RC1     CG3RC1       HGA1
   88    59   124	5 ;     OG3C51     CG3RC1       HGA1
   61    60   125	5 ;     CG3RC1     CG3C41       HGA2
   61    60   126	5 ;     CG3RC1     CG3C41       HGA2
   61    60    88	5 ;     CG3RC1     CG3C41     OG3C51
  125    60   126	5 ;       HGA2     CG3C41       HGA2
  125    60    88	5 ;       HGA2     CG3C41     OG3C51
  126    60    88	5 ;       HGA2     CG3C41     OG3C51
   44    61    59	5 ;      CG311     CG3RC1     CG3RC1
   44    61    60	5 ;      CG311     CG3RC1     CG3C41
   44    61    89	5 ;      CG311     CG3RC1      OG302
   59    61    60	5 ;     CG3RC1     CG3RC1     CG3C41
   59    61    89	5 ;     CG3RC1     CG3RC1      OG302
   60    61    89	5 ;     CG3C41     CG3RC1      OG302
   63    62    90	5 ;      CG331      CG2O2      OG2D1
   63    62    89	5 ;      CG331      CG2O2      OG302
   90    62    89	5 ;      OG2D1      CG2O2      OG302
   62    63   127	5 ;      CG2O2      CG331       HGA3
   62    63   128	5 ;      CG2O2      CG331       HGA3
   62    63   129	5 ;      CG2O2      CG331       HGA3
  127    63   128	5 ;       HGA3      CG331       HGA3
  127    63   129	5 ;       HGA3      CG331       HGA3
  128    63   129	5 ;       HGA3      CG331       HGA3
   31    64    30	5 ;      CG311      CG311      NG2S1
   31    64    72	5 ;      CG311      CG311     CG2R61
   31    64   130	5 ;      CG311      CG311       HGA1
   30    64    72	5 ;      NG2S1      CG311     CG2R61
   30    64   130	5 ;      NG2S1      CG311       HGA1
   72    64   130	5 ;     CG2R61      CG311       HGA1
   30    65    66	5 ;      NG2S1      CG2O1     CG2R61
   30    65    91	5 ;      NG2S1      CG2O1      OG2D1
   66    65    91	5 ;     CG2R61      CG2O1      OG2D1
   65    66    67	5 ;      CG2O1     CG2R61     CG2R61
   65    66    71	5 ;      CG2O1     CG2R61     CG2R61
   67    66    71	5 ;     CG2R61     CG2R61     CG2R61
   66    67    68	5 ;     CG2R61     CG2R61     CG2R61
   66    67   132	5 ;     CG2R61     CG2R61      HGR61
   68    67   132	5 ;     CG2R61     CG2R61      HGR61
   67    68    69	5 ;     CG2R61     CG2R61     CG2R61
   67    68   133	5 ;     CG2R61     CG2R61      HGR61
   69    68   133	5 ;     CG2R61     CG2R61      HGR61
   68    69    70	5 ;     CG2R61     CG2R61     CG2R61
   68    69   134	5 ;     CG2R61     CG2R61      HGR61
   70    69   134	5 ;     CG2R61     CG2R61      HGR61
   69    70    71	5 ;     CG2R61     CG2R61     CG2R61
   69    70   135	5 ;     CG2R61     CG2R61      HGR61
   71    70   135	5 ;     CG2R61     CG2R61      HGR61
   66    71    70	5 ;     CG2R61     CG2R61     CG2R61
   66    71   136	5 ;     CG2R61     CG2R61      HGR61
   70    71   136	5 ;     CG2R61     CG2R61      HGR61
   64    72    73	5 ;      CG311     CG2R61     CG2R61
   64    72    77	5 ;      CG311     CG2R61     CG2R61
   73    72    77	5 ;     CG2R61     CG2R61     CG2R61
   72    73    74	5 ;     CG2R61     CG2R61     CG2R61
   72    73   137	5 ;     CG2R61     CG2R61      HGR61
   74    73   137	5 ;     CG2R61     CG2R61      HGR61
   73    74    75	5 ;     CG2R61     CG2R61     CG2R61
   73    74   138	5 ;     CG2R61     CG2R61      HGR61
   75    74   138	5 ;     CG2R61     CG2R61      HGR61
   74    75    76	5 ;     CG2R61     CG2R61     CG2R61
   74    75   139	5 ;     CG2R61     CG2R61      HGR61
   76    75   139	5 ;     CG2R61     CG2R61      HGR61
   75    76    77	5 ;     CG2R61     CG2R61     CG2R61
   75    76   140	5 ;     CG2R61     CG2R61      HGR61
   77    76   140	5 ;     CG2R61     CG2R61      HGR61
   72    77    76	5 ;     CG2R61     CG2R61     CG2R61
   72    77   141	5 ;     CG2R61     CG2R61      HGR61
   76    77   141	5 ;     CG2R61     CG2R61      HGR61
    7    78    31	5 ;      CG301      OG301      CG311
   32    80    33	5 ;      CG2O2      OG302      CG311
   35    81    96	5 ;      CG301      OG311       HGP1
   36    82    37	5 ;      CG311      OG302      CG2O2
   48    85    49	5 ;      CG311      OG302      CG2O2
   57    87   121	5 ;      CG311      OG311       HGP1
   59    88    60	5 ;     CG3RC1     OG3C51     CG3C41
   61    89    62	5 ;     CG3RC1      OG302      CG2O2

[ dihedrals ]
;	ai	  aj	ak	  al funct			  c0			c1			  c2			c3			  c4			c5
   11     1     2     3	 9 ;       HGA3      CG331      CG321      CG321
   11     1     2    14	 9 ;       HGA3      CG331      CG321       HGA2
   11     1     2    15	 9 ;       HGA3      CG331      CG321       HGA2
   12     1     2     3	 9 ;       HGA3      CG331      CG321      CG321
   12     1     2    14	 9 ;       HGA3      CG331      CG321       HGA2
   12     1     2    15	 9 ;       HGA3      CG331      CG321       HGA2
   13     1     2     3	 9 ;       HGA3      CG331      CG321      CG321
   13     1     2    14	 9 ;       HGA3      CG331      CG321       HGA2
   13     1     2    15	 9 ;       HGA3      CG331      CG321       HGA2
    1     2     3     4	 9 ;      CG331      CG321      CG321      CG321
    1     2     3    16	 9 ;      CG331      CG321      CG321       HGA2
    1     2     3    17	 9 ;      CG331      CG321      CG321       HGA2
   14     2     3     4	 9 ;       HGA2      CG321      CG321      CG321
   14     2     3    16	 9 ;       HGA2      CG321      CG321       HGA2
   14     2     3    17	 9 ;       HGA2      CG321      CG321       HGA2
   15     2     3     4	 9 ;       HGA2      CG321      CG321      CG321
   15     2     3    16	 9 ;       HGA2      CG321      CG321       HGA2
   15     2     3    17	 9 ;       HGA2      CG321      CG321       HGA2
    2     3     4     5	 9 ;      CG321      CG321      CG321      CG321
    2     3     4    18	 9 ;      CG321      CG321      CG321       HGA2
    2     3     4    19	 9 ;      CG321      CG321      CG321       HGA2
   16     3     4     5	 9 ;       HGA2      CG321      CG321      CG321
   16     3     4    18	 9 ;       HGA2      CG321      CG321       HGA2
   16     3     4    19	 9 ;       HGA2      CG321      CG321       HGA2
   17     3     4     5	 9 ;       HGA2      CG321      CG321      CG321
   17     3     4    18	 9 ;       HGA2      CG321      CG321       HGA2
   17     3     4    19	 9 ;       HGA2      CG321      CG321       HGA2
    3     4     5     6	 9 ;      CG321      CG321      CG321      CG321
    3     4     5    20	 9 ;      CG321      CG321      CG321       HGA2
    3     4     5    21	 9 ;      CG321      CG321      CG321       HGA2
   18     4     5     6	 9 ;       HGA2      CG321      CG321      CG321
   18     4     5    20	 9 ;       HGA2      CG321      CG321       HGA2
   18     4     5    21	 9 ;       HGA2      CG321      CG321       HGA2
   19     4     5     6	 9 ;       HGA2      CG321      CG321      CG321
   19     4     5    20	 9 ;       HGA2      CG321      CG321       HGA2
   19     4     5    21	 9 ;       HGA2      CG321      CG321       HGA2
    4     5     6    10	 9 ;      CG321      CG321      CG321      OG301
    4     5     6    22	 9 ;      CG321      CG321      CG321       HGA2
    4     5     6    23	 9 ;      CG321      CG321      CG321       HGA2
   20     5     6    10	 9 ;       HGA2      CG321      CG321      OG301
   20     5     6    22	 9 ;       HGA2      CG321      CG321       HGA2
   20     5     6    23	 9 ;       HGA2      CG321      CG321       HGA2
   21     5     6    10	 9 ;       HGA2      CG321      CG321      OG301
   21     5     6    22	 9 ;       HGA2      CG321      CG321       HGA2
   21     5     6    23	 9 ;       HGA2      CG321      CG321       HGA2
    5     6    10     7	 9 ;      CG321      CG321      OG301      CG301
   22     6    10     7	 9 ;       HGA2      CG321      OG301      CG301
   23     6    10     7	 9 ;       HGA2      CG321      OG301      CG301
    9     7     8    24	 9 ;      CG331      CG301      CG331       HGA3
    9     7     8    25	 9 ;      CG331      CG301      CG331       HGA3
    9     7     8    26	 9 ;      CG331      CG301      CG331       HGA3
   78     7     8    24	 9 ;      OG301      CG301      CG331       HGA3
   78     7     8    25	 9 ;      OG301      CG301      CG331       HGA3
   78     7     8    26	 9 ;      OG301      CG301      CG331       HGA3
   10     7     8    24	 9 ;      OG301      CG301      CG331       HGA3
   10     7     8    25	 9 ;      OG301      CG301      CG331       HGA3
   10     7     8    26	 9 ;      OG301      CG301      CG331       HGA3
    8     7     9    27	 9 ;      CG331      CG301      CG331       HGA3
    8     7     9    28	 9 ;      CG331      CG301      CG331       HGA3
    8     7     9    29	 9 ;      CG331      CG301      CG331       HGA3
   78     7     9    27	 9 ;      OG301      CG301      CG331       HGA3
   78     7     9    28	 9 ;      OG301      CG301      CG331       HGA3
   78     7     9    29	 9 ;      OG301      CG301      CG331       HGA3
   10     7     9    27	 9 ;      OG301      CG301      CG331       HGA3
   10     7     9    28	 9 ;      OG301      CG301      CG331       HGA3
   10     7     9    29	 9 ;      OG301      CG301      CG331       HGA3
    8     7    78    31	 9 ;      CG331      CG301      OG301      CG311
    9     7    78    31	 9 ;      CG331      CG301      OG301      CG311
   10     7    78    31	 9 ;      OG301      CG301      OG301      CG311
    8     7    10     6	 9 ;      CG331      CG301      OG301      CG321
    9     7    10     6	 9 ;      CG331      CG301      OG301      CG321
   78     7    10     6	 9 ;      OG301      CG301      OG301      CG321
  131    30    65    66	 9 ;       HGP1      NG2S1      CG2O1     CG2R61
  131    30    65    91	 9 ;       HGP1      NG2S1      CG2O1      OG2D1
   64    30    65    66	 9 ;      CG311      NG2S1      CG2O1     CG2R61
   64    30    65    91	 9 ;      CG311      NG2S1      CG2O1      OG2D1
   65    30    64    31	 9 ;      CG2O1      NG2S1      CG311      CG311
   65    30    64    72	 9 ;      CG2O1      NG2S1      CG311     CG2R61
   65    30    64   130	 9 ;      CG2O1      NG2S1      CG311       HGA1
  131    30    64    31	 9 ;       HGP1      NG2S1      CG311      CG311
  131    30    64    72	 9 ;       HGP1      NG2S1      CG311     CG2R61
  131    30    64   130	 9 ;       HGP1      NG2S1      CG311       HGA1
   64    31    32    79	 9 ;      CG311      CG311      CG2O2      OG2D1
   64    31    32    80	 9 ;      CG311      CG311      CG2O2      OG302
   92    31    32    79	 9 ;       HGA1      CG311      CG2O2      OG2D1
   92    31    32    80	 9 ;       HGA1      CG311      CG2O2      OG302
   78    31    32    79	 9 ;      OG301      CG311      CG2O2      OG2D1
   78    31    32    80	 9 ;      OG301      CG311      CG2O2      OG302
   32    31    64    30	 9 ;      CG2O2      CG311      CG311      NG2S1
   32    31    64    72	 9 ;      CG2O2      CG311      CG311     CG2R61
   32    31    64   130	 9 ;      CG2O2      CG311      CG311       HGA1
   92    31    64    30	 9 ;       HGA1      CG311      CG311      NG2S1
   92    31    64    72	 9 ;       HGA1      CG311      CG311     CG2R61
   92    31    64   130	 9 ;       HGA1      CG311      CG311       HGA1
   78    31    64    30	 9 ;      OG301      CG311      CG311      NG2S1
   78    31    64    72	 9 ;      OG301      CG311      CG311     CG2R61
   78    31    64   130	 9 ;      OG301      CG311      CG311       HGA1
   32    31    78     7	 9 ;      CG2O2      CG311      OG301      CG301
   64    31    78     7	 9 ;      CG311      CG311      OG301      CG301
   92    31    78     7	 9 ;       HGA1      CG311      OG301      CG301
   31    32    80    33	 9 ;      CG311      CG2O2      OG302      CG311
   79    32    80    33	 9 ;      OG2D1      CG2O2      OG302      CG311
   52    33    34    35	 9 ;      CG2D1      CG311      CG321      CG301
   52    33    34    94	 9 ;      CG2D1      CG311      CG321       HGA2
   52    33    34    95	 9 ;      CG2D1      CG311      CG321       HGA2
   93    33    34    35	 9 ;       HGA1      CG311      CG321      CG301
   93    33    34    94	 9 ;       HGA1      CG311      CG321       HGA2
   93    33    34    95	 9 ;       HGA1      CG311      CG321       HGA2
   80    33    34    35	 9 ;      OG302      CG311      CG321      CG301
   80    33    34    94	 9 ;      OG302      CG311      CG321       HGA2
   80    33    34    95	 9 ;      OG302      CG311      CG321       HGA2
   34    33    52    51	 9 ;      CG321      CG311      CG2D1      CG2D1
   34    33    52    53	 9 ;      CG321      CG311      CG2D1      CG331
   93    33    52    51	 9 ;       HGA1      CG311      CG2D1      CG2D1
   93    33    52    53	 9 ;       HGA1      CG311      CG2D1      CG331
   80    33    52    51	 9 ;      OG302      CG311      CG2D1      CG2D1
   80    33    52    53	 9 ;      OG302      CG311      CG2D1      CG331
   34    33    80    32	 9 ;      CG321      CG311      OG302      CG2O2
   52    33    80    32	 9 ;      CG2D1      CG311      OG302      CG2O2
   93    33    80    32	 9 ;       HGA1      CG311      OG302      CG2O2
   33    34    35    36	 9 ;      CG311      CG321      CG301      CG311
   33    34    35    54	 9 ;      CG311      CG321      CG301      CG301
   33    34    35    81	 9 ;      CG311      CG321      CG301      OG311
   94    34    35    36	 9 ;       HGA2      CG321      CG301      CG311
   94    34    35    54	 9 ;       HGA2      CG321      CG301      CG301
   94    34    35    81	 9 ;       HGA2      CG321      CG301      OG311
   95    34    35    36	 9 ;       HGA2      CG321      CG301      CG311
   95    34    35    54	 9 ;       HGA2      CG321      CG301      CG301
   95    34    35    81	 9 ;       HGA2      CG321      CG301      OG311
   34    35    36    44	 9 ;      CG321      CG301      CG311      CG311
   34    35    36    82	 9 ;      CG321      CG301      CG311      OG302
   34    35    36    97	 9 ;      CG321      CG301      CG311       HGA1
   54    35    36    44	 9 ;      CG301      CG301      CG311      CG311
   54    35    36    82	 9 ;      CG301      CG301      CG311      OG302
   54    35    36    97	 9 ;      CG301      CG301      CG311       HGA1
   81    35    36    44	 9 ;      OG311      CG301      CG311      CG311
   81    35    36    82	 9 ;      OG311      CG301      CG311      OG302
   81    35    36    97	 9 ;      OG311      CG301      CG311       HGA1
   34    35    54    51	 9 ;      CG321      CG301      CG301      CG2D1
   34    35    54    55	 9 ;      CG321      CG301      CG301      CG331
   34    35    54    56	 9 ;      CG321      CG301      CG301      CG331
   36    35    54    51	 9 ;      CG311      CG301      CG301      CG2D1
   36    35    54    55	 9 ;      CG311      CG301      CG301      CG331
   36    35    54    56	 9 ;      CG311      CG301      CG301      CG331
   81    35    54    51	 9 ;      OG311      CG301      CG301      CG2D1
   81    35    54    55	 9 ;      OG311      CG301      CG301      CG331
   81    35    54    56	 9 ;      OG311      CG301      CG301      CG331
   34    35    81    96	 9 ;      CG321      CG301      OG311       HGP1
   36    35    81    96	 9 ;      CG311      CG301      OG311       HGP1
   54    35    81    96	 9 ;      CG301      CG301      OG311       HGP1
   35    36    44    45	 9 ;      CG301      CG311      CG311      CG301
   35    36    44    61	 9 ;      CG301      CG311      CG311     CG3RC1
   35    36    44   103	 9 ;      CG301      CG311      CG311       HGA1
   82    36    44    45	 9 ;      OG302      CG311      CG311      CG301
   82    36    44    61	 9 ;      OG302      CG311      CG311     CG3RC1
   82    36    44   103	 9 ;      OG302      CG311      CG311       HGA1
   97    36    44    45	 9 ;       HGA1      CG311      CG311      CG301
   97    36    44    61	 9 ;       HGA1      CG311      CG311     CG3RC1
   97    36    44   103	 9 ;       HGA1      CG311      CG311       HGA1
   35    36    82    37	 9 ;      CG301      CG311      OG302      CG2O2
   44    36    82    37	 9 ;      CG311      CG311      OG302      CG2O2
   97    36    82    37	 9 ;       HGA1      CG311      OG302      CG2O2
   83    37    38    39	 9 ;      OG2D1      CG2O2     CG2R61     CG2R61
   83    37    38    43	 9 ;      OG2D1      CG2O2     CG2R61     CG2R61
   82    37    38    39	 9 ;      OG302      CG2O2     CG2R61     CG2R61
   82    37    38    43	 9 ;      OG302      CG2O2     CG2R61     CG2R61
   38    37    82    36	 9 ;     CG2R61      CG2O2      OG302      CG311
   83    37    82    36	 9 ;      OG2D1      CG2O2      OG302      CG311
   37    38    39    40	 9 ;      CG2O2     CG2R61     CG2R61     CG2R61
   37    38    39    98	 9 ;      CG2O2     CG2R61     CG2R61      HGR61
   43    38    39    40	 9 ;     CG2R61     CG2R61     CG2R61     CG2R61
   43    38    39    98	 9 ;     CG2R61     CG2R61     CG2R61      HGR61
   37    38    43    42	 9 ;      CG2O2     CG2R61     CG2R61     CG2R61
   37    38    43   102	 9 ;      CG2O2     CG2R61     CG2R61      HGR61
   39    38    43    42	 9 ;     CG2R61     CG2R61     CG2R61     CG2R61
   39    38    43   102	 9 ;     CG2R61     CG2R61     CG2R61      HGR61
   38    39    40    41	 9 ;     CG2R61     CG2R61     CG2R61     CG2R61
   38    39    40    99	 9 ;     CG2R61     CG2R61     CG2R61      HGR61
   98    39    40    41	 9 ;      HGR61     CG2R61     CG2R61     CG2R61
   98    39    40    99	 9 ;      HGR61     CG2R61     CG2R61      HGR61
   39    40    41    42	 9 ;     CG2R61     CG2R61     CG2R61     CG2R61
   39    40    41   100	 9 ;     CG2R61     CG2R61     CG2R61      HGR61
   99    40    41    42	 9 ;      HGR61     CG2R61     CG2R61     CG2R61
   99    40    41   100	 9 ;      HGR61     CG2R61     CG2R61      HGR61
   40    41    42    43	 9 ;     CG2R61     CG2R61     CG2R61     CG2R61
   40    41    42   101	 9 ;     CG2R61     CG2R61     CG2R61      HGR61
  100    41    42    43	 9 ;      HGR61     CG2R61     CG2R61     CG2R61
  100    41    42   101	 9 ;      HGR61     CG2R61     CG2R61      HGR61
   41    42    43    38	 9 ;     CG2R61     CG2R61     CG2R61     CG2R61
   41    42    43   102	 9 ;     CG2R61     CG2R61     CG2R61      HGR61
  101    42    43    38	 9 ;      HGR61     CG2R61     CG2R61     CG2R61
  101    42    43   102	 9 ;      HGR61     CG2R61     CG2R61      HGR61
   36    44    45    46	 9 ;      CG311      CG311      CG301      CG331
   36    44    45    47	 9 ;      CG311      CG311      CG301      CG2O5
   36    44    45    57	 9 ;      CG311      CG311      CG301      CG311
   61    44    45    46	 9 ;     CG3RC1      CG311      CG301      CG331
   61    44    45    47	 9 ;     CG3RC1      CG311      CG301      CG2O5
   61    44    45    57	 9 ;     CG3RC1      CG311      CG301      CG311
  103    44    45    46	 9 ;       HGA1      CG311      CG301      CG331
  103    44    45    47	 9 ;       HGA1      CG311      CG301      CG2O5
  103    44    45    57	 9 ;       HGA1      CG311      CG301      CG311
   36    44    61    59	 9 ;      CG311      CG311     CG3RC1     CG3RC1
   36    44    61    60	 9 ;      CG311      CG311     CG3RC1     CG3C41
   36    44    61    89	 9 ;      CG311      CG311     CG3RC1      OG302
   45    44    61    59	 9 ;      CG301      CG311     CG3RC1     CG3RC1
   45    44    61    60	 9 ;      CG301      CG311     CG3RC1     CG3C41
   45    44    61    89	 9 ;      CG301      CG311     CG3RC1      OG302
  103    44    61    59	 9 ;       HGA1      CG311     CG3RC1     CG3RC1
  103    44    61    60	 9 ;       HGA1      CG311     CG3RC1     CG3C41
  103    44    61    89	 9 ;       HGA1      CG311     CG3RC1      OG302
   44    45    46   104	 9 ;      CG311      CG301      CG331       HGA3
   44    45    46   105	 9 ;      CG311      CG301      CG331       HGA3
   44    45    46   106	 9 ;      CG311      CG301      CG331       HGA3
   47    45    46   104	 9 ;      CG2O5      CG301      CG331       HGA3
   47    45    46   105	 9 ;      CG2O5      CG301      CG331       HGA3
   47    45    46   106	 9 ;      CG2O5      CG301      CG331       HGA3
   57    45    46   104	 9 ;      CG311      CG301      CG331       HGA3
   57    45    46   105	 9 ;      CG311      CG301      CG331       HGA3
   57    45    46   106	 9 ;      CG311      CG301      CG331       HGA3
   44    45    47    48	 9 ;      CG311      CG301      CG2O5      CG311
   44    45    47    84	 9 ;      CG311      CG301      CG2O5      OG2D3
   46    45    47    48	 9 ;      CG331      CG301      CG2O5      CG311
   46    45    47    84	 9 ;      CG331      CG301      CG2O5      OG2D3
   57    45    47    48	 9 ;      CG311      CG301      CG2O5      CG311
   57    45    47    84	 9 ;      CG311      CG301      CG2O5      OG2D3
   44    45    57    58	 9 ;      CG311      CG301      CG311      CG321
   44    45    57    87	 9 ;      CG311      CG301      CG311      OG311
   44    45    57   120	 9 ;      CG311      CG301      CG311       HGA1
   46    45    57    58	 9 ;      CG331      CG301      CG311      CG321
   46    45    57    87	 9 ;      CG331      CG301      CG311      OG311
   46    45    57   120	 9 ;      CG331      CG301      CG311       HGA1
   47    45    57    58	 9 ;      CG2O5      CG301      CG311      CG321
   47    45    57    87	 9 ;      CG2O5      CG301      CG311      OG311
   47    45    57   120	 9 ;      CG2O5      CG301      CG311       HGA1
   45    47    48    51	 9 ;      CG301      CG2O5      CG311      CG2D1
   45    47    48    85	 9 ;      CG301      CG2O5      CG311      OG302
   45    47    48   107	 9 ;      CG301      CG2O5      CG311       HGA1
   84    47    48    51	 9 ;      OG2D3      CG2O5      CG311      CG2D1
   84    47    48    85	 9 ;      OG2D3      CG2O5      CG311      OG302
   84    47    48   107	 9 ;      OG2D3      CG2O5      CG311       HGA1
   47    48    51    52	 9 ;      CG2O5      CG311      CG2D1      CG2D1
   47    48    51    54	 9 ;      CG2O5      CG311      CG2D1      CG301
   85    48    51    52	 9 ;      OG302      CG311      CG2D1      CG2D1
   85    48    51    54	 9 ;      OG302      CG311      CG2D1      CG301
  107    48    51    52	 9 ;       HGA1      CG311      CG2D1      CG2D1
  107    48    51    54	 9 ;       HGA1      CG311      CG2D1      CG301
   47    48    85    49	 9 ;      CG2O5      CG311      OG302      CG2O2
   51    48    85    49	 9 ;      CG2D1      CG311      OG302      CG2O2
  107    48    85    49	 9 ;       HGA1      CG311      OG302      CG2O2
   86    49    50   108	 9 ;      OG2D1      CG2O2      CG331       HGA3
   86    49    50   109	 9 ;      OG2D1      CG2O2      CG331       HGA3
   86    49    50   110	 9 ;      OG2D1      CG2O2      CG331       HGA3
   85    49    50   108	 9 ;      OG302      CG2O2      CG331       HGA3
   85    49    50   109	 9 ;      OG302      CG2O2      CG331       HGA3
   85    49    50   110	 9 ;      OG302      CG2O2      CG331       HGA3
   50    49    85    48	 9 ;      CG331      CG2O2      OG302      CG311
   86    49    85    48	 9 ;      OG2D1      CG2O2      OG302      CG311
   48    51    52    33	 9 ;      CG311      CG2D1      CG2D1      CG311
   48    51    52    53	 9 ;      CG311      CG2D1      CG2D1      CG331
   54    51    52    33	 9 ;      CG301      CG2D1      CG2D1      CG311
   54    51    52    53	 9 ;      CG301      CG2D1      CG2D1      CG331
   48    51    54    35	 9 ;      CG311      CG2D1      CG301      CG301
   48    51    54    55	 9 ;      CG311      CG2D1      CG301      CG331
   48    51    54    56	 9 ;      CG311      CG2D1      CG301      CG331
   52    51    54    35	 9 ;      CG2D1      CG2D1      CG301      CG301
   52    51    54    55	 9 ;      CG2D1      CG2D1      CG301      CG331
   52    51    54    56	 9 ;      CG2D1      CG2D1      CG301      CG331
   33    52    53   111	 9 ;      CG311      CG2D1      CG331       HGA3
   33    52    53   112	 9 ;      CG311      CG2D1      CG331       HGA3
   33    52    53   113	 9 ;      CG311      CG2D1      CG331       HGA3
   51    52    53   111	 9 ;      CG2D1      CG2D1      CG331       HGA3
   51    52    53   112	 9 ;      CG2D1      CG2D1      CG331       HGA3
   51    52    53   113	 9 ;      CG2D1      CG2D1      CG331       HGA3
   35    54    55   114	 9 ;      CG301      CG301      CG331       HGA3
   35    54    55   115	 9 ;      CG301      CG301      CG331       HGA3
   35    54    55   116	 9 ;      CG301      CG301      CG331       HGA3
   51    54    55   114	 9 ;      CG2D1      CG301      CG331       HGA3
   51    54    55   115	 9 ;      CG2D1      CG301      CG331       HGA3
   51    54    55   116	 9 ;      CG2D1      CG301      CG331       HGA3
   56    54    55   114	 9 ;      CG331      CG301      CG331       HGA3
   56    54    55   115	 9 ;      CG331      CG301      CG331       HGA3
   56    54    55   116	 9 ;      CG331      CG301      CG331       HGA3
   35    54    56   117	 9 ;      CG301      CG301      CG331       HGA3
   35    54    56   118	 9 ;      CG301      CG301      CG331       HGA3
   35    54    56   119	 9 ;      CG301      CG301      CG331       HGA3
   51    54    56   117	 9 ;      CG2D1      CG301      CG331       HGA3
   51    54    56   118	 9 ;      CG2D1      CG301      CG331       HGA3
   51    54    56   119	 9 ;      CG2D1      CG301      CG331       HGA3
   55    54    56   117	 9 ;      CG331      CG301      CG331       HGA3
   55    54    56   118	 9 ;      CG331      CG301      CG331       HGA3
   55    54    56   119	 9 ;      CG331      CG301      CG331       HGA3
   45    57    58    59	 9 ;      CG301      CG311      CG321     CG3RC1
   45    57    58   122	 9 ;      CG301      CG311      CG321       HGA2
   45    57    58   123	 9 ;      CG301      CG311      CG321       HGA2
   87    57    58    59	 9 ;      OG311      CG311      CG321     CG3RC1
   87    57    58   122	 9 ;      OG311      CG311      CG321       HGA2
   87    57    58   123	 9 ;      OG311      CG311      CG321       HGA2
  120    57    58    59	 9 ;       HGA1      CG311      CG321     CG3RC1
  120    57    58   122	 9 ;       HGA1      CG311      CG321       HGA2
  120    57    58   123	 9 ;       HGA1      CG311      CG321       HGA2
   45    57    87   121	 9 ;      CG301      CG311      OG311       HGP1
   58    57    87   121	 9 ;      CG321      CG311      OG311       HGP1
  120    57    87   121	 9 ;       HGA1      CG311      OG311       HGP1
   57    58    59    61	 9 ;      CG311      CG321     CG3RC1     CG3RC1
   57    58    59    88	 9 ;      CG311      CG321     CG3RC1     OG3C51
   57    58    59   124	 9 ;      CG311      CG321     CG3RC1       HGA1
  122    58    59    61	 9 ;       HGA2      CG321     CG3RC1     CG3RC1
  122    58    59    88	 9 ;       HGA2      CG321     CG3RC1     OG3C51
  122    58    59   124	 9 ;       HGA2      CG321     CG3RC1       HGA1
  123    58    59    61	 9 ;       HGA2      CG321     CG3RC1     CG3RC1
  123    58    59    88	 9 ;       HGA2      CG321     CG3RC1     OG3C51
  123    58    59   124	 9 ;       HGA2      CG321     CG3RC1       HGA1
   58    59    61    44	 9 ;      CG321     CG3RC1     CG3RC1      CG311
   58    59    61    60	 9 ;      CG321     CG3RC1     CG3RC1     CG3C41
   58    59    61    89	 9 ;      CG321     CG3RC1     CG3RC1      OG302
   88    59    61    44	 9 ;     OG3C51     CG3RC1     CG3RC1      CG311
   88    59    61    60	 9 ;     OG3C51     CG3RC1     CG3RC1     CG3C41
   88    59    61    89	 9 ;     OG3C51     CG3RC1     CG3RC1      OG302
  124    59    61    44	 9 ;       HGA1     CG3RC1     CG3RC1      CG311
  124    59    61    60	 9 ;       HGA1     CG3RC1     CG3RC1     CG3C41
  124    59    61    89	 9 ;       HGA1     CG3RC1     CG3RC1      OG302
   58    59    88    60	 9 ;      CG321     CG3RC1     OG3C51     CG3C41
   61    59    88    60	 9 ;     CG3RC1     CG3RC1     OG3C51     CG3C41
  124    59    88    60	 9 ;       HGA1     CG3RC1     OG3C51     CG3C41
  125    60    61    44	 9 ;       HGA2     CG3C41     CG3RC1      CG311
  125    60    61    59	 9 ;       HGA2     CG3C41     CG3RC1     CG3RC1
  125    60    61    89	 9 ;       HGA2     CG3C41     CG3RC1      OG302
  126    60    61    44	 9 ;       HGA2     CG3C41     CG3RC1      CG311
  126    60    61    59	 9 ;       HGA2     CG3C41     CG3RC1     CG3RC1
  126    60    61    89	 9 ;       HGA2     CG3C41     CG3RC1      OG302
   88    60    61    44	 9 ;     OG3C51     CG3C41     CG3RC1      CG311
   88    60    61    59	 9 ;     OG3C51     CG3C41     CG3RC1     CG3RC1
   88    60    61    89	 9 ;     OG3C51     CG3C41     CG3RC1      OG302
   61    60    88    59	 9 ;     CG3RC1     CG3C41     OG3C51     CG3RC1
  125    60    88    59	 9 ;       HGA2     CG3C41     OG3C51     CG3RC1
  126    60    88    59	 9 ;       HGA2     CG3C41     OG3C51     CG3RC1
   44    61    89    62	 9 ;      CG311     CG3RC1      OG302      CG2O2
   59    61    89    62	 9 ;     CG3RC1     CG3RC1      OG302      CG2O2
   60    61    89    62	 9 ;     CG3C41     CG3RC1      OG302      CG2O2
   90    62    63   127	 9 ;      OG2D1      CG2O2      CG331       HGA3
   90    62    63   128	 9 ;      OG2D1      CG2O2      CG331       HGA3
   90    62    63   129	 9 ;      OG2D1      CG2O2      CG331       HGA3
   89    62    63   127	 9 ;      OG302      CG2O2      CG331       HGA3
   89    62    63   128	 9 ;      OG302      CG2O2      CG331       HGA3
   89    62    63   129	 9 ;      OG302      CG2O2      CG331       HGA3
   63    62    89    61	 9 ;      CG331      CG2O2      OG302     CG3RC1
   90    62    89    61	 9 ;      OG2D1      CG2O2      OG302     CG3RC1
   31    64    72    73	 9 ;      CG311      CG311     CG2R61     CG2R61
   31    64    72    77	 9 ;      CG311      CG311     CG2R61     CG2R61
   30    64    72    73	 9 ;      NG2S1      CG311     CG2R61     CG2R61
   30    64    72    77	 9 ;      NG2S1      CG311     CG2R61     CG2R61
  130    64    72    73	 9 ;       HGA1      CG311     CG2R61     CG2R61
  130    64    72    77	 9 ;       HGA1      CG311     CG2R61     CG2R61
   30    65    66    67	 9 ;      NG2S1      CG2O1     CG2R61     CG2R61
   30    65    66    71	 9 ;      NG2S1      CG2O1     CG2R61     CG2R61
   91    65    66    67	 9 ;      OG2D1      CG2O1     CG2R61     CG2R61
   91    65    66    71	 9 ;      OG2D1      CG2O1     CG2R61     CG2R61
   65    66    67    68	 9 ;      CG2O1     CG2R61     CG2R61     CG2R61
   65    66    67   132	 9 ;      CG2O1     CG2R61     CG2R61      HGR61
   71    66    67    68	 9 ;     CG2R61     CG2R61     CG2R61     CG2R61
   71    66    67   132	 9 ;     CG2R61     CG2R61     CG2R61      HGR61
   65    66    71    70	 9 ;      CG2O1     CG2R61     CG2R61     CG2R61
   65    66    71   136	 9 ;      CG2O1     CG2R61     CG2R61      HGR61
   67    66    71    70	 9 ;     CG2R61     CG2R61     CG2R61     CG2R61
   67    66    71   136	 9 ;     CG2R61     CG2R61     CG2R61      HGR61
   66    67    68    69	 9 ;     CG2R61     CG2R61     CG2R61     CG2R61
   66    67    68   133	 9 ;     CG2R61     CG2R61     CG2R61      HGR61
  132    67    68    69	 9 ;      HGR61     CG2R61     CG2R61     CG2R61
  132    67    68   133	 9 ;      HGR61     CG2R61     CG2R61      HGR61
   67    68    69    70	 9 ;     CG2R61     CG2R61     CG2R61     CG2R61
   67    68    69   134	 9 ;     CG2R61     CG2R61     CG2R61      HGR61
  133    68    69    70	 9 ;      HGR61     CG2R61     CG2R61     CG2R61
  133    68    69   134	 9 ;      HGR61     CG2R61     CG2R61      HGR61
   68    69    70    71	 9 ;     CG2R61     CG2R61     CG2R61     CG2R61
   68    69    70   135	 9 ;     CG2R61     CG2R61     CG2R61      HGR61
  134    69    70    71	 9 ;      HGR61     CG2R61     CG2R61     CG2R61
  134    69    70   135	 9 ;      HGR61     CG2R61     CG2R61      HGR61
   69    70    71    66	 9 ;     CG2R61     CG2R61     CG2R61     CG2R61
   69    70    71   136	 9 ;     CG2R61     CG2R61     CG2R61      HGR61
  135    70    71    66	 9 ;      HGR61     CG2R61     CG2R61     CG2R61
  135    70    71   136	 9 ;      HGR61     CG2R61     CG2R61      HGR61
   64    72    73    74	 9 ;      CG311     CG2R61     CG2R61     CG2R61
   64    72    73   137	 9 ;      CG311     CG2R61     CG2R61      HGR61
   77    72    73    74	 9 ;     CG2R61     CG2R61     CG2R61     CG2R61
   77    72    73   137	 9 ;     CG2R61     CG2R61     CG2R61      HGR61
   64    72    77    76	 9 ;      CG311     CG2R61     CG2R61     CG2R61
   64    72    77   141	 9 ;      CG311     CG2R61     CG2R61      HGR61
   73    72    77    76	 9 ;     CG2R61     CG2R61     CG2R61     CG2R61
   73    72    77   141	 9 ;     CG2R61     CG2R61     CG2R61      HGR61
   72    73    74    75	 9 ;     CG2R61     CG2R61     CG2R61     CG2R61
   72    73    74   138	 9 ;     CG2R61     CG2R61     CG2R61      HGR61
  137    73    74    75	 9 ;      HGR61     CG2R61     CG2R61     CG2R61
  137    73    74   138	 9 ;      HGR61     CG2R61     CG2R61      HGR61
   73    74    75    76	 9 ;     CG2R61     CG2R61     CG2R61     CG2R61
   73    74    75   139	 9 ;     CG2R61     CG2R61     CG2R61      HGR61
  138    74    75    76	 9 ;      HGR61     CG2R61     CG2R61     CG2R61
  138    74    75   139	 9 ;      HGR61     CG2R61     CG2R61      HGR61
   74    75    76    77	 9 ;     CG2R61     CG2R61     CG2R61     CG2R61
   74    75    76   140	 9 ;     CG2R61     CG2R61     CG2R61      HGR61
  139    75    76    77	 9 ;      HGR61     CG2R61     CG2R61     CG2R61
  139    75    76   140	 9 ;      HGR61     CG2R61     CG2R61      HGR61
   75    76    77    72	 9 ;     CG2R61     CG2R61     CG2R61     CG2R61
   75    76    77   141	 9 ;     CG2R61     CG2R61     CG2R61      HGR61
  140    76    77    72	 9 ;      HGR61     CG2R61     CG2R61     CG2R61
  140    76    77   141	 9 ;      HGR61     CG2R61     CG2R61      HGR61

[ dihedrals ]
;	ai	  aj	ak	  al funct			  c0			c1			  c2			c3
   32    31    79    80	 2
   37    38    83    82	 2
   47    45    48    84	 2
   49    50    86    85	 2
   62    63    90    89	 2
   65    66    30    91	 2

