; Created by cgenff_charmm2gmx.py

[ moleculetype ]
; Name			   nrexcl
SN3				 3

[ atoms ]
;	 nr		  type	resnr residue  atom   cgnr	   charge		mass  typeB    chargeB		massB
; residue	 1 SN3 rtp SN3 q	qsum
     1      CG331      1    SN3     C1      1     -0.273     12.011   ;
     2      CG321      1    SN3     C2      2     -0.289     12.011   ;
     3      CG301      1    SN3     C3      3      0.248     12.011   ;
     4      OG311      1    SN3     O1      4     -0.562     15.999   ;
     5      CG2O2      1    SN3     C4      5      0.588     12.011   ;
     6      OG2D1      1    SN3     O2      6     -0.641     15.999   ;
     7     OG3R60      1    SN3     O3      7     -0.173     15.999   ;
     8      CG321      1    SN3     C5      8      0.016     12.011   ;
     9     CG2R62      1    SN3     C6      9     -0.147     12.011   ;
    10     CG2R62      1    SN3     C7     10      0.089     12.011   ;
    11     CG2R62      1    SN3     C8     11     -0.115     12.011   ;
    12     CG2R67      1    SN3     C9     12      0.077     12.011   ;
    13     CG2R67      1    SN3    C10     13      0.093     12.011   ;
    14     NG2R60      1    SN3     N1     14     -0.785     14.007   ;
    15     CG2R61      1    SN3    C11     15      0.440     12.011   ;
    16     CG2R61      1    SN3    C12     16     -0.127     12.011   ;
    17     CG2R61      1    SN3    C13     17     -0.103     12.011   ;
    18     CG2R61      1    SN3    C14     18     -0.108     12.011   ;
    19     CG2R61      1    SN3    C15     19      0.176     12.011   ;
    20      OG311      1    SN3     O4     20     -0.537     15.999   ;
    21     CG2R61      1    SN3    C16     21     -0.090     12.011   ;
    22     CG2R61      1    SN3    C17     22     -0.098     12.011   ;
    23     CG2RC0      1    SN3    C18     23      0.266     12.011   ;
    24     CG3C52      1    SN3    C19     24     -0.230     12.011   ;
    25     NG2R61      1    SN3     N2     25      0.060     14.007   ;
    26     CG2R63      1    SN3    C20     26      0.329     12.011   ;
    27      OG2D4      1    SN3     O5     27     -0.421     15.999   ;
    28       HGA3      1    SN3     H1     28      0.090      1.008   ;
    29       HGA3      1    SN3     H2     29      0.090      1.008   ;
    30       HGA3      1    SN3     H3     30      0.090      1.008   ;
    31       HGA2      1    SN3     H4     31      0.090      1.008   ;
    32       HGA2      1    SN3     H5     32      0.090      1.008   ;
    33       HGP1      1    SN3     H6     33      0.385      1.008   ;
    34       HGA2      1    SN3     H7     34      0.090      1.008   ;
    35       HGA2      1    SN3     H8     35      0.090      1.008   ;
    36      HGR62      1    SN3     H9     36      0.231      1.008   ;
    37      HGR61      1    SN3    H10     37      0.115      1.008   ;
    38      HGR61      1    SN3    H11     38      0.115      1.008   ;
    39      HGR61      1    SN3    H12     39      0.115      1.008   ;
    40       HGP1      1    SN3    H13     40      0.420      1.008   ;
    41      HGR61      1    SN3    H14     41      0.126      1.008   ;
    42       HGA2      1    SN3    H15     42      0.090      1.008   ;
    43       HGA2      1    SN3    H16     43      0.090      1.008   ;

[ bonds ]
;	ai	  aj funct			  c0			c1			  c2			c3
    1     2	 1
    1    28	 1
    1    29	 1
    1    30	 1
    2     3	 1
    2    31	 1
    2    32	 1
    3     4	 1
    3     5	 1
    3    10	 1
    4    33	 1
    5     6	 1
    5     7	 1
    7     8	 1
    8     9	 1
    8    34	 1
    8    35	 1
    9    10	 1
    9    26	 1
   10    11	 1
   11    12	 1
   11    36	 1
   12    25	 1
   12    13	 1
   13    14	 1
   13    23	 1
   14    15	 1
   15    21	 1
   15    16	 1
   16    17	 1
   16    37	 1
   17    18	 1
   17    38	 1
   18    19	 1
   18    39	 1
   19    20	 1
   19    21	 1
   20    40	 1
   21    22	 1
   22    41	 1
   22    23	 1
   23    24	 1
   24    25	 1
   24    42	 1
   24    43	 1
   25    26	 1
   26    27	 1

[ pairs ]
;	ai	  aj funct			  c0			c1			  c2			c3
    1    10	 1
    1     4	 1
    1     5	 1
    2    33	 1
    2     9	 1
    2    11	 1
    2     6	 1
    2     7	 1
    3    36	 1
    3     8	 1
    3    12	 1
    3    26	 1
    3    28	 1
    3    29	 1
    3    30	 1
    4     6	 1
    4     7	 1
    4     9	 1
    4    11	 1
    4    31	 1
    4    32	 1
    5    33	 1
    5    35	 1
    5    34	 1
    5     9	 1
    5    11	 1
    5    31	 1
    5    32	 1
    6     8	 1
    6    10	 1
    7    26	 1
    7    10	 1
    8    25	 1
    8    27	 1
    8    11	 1
    9    12	 1
    9    36	 1
    9    24	 1
   10    33	 1
   10    35	 1
   10    34	 1
   10    13	 1
   10    25	 1
   10    27	 1
   10    31	 1
   10    32	 1
   11    14	 1
   11    23	 1
   11    24	 1
   11    26	 1
   12    42	 1
   12    43	 1
   12    15	 1
   12    22	 1
   12    27	 1
   13    36	 1
   13    41	 1
   13    43	 1
   13    16	 1
   13    21	 1
   13    42	 1
   13    26	 1
   14    37	 1
   14    17	 1
   14    19	 1
   14    22	 1
   14    24	 1
   14    25	 1
   15    38	 1
   15    41	 1
   15    18	 1
   15    20	 1
   15    23	 1
   16    19	 1
   16    22	 1
   16    39	 1
   17    20	 1
   17    21	 1
   18    37	 1
   18    22	 1
   18    40	 1
   19    41	 1
   19    38	 1
   19    23	 1
   20    22	 1
   20    39	 1
   21    37	 1
   21    39	 1
   21    40	 1
   21    24	 1
   22    42	 1
   22    43	 1
   22    25	 1
   23    26	 1
   24    41	 1
   24    27	 1
   25    36	 1
   26    34	 1
   26    35	 1
   26    42	 1
   26    43	 1
   28    31	 1
   28    32	 1
   29    31	 1
   29    32	 1
   30    31	 1
   30    32	 1
   37    38	 1
   38    39	 1

[ angles ]
;	ai	  aj	ak funct			c0			  c1			c2			  c3
    2     1    28	5
    2     1    29	5
    2     1    30	5
   28     1    29	5
   28     1    30	5
   29     1    30	5
    1     2     3	5
    1     2    31	5
    1     2    32	5
    3     2    31	5
    3     2    32	5
   31     2    32	5
    2     3     4	5
    2     3     5	5
    2     3    10	5
    4     3     5	5
    4     3    10	5
    5     3    10	5
   33     4     3	5
    3     5     6	5
    3     5     7	5
    6     5     7	5
    5     7     8	5
    9     8    34	5
    9     8    35	5
    9     8     7	5
   34     8    35	5
   34     8     7	5
   35     8     7	5
   10     9    26	5
   10     9     8	5
   26     9     8	5
    9    10     3	5
    9    10    11	5
    3    10    11	5
   10    11    12	5
   10    11    36	5
   12    11    36	5
   25    12    11	5
   25    12    13	5
   11    12    13	5
   12    13    14	5
   12    13    23	5
   14    13    23	5
   13    14    15	5
   21    15    14	5
   21    15    16	5
   14    15    16	5
   17    16    37	5
   17    16    15	5
   37    16    15	5
   18    17    38	5
   18    17    16	5
   38    17    16	5
   17    18    19	5
   17    18    39	5
   19    18    39	5
   18    19    20	5
   18    19    21	5
   20    19    21	5
   19    20    40	5
   19    21    22	5
   19    21    15	5
   22    21    15	5
   41    22    21	5
   41    22    23	5
   21    22    23	5
   13    23    22	5
   13    23    24	5
   22    23    24	5
   25    24    42	5
   25    24    43	5
   25    24    23	5
   42    24    43	5
   42    24    23	5
   43    24    23	5
   26    25    12	5
   26    25    24	5
   12    25    24	5
    9    26    25	5
    9    26    27	5
   25    26    27	5

[ dihedrals ]
;	ai	  aj	ak	  al funct			  c0			c1			  c2			c3			  c4			c5
   28     1     2     3	 9
   28     1     2    31	 9
   28     1     2    32	 9
   29     1     2     3	 9
   29     1     2    31	 9
   29     1     2    32	 9
   30     1     2     3	 9
   30     1     2    31	 9
   30     1     2    32	 9
    1     2     3     4	 9
    1     2     3     5	 9
    1     2     3    10	 9
   31     2     3     4	 9
   31     2     3     5	 9
   31     2     3    10	 9
   32     2     3     4	 9
   32     2     3     5	 9
   32     2     3    10	 9
    2     3     4    33	 9
    5     3     4    33	 9
   10     3     4    33	 9
    2     3     5     6	 9
    2     3     5     7	 9
    4     3     5     6	 9
    4     3     5     7	 9
   10     3     5     6	 9
   10     3     5     7	 9
    2     3    10     9	 9
    2     3    10    11	 9
    4     3    10     9	 9
    4     3    10    11	 9
    5     3    10     9	 9
    5     3    10    11	 9
    3     5     7     8	 9
    6     5     7     8	 9
    5     7     8     9	 9
    5     7     8    34	 9
    5     7     8    35	 9
   34     8     9    10	 9
   34     8     9    26	 9
   35     8     9    10	 9
   35     8     9    26	 9
    7     8     9    10	 9
    7     8     9    26	 9
   26     9    10     3	 9
   26     9    10    11	 9
    8     9    10     3	 9
    8     9    10    11	 9
   10     9    26    25	 9
   10     9    26    27	 9
    8     9    26    25	 9
    8     9    26    27	 9
    9    10    11    12	 9
    9    10    11    36	 9
    3    10    11    12	 9
    3    10    11    36	 9
   10    11    12    25	 9
   10    11    12    13	 9
   36    11    12    25	 9
   36    11    12    13	 9
   11    12    25    26	 9
   11    12    25    24	 9
   13    12    25    26	 9
   13    12    25    24	 9
   25    12    13    14	 9
   25    12    13    23	 9
   11    12    13    14	 9
   11    12    13    23	 9
   12    13    14    15	 9
   23    13    14    15	 9
   12    13    23    22	 9
   12    13    23    24	 9
   14    13    23    22	 9
   14    13    23    24	 9
   13    14    15    21	 9
   13    14    15    16	 9
   14    15    21    19	 9
   14    15    21    22	 9
   16    15    21    19	 9
   16    15    21    22	 9
   21    15    16    17	 9
   21    15    16    37	 9
   14    15    16    17	 9
   14    15    16    37	 9
   37    16    17    18	 9
   37    16    17    38	 9
   15    16    17    18	 9
   15    16    17    38	 9
   38    17    18    19	 9
   38    17    18    39	 9
   16    17    18    19	 9
   16    17    18    39	 9
   17    18    19    20	 9
   17    18    19    21	 9
   39    18    19    20	 9
   39    18    19    21	 9
   18    19    20    40	 9
   21    19    20    40	 9
   18    19    21    22	 9
   18    19    21    15	 9
   20    19    21    22	 9
   20    19    21    15	 9
   19    21    22    41	 9
   19    21    22    23	 9
   15    21    22    41	 9
   15    21    22    23	 9
   41    22    23    13	 9
   41    22    23    24	 9
   21    22    23    13	 9
   21    22    23    24	 9
   13    23    24    25	 9
   13    23    24    42	 9
   13    23    24    43	 9
   22    23    24    25	 9
   22    23    24    42	 9
   22    23    24    43	 9
   42    24    25    26	 9
   42    24    25    12	 9
   43    24    25    26	 9
   43    24    25    12	 9
   23    24    25    26	 9
   23    24    25    12	 9
   12    25    26     9	 9
   12    25    26    27	 9
   24    25    26     9	 9
   24    25    26    27	 9

[ dihedrals ]
;	ai	  aj	ak	  al funct			  c0			c1			  c2			c3
    5     3     6     7	 2
   26     9    25    27	 2

