#include "../../../forcefields/charmm36-jul2022.ff/forcefield.itp"

; additional params for the molecule
#include "cbz.prm"

#include "cbz.itp"

#include "../../../forcefields/charmm36-jul2022.ff/tip3p.itp"
#ifdef POSRES_WATER
; Position restraint for each water oxygen
[ position_restraints ]
;  i funct		 fcx		fcy		   fcz
   1	1		1000	   1000		  1000
#endif

; Include topology for ions
#include "../../../forcefields/charmm36-jul2022.ff/ions.itp"

[ system ]
; Name
mol

[ molecules ]
; Compound		  #mols
CBZ			1

