; Created by cgenff_charmm2gmx.py

[ moleculetype ]
; Name			   nrexcl
DTX				 3

[ atoms ]
;	 nr		  type	resnr residue  atom   cgnr	   charge		mass  typeB    chargeB		massB
; residue	 1 DTX rtp DTX q	qsum
     1      CG331      1    DTL     C1      1     -0.273     12.011   ;
     2      CG321      1    DTL     C2      2     -0.177     12.011   ;
     3      CG321      1    DTL     C3      3     -0.181     12.011   ;
     4      CG321      1    DTL     C4      4     -0.179     12.011   ;
     5      CG321      1    DTL     C5      5     -0.180     12.011   ;
     6      CG321      1    DTL     C6      6     -0.180     12.011   ;
     7      CG321      1    DTL     C7      7     -0.180     12.011   ;
     8      CG321      1    DTL     C8      8     -0.180     12.011   ;
     9      CG321      1    DTL     C9      9     -0.180     12.011   ;
    10      CG321      1    DTL    C10     10     -0.180     12.011   ;
    11      CG321      1    DTL    C11     11     -0.180     12.011   ;
    12      CG321      1    DTL    C12     12     -0.157     12.011   ;
    13      CG321      1    DTL    C13     13     -0.186     12.011   ;
    14      CG321      1    DTL    C14     14     -0.219     12.011   ;
    15      CG311      1    DTL    C15     15      0.167     12.011   ;
    16      CG331      1    DTL    C16     16     -0.268     12.011   ;
    17      CG301      1    DTL    C17     17      0.402     12.011   ;
    18      CG331      1    DTL    C18     18     -0.269     12.011   ;
    19      CG331      1    DTL    C19     19     -0.269     12.011   ;
    20      OG301      1    DTL     O1     20     -0.434     15.999   ;
    21       HGA3      1    DTL     H1     21      0.090      1.008   ;
    22       HGA3      1    DTL     H2     22      0.090      1.008   ;
    23       HGA3      1    DTL     H3     23      0.090      1.008   ;
    24       HGA2      1    DTL     H4     24      0.090      1.008   ;
    25       HGA2      1    DTL     H5     25      0.090      1.008   ;
    26       HGA2      1    DTL     H6     26      0.090      1.008   ;
    27       HGA2      1    DTL     H7     27      0.090      1.008   ;
    28       HGA2      1    DTL     H8     28      0.090      1.008   ;
    29       HGA2      1    DTL     H9     29      0.090      1.008   ;
    30       HGA2      1    DTL    H10     30      0.090      1.008   ;
    31       HGA2      1    DTL    H11     31      0.090      1.008   ;
    32       HGA2      1    DTL    H12     32      0.090      1.008   ;
    33       HGA2      1    DTL    H13     33      0.090      1.008   ;
    34       HGA2      1    DTL    H14     34      0.090      1.008   ;
    35       HGA2      1    DTL    H15     35      0.090      1.008   ;
    36       HGA2      1    DTL    H16     36      0.090      1.008   ;
    37       HGA2      1    DTL    H17     37      0.090      1.008   ;
    38       HGA2      1    DTL    H18     38      0.090      1.008   ;
    39       HGA2      1    DTL    H19     39      0.090      1.008   ;
    40       HGA2      1    DTL    H20     40      0.090      1.008   ;
    41       HGA2      1    DTL    H21     41      0.090      1.008   ;
    42       HGA2      1    DTL    H22     42      0.090      1.008   ;
    43       HGA2      1    DTL    H23     43      0.090      1.008   ;
    44       HGA2      1    DTL    H24     44      0.090      1.008   ;
    45       HGA2      1    DTL    H25     45      0.090      1.008   ;
    46       HGA2      1    DTL    H26     46      0.090      1.008   ;
    47       HGA2      1    DTL    H27     47      0.090      1.008   ;
    48       HGA2      1    DTL    H28     48      0.090      1.008   ;
    49       HGA2      1    DTL    H29     49      0.090      1.008   ;
    50       HGA1      1    DTL    H30     50      0.090      1.008   ;
    51       HGA3      1    DTL    H31     51      0.090      1.008   ;
    52       HGA3      1    DTL    H32     52      0.090      1.008   ;
    53       HGA3      1    DTL    H33     53      0.090      1.008   ;
    54       HGA3      1    DTL    H34     54      0.090      1.008   ;
    55       HGA3      1    DTL    H35     55      0.090      1.008   ;
    56       HGA3      1    DTL    H36     56      0.090      1.008   ;
    57       HGA3      1    DTL    H37     57      0.090      1.008   ;
    58       HGA3      1    DTL    H38     58      0.090      1.008   ;
    59       HGA3      1    DTL    H39     59      0.090      1.008   ;
    60      NG2S1      1    DTX      N     60     -0.547     14.007   ;
    61      CG311      1    DTX    C20     61      0.183     12.011   ;
    62      CG2O2      1    DTX    C21     62      0.850     12.011   ;
    63      CG311      1    DTX    C22     63      0.272     12.011   ;
    64      CG321      1    DTX    C23     64     -0.212     12.011   ;
    65      CG301      1    DTX    C24     65      0.186     12.011   ;
    66      CG311      1    DTX    C25     66      0.133     12.011   ;
    67      CG2O2      1    DTX    C26     67      0.459     12.011   ;
    68     CG2R61      1    DTX    C27     68      0.086     12.011   ;
    69     CG2R61      1    DTX    C28     69     -0.110     12.011   ;
    70     CG2R61      1    DTX    C29     70     -0.114     12.011   ;
    71     CG2R61      1    DTX    C30     71     -0.115     12.011   ;
    72     CG2R61      1    DTX    C31     72     -0.114     12.011   ;
    73     CG2R61      1    DTX    C32     73     -0.110     12.011   ;
    74      CG311      1    DTX    C33     74     -0.074     12.011   ;
    75      CG301      1    DTX    C34     75      0.081     12.011   ;
    76      CG331      1    DTX    C35     76     -0.263     12.011   ;
    77      CG2O5      1    DTX    C36     77      0.331     12.011   ;
    78      CG311      1    DTX    C37     78      0.376     12.011   ;
    79      CG2D1      1    DTX    C38     79     -0.097     12.011   ;
    80      CG2D1      1    DTX    C39     80     -0.158     12.011   ;
    81      CG331      1    DTX    C40     81     -0.265     12.011   ;
    82      CG301      1    DTX    C41     82      0.016     12.011   ;
    83      CG331      1    DTX    C42     83     -0.269     12.011   ;
    84      CG331      1    DTX    C43     84     -0.269     12.011   ;
    85      CG311      1    DTX    C44     85      0.166     12.011   ;
    86      CG321      1    DTX    C45     86     -0.201     12.011   ;
    87     CG3RC1      1    DTX    C46     87      0.015     12.011   ;
    88     CG3C41      1    DTX    C47     88     -0.106     12.011   ;
    89     CG3RC1      1    DTX    C48     89      0.366     12.011   ;
    90      CG2O2      1    DTX    C49     90      0.885     12.011   ;
    91      CG331      1    DTX    C50     91     -0.313     12.011   ;
    92      CG311      1    DTX    C51     92      0.136     12.011   ;
    93      CG2O1      1    DTX    C52     93      0.638     12.011   ;
    94      CG301      1    DTX    C53     94     -0.054     12.011   ;
    95      CG331      1    DTX    C54     95     -0.273     12.011   ;
    96      CG331      1    DTX    C55     96     -0.273     12.011   ;
    97      CG331      1    DTX    C56     97     -0.273     12.011   ;
    98     CG2R61      1    DTX    C57     98     -0.040     12.011   ;
    99     CG2R61      1    DTX    C58     99     -0.106     12.011   ;
   100     CG2R61      1    DTX    C59    100     -0.115     12.011   ;
   101     CG2R61      1    DTX    C60    101     -0.115     12.011   ;
   102     CG2R61      1    DTX    C61    102     -0.115     12.011   ;
   103     CG2R61      1    DTX    C62    103     -0.106     12.011   ;
   104      OG301      1    DTX     O2    104     -0.506     15.999   ;
   105      OG2D1      1    DTX     O3    105     -0.623     15.999   ;
   106      OG302      1    DTX     O4    106     -0.432     15.999   ;
   107      OG311      1    DTX     O5    107     -0.460     15.999   ;
   108      OG302      1    DTX     O6    108     -0.310     15.999   ;
   109      OG2D1      1    DTX     O7    109     -0.496     15.999   ;
   110      OG2D3      1    DTX     O8    110     -0.515     15.999   ;
   111      OG311      1    DTX     O9    111     -0.612     15.999   ;
   112      OG311      1    DTX    O10    112     -0.642     15.999   ;
   113     OG3C51      1    DTX    O11    113     -0.343     15.999   ;
   114      OG302      1    DTX    O12    114     -0.422     15.999   ;
   115      OG2D1      1    DTX    O13    115     -0.617     15.999   ;
   116      OG2D1      1    DTX    O14    116     -0.511     15.999   ;
   117       HGA1      1    DTX    H40    117      0.090      1.008   ;
   118       HGA1      1    DTX    H41    118      0.090      1.008   ;
   119       HGA2      1    DTX    H42    119      0.090      1.008   ;
   120       HGA2      1    DTX    H43    120      0.090      1.008   ;
   121       HGP1      1    DTX    H44    121      0.292      1.008   ;
   122       HGA1      1    DTX    H45    122      0.090      1.008   ;
   123      HGR61      1    DTX    H46    123      0.115      1.008   ;
   124      HGR61      1    DTX    H47    124      0.115      1.008   ;
   125      HGR61      1    DTX    H48    125      0.115      1.008   ;
   126      HGR61      1    DTX    H49    126      0.115      1.008   ;
   127      HGR61      1    DTX    H50    127      0.115      1.008   ;
   128       HGA1      1    DTX    H51    128      0.090      1.008   ;
   129       HGA3      1    DTX    H52    129      0.090      1.008   ;
   130       HGA3      1    DTX    H53    130      0.090      1.008   ;
   131       HGA3      1    DTX    H54    131      0.090      1.008   ;
   132       HGA1      1    DTX    H55    132      0.090      1.008   ;
   133       HGP1      1    DTX    H56    133      0.364      1.008   ;
   134       HGA3      1    DTX    H57    134      0.090      1.008   ;
   135       HGA3      1    DTX    H58    135      0.090      1.008   ;
   136       HGA3      1    DTX    H59    136      0.090      1.008   ;
   137       HGA3      1    DTX    H60    137      0.090      1.008   ;
   138       HGA3      1    DTX    H61    138      0.090      1.008   ;
   139       HGA3      1    DTX    H62    139      0.090      1.008   ;
   140       HGA3      1    DTX    H63    140      0.090      1.008   ;
   141       HGA3      1    DTX    H64    141      0.090      1.008   ;
   142       HGA3      1    DTX    H65    142      0.090      1.008   ;
   143       HGA1      1    DTX    H66    143      0.090      1.008   ;
   144       HGP1      1    DTX    H67    144      0.400      1.008   ;
   145       HGA2      1    DTX    H68    145      0.090      1.008   ;
   146       HGA2      1    DTX    H69    146      0.090      1.008   ;
   147       HGA1      1    DTX    H70    147      0.090      1.008   ;
   148       HGA2      1    DTX    H71    148      0.090      1.008   ;
   149       HGA2      1    DTX    H72    149      0.090      1.008   ;
   150       HGA3      1    DTX    H73    150      0.090      1.008   ;
   151       HGA3      1    DTX    H74    151      0.090      1.008   ;
   152       HGA3      1    DTX    H75    152      0.090      1.008   ;
   153       HGA1      1    DTX    H76    153      0.090      1.008   ;
   154       HGP1      1    DTX    H77    154      0.284      1.008   ;
   155       HGA3      1    DTX    H78    155      0.090      1.008   ;
   156       HGA3      1    DTX    H79    156      0.090      1.008   ;
   157       HGA3      1    DTX    H80    157      0.090      1.008   ;
   158       HGA3      1    DTX    H81    158      0.090      1.008   ;
   159       HGA3      1    DTX    H82    159      0.090      1.008   ;
   160       HGA3      1    DTX    H83    160      0.090      1.008   ;
   161       HGA3      1    DTX    H84    161      0.090      1.008   ;
   162       HGA3      1    DTX    H85    162      0.090      1.008   ;
   163       HGA3      1    DTX    H86    163      0.090      1.008   ;
   164      HGR61      1    DTX    H87    164      0.115      1.008   ;
   165      HGR61      1    DTX    H88    165      0.115      1.008   ;
   166      HGR61      1    DTX    H89    166      0.115      1.008   ;
   167      HGR61      1    DTX    H90    167      0.115      1.008   ;
   168      HGR61      1    DTX    H91    168      0.115      1.008   ;

[ bonds ]
;	ai	  aj funct			  c0			c1			  c2			c3
    1     2	 1 ;       CG331      CG321
    1    21	 1 ;       CG331       HGA3
    1    22	 1 ;       CG331       HGA3
    1    23	 1 ;       CG331       HGA3
    2     3	 1 ;       CG321      CG321
    2    24	 1 ;       CG321       HGA2
    2    25	 1 ;       CG321       HGA2
    3     4	 1 ;       CG321      CG321
    3    26	 1 ;       CG321       HGA2
    3    27	 1 ;       CG321       HGA2
    4     5	 1 ;       CG321      CG321
    4    28	 1 ;       CG321       HGA2
    4    29	 1 ;       CG321       HGA2
    5     6	 1 ;       CG321      CG321
    5    30	 1 ;       CG321       HGA2
    5    31	 1 ;       CG321       HGA2
    6     7	 1 ;       CG321      CG321
    6    32	 1 ;       CG321       HGA2
    6    33	 1 ;       CG321       HGA2
    7     8	 1 ;       CG321      CG321
    7    34	 1 ;       CG321       HGA2
    7    35	 1 ;       CG321       HGA2
    8     9	 1 ;       CG321      CG321
    8    36	 1 ;       CG321       HGA2
    8    37	 1 ;       CG321       HGA2
    9    10	 1 ;       CG321      CG321
    9    38	 1 ;       CG321       HGA2
    9    39	 1 ;       CG321       HGA2
   10    11	 1 ;       CG321      CG321
   10    40	 1 ;       CG321       HGA2
   10    41	 1 ;       CG321       HGA2
   11    12	 1 ;       CG321      CG321
   11    42	 1 ;       CG321       HGA2
   11    43	 1 ;       CG321       HGA2
   12    13	 1 ;       CG321      CG321
   12    44	 1 ;       CG321       HGA2
   12    45	 1 ;       CG321       HGA2
   13    14	 1 ;       CG321      CG321
   13    46	 1 ;       CG321       HGA2
   13    47	 1 ;       CG321       HGA2
   14    15	 1 ;       CG321      CG311
   14    48	 1 ;       CG321       HGA2
   14    49	 1 ;       CG321       HGA2
   15    16	 1 ;       CG311      CG331
   15    20	 1 ;       CG311      OG301
   15    50	 1 ;       CG311       HGA1
   16    51	 1 ;       CG331       HGA3
   16    52	 1 ;       CG331       HGA3
   16    53	 1 ;       CG331       HGA3
   17    18	 1 ;       CG301      CG331
   17    19	 1 ;       CG301      CG331
   17   104	 1 ;       CG301      OG301
   17    20	 1 ;       CG301      OG301
   18    54	 1 ;       CG331       HGA3
   18    55	 1 ;       CG331       HGA3
   18    56	 1 ;       CG331       HGA3
   19    57	 1 ;       CG331       HGA3
   19    58	 1 ;       CG331       HGA3
   19    59	 1 ;       CG331       HGA3
   60    93	 1 ;       NG2S1      CG2O1
   60   154	 1 ;       NG2S1       HGP1
   60    92	 1 ;       NG2S1      CG311
   61    62	 1 ;       CG311      CG2O2
   61    92	 1 ;       CG311      CG311
   61   117	 1 ;       CG311       HGA1
   61   104	 1 ;       CG311      OG301
   62   105	 1 ;       CG2O2      OG2D1
   62   106	 1 ;       CG2O2      OG302
   63    64	 1 ;       CG311      CG321
   63    80	 1 ;       CG311      CG2D1
   63   118	 1 ;       CG311       HGA1
   63   106	 1 ;       CG311      OG302
   64    65	 1 ;       CG321      CG301
   64   119	 1 ;       CG321       HGA2
   64   120	 1 ;       CG321       HGA2
   65    66	 1 ;       CG301      CG311
   65    82	 1 ;       CG301      CG301
   65   107	 1 ;       CG301      OG311
   66    74	 1 ;       CG311      CG311
   66   108	 1 ;       CG311      OG302
   66   122	 1 ;       CG311       HGA1
   67    68	 1 ;       CG2O2     CG2R61
   67   109	 1 ;       CG2O2      OG2D1
   67   108	 1 ;       CG2O2      OG302
   68    69	 1 ;      CG2R61     CG2R61
   68    73	 1 ;      CG2R61     CG2R61
   69    70	 1 ;      CG2R61     CG2R61
   69   123	 1 ;      CG2R61      HGR61
   70    71	 1 ;      CG2R61     CG2R61
   70   124	 1 ;      CG2R61      HGR61
   71    72	 1 ;      CG2R61     CG2R61
   71   125	 1 ;      CG2R61      HGR61
   72    73	 1 ;      CG2R61     CG2R61
   72   126	 1 ;      CG2R61      HGR61
   73   127	 1 ;      CG2R61      HGR61
   74    75	 1 ;       CG311      CG301
   74    89	 1 ;       CG311     CG3RC1
   74   128	 1 ;       CG311       HGA1
   75    76	 1 ;       CG301      CG331
   75    77	 1 ;       CG301      CG2O5
   75    85	 1 ;       CG301      CG311
   76   129	 1 ;       CG331       HGA3
   76   130	 1 ;       CG331       HGA3
   76   131	 1 ;       CG331       HGA3
   77    78	 1 ;       CG2O5      CG311
   77   110	 1 ;       CG2O5      OG2D3
   78    79	 1 ;       CG311      CG2D1
   78   111	 1 ;       CG311      OG311
   78   132	 1 ;       CG311       HGA1
   79    80	 1 ;       CG2D1      CG2D1
   79    82	 1 ;       CG2D1      CG301
   80    81	 1 ;       CG2D1      CG331
   81   134	 1 ;       CG331       HGA3
   81   135	 1 ;       CG331       HGA3
   81   136	 1 ;       CG331       HGA3
   82    83	 1 ;       CG301      CG331
   82    84	 1 ;       CG301      CG331
   83   137	 1 ;       CG331       HGA3
   83   138	 1 ;       CG331       HGA3
   83   139	 1 ;       CG331       HGA3
   84   140	 1 ;       CG331       HGA3
   84   141	 1 ;       CG331       HGA3
   84   142	 1 ;       CG331       HGA3
   85    86	 1 ;       CG311      CG321
   85   112	 1 ;       CG311      OG311
   85   143	 1 ;       CG311       HGA1
   86    87	 1 ;       CG321     CG3RC1
   86   145	 1 ;       CG321       HGA2
   86   146	 1 ;       CG321       HGA2
   87    89	 1 ;      CG3RC1     CG3RC1
   87   113	 1 ;      CG3RC1     OG3C51
   87   147	 1 ;      CG3RC1       HGA1
   88    89	 1 ;      CG3C41     CG3RC1
   88   148	 1 ;      CG3C41       HGA2
   88   149	 1 ;      CG3C41       HGA2
   88   113	 1 ;      CG3C41     OG3C51
   89   114	 1 ;      CG3RC1      OG302
   90    91	 1 ;       CG2O2      CG331
   90   115	 1 ;       CG2O2      OG2D1
   90   114	 1 ;       CG2O2      OG302
   91   150	 1 ;       CG331       HGA3
   91   151	 1 ;       CG331       HGA3
   91   152	 1 ;       CG331       HGA3
   92    98	 1 ;       CG311     CG2R61
   92   153	 1 ;       CG311       HGA1
   93    94	 1 ;       CG2O1      CG301
   93   116	 1 ;       CG2O1      OG2D1
   94    95	 1 ;       CG301      CG331
   94    96	 1 ;       CG301      CG331
   94    97	 1 ;       CG301      CG331
   95   155	 1 ;       CG331       HGA3
   95   156	 1 ;       CG331       HGA3
   95   157	 1 ;       CG331       HGA3
   96   158	 1 ;       CG331       HGA3
   96   159	 1 ;       CG331       HGA3
   96   160	 1 ;       CG331       HGA3
   97   161	 1 ;       CG331       HGA3
   97   162	 1 ;       CG331       HGA3
   97   163	 1 ;       CG331       HGA3
   98    99	 1 ;      CG2R61     CG2R61
   98   103	 1 ;      CG2R61     CG2R61
   99   100	 1 ;      CG2R61     CG2R61
   99   164	 1 ;      CG2R61      HGR61
  100   101	 1 ;      CG2R61     CG2R61
  100   165	 1 ;      CG2R61      HGR61
  101   102	 1 ;      CG2R61     CG2R61
  101   166	 1 ;      CG2R61      HGR61
  102   103	 1 ;      CG2R61     CG2R61
  102   167	 1 ;      CG2R61      HGR61
  103   168	 1 ;      CG2R61      HGR61
  107   121	 1 ;       OG311       HGP1
  111   133	 1 ;       OG311       HGP1
  112   144	 1 ;       OG311       HGP1

[ pairs ]
;	ai	  aj funct			  c0			c1			  c2			c3
    1     4	 1
    1    26	 1
    1    27	 1
    2     5	 1
    2    28	 1
    2    29	 1
    3    21	 1
    3    22	 1
    3    23	 1
    3     6	 1
    3    30	 1
    3    31	 1
    4    24	 1
    4    25	 1
    4     7	 1
    4    32	 1
    4    33	 1
    5    26	 1
    5    27	 1
    5     8	 1
    5    34	 1
    5    35	 1
    6    28	 1
    6    29	 1
    6     9	 1
    6    36	 1
    6    37	 1
    7    30	 1
    7    31	 1
    7    10	 1
    7    38	 1
    7    39	 1
    8    32	 1
    8    33	 1
    8    11	 1
    8    40	 1
    8    41	 1
    9    34	 1
    9    35	 1
    9    12	 1
    9    42	 1
    9    43	 1
   10    36	 1
   10    37	 1
   10    13	 1
   10    44	 1
   10    45	 1
   11    38	 1
   11    39	 1
   11    14	 1
   11    46	 1
   11    47	 1
   12    40	 1
   12    41	 1
   12    15	 1
   12    48	 1
   12    49	 1
   13    42	 1
   13    43	 1
   13    16	 1
   13    20	 1
   13    50	 1
   14    44	 1
   14    45	 1
   14    51	 1
   14    52	 1
   14    53	 1
   14    17	 1
   15    46	 1
   15    47	 1
   15    18	 1
   15    19	 1
   15   104	 1
   16    48	 1
   16    49	 1
   16    17	 1
   17    50	 1
   17    62	 1
   17    92	 1
   17   117	 1
   18    57	 1
   18    58	 1
   18    59	 1
   18    61	 1
   19    54	 1
   19    55	 1
   19    56	 1
   19    61	 1
   20    48	 1
   20    49	 1
   20    51	 1
   20    52	 1
   20    53	 1
   20    54	 1
   20    55	 1
   20    56	 1
   20    57	 1
   20    58	 1
   20    59	 1
   20    61	 1
   21    24	 1
   21    25	 1
   22    24	 1
   22    25	 1
   23    24	 1
   23    25	 1
   24    26	 1
   24    27	 1
   25    26	 1
   25    27	 1
   26    28	 1
   26    29	 1
   27    28	 1
   27    29	 1
   28    30	 1
   28    31	 1
   29    30	 1
   29    31	 1
   30    32	 1
   30    33	 1
   31    32	 1
   31    33	 1
   32    34	 1
   32    35	 1
   33    34	 1
   33    35	 1
   34    36	 1
   34    37	 1
   35    36	 1
   35    37	 1
   36    38	 1
   36    39	 1
   37    38	 1
   37    39	 1
   38    40	 1
   38    41	 1
   39    40	 1
   39    41	 1
   40    42	 1
   40    43	 1
   41    42	 1
   41    43	 1
   42    44	 1
   42    45	 1
   43    44	 1
   43    45	 1
   44    46	 1
   44    47	 1
   45    46	 1
   45    47	 1
   46    48	 1
   46    49	 1
   47    48	 1
   47    49	 1
   48    50	 1
   49    50	 1
   50    51	 1
   50    52	 1
   50    53	 1
   54   104	 1
   55   104	 1
   56   104	 1
   57   104	 1
   58   104	 1
   59   104	 1
   60    62	 1
   60   117	 1
   60   104	 1
   60    99	 1
   60   103	 1
   60    95	 1
   60    96	 1
   60    97	 1
   61    93	 1
   61   154	 1
   61    63	 1
   61    99	 1
   61   103	 1
   62    98	 1
   62   153	 1
   62    64	 1
   62    80	 1
   62   118	 1
   63   105	 1
   63    66	 1
   63    82	 1
   63   107	 1
   63    78	 1
   63   134	 1
   63   135	 1
   63   136	 1
   64    79	 1
   64    81	 1
   64    74	 1
   64   108	 1
   64   122	 1
   64    83	 1
   64    84	 1
   64   121	 1
   65    80	 1
   65   118	 1
   65   106	 1
   65    75	 1
   65    89	 1
   65   128	 1
   65    67	 1
   65    78	 1
   65   137	 1
   65   138	 1
   65   139	 1
   65   140	 1
   65   141	 1
   65   142	 1
   66   119	 1
   66   120	 1
   66    79	 1
   66    83	 1
   66    84	 1
   66   121	 1
   66    68	 1
   66   109	 1
   66    76	 1
   66    77	 1
   66    85	 1
   66    87	 1
   66    88	 1
   66   114	 1
   67    74	 1
   67   122	 1
   67    70	 1
   67   123	 1
   67    72	 1
   67   127	 1
   68    71	 1
   68   124	 1
   68   126	 1
   69   109	 1
   69   108	 1
   69    72	 1
   69   127	 1
   69   125	 1
   70    73	 1
   70   126	 1
   71   123	 1
   71   127	 1
   72   124	 1
   73   109	 1
   73   108	 1
   73   123	 1
   73   125	 1
   74    82	 1
   74   107	 1
   74   129	 1
   74   130	 1
   74   131	 1
   74    78	 1
   74   110	 1
   74    86	 1
   74   112	 1
   74   143	 1
   74   113	 1
   74   147	 1
   74   148	 1
   74   149	 1
   74    90	 1
   75   108	 1
   75   122	 1
   75    87	 1
   75    88	 1
   75   114	 1
   75    79	 1
   75   111	 1
   75   132	 1
   75   145	 1
   75   146	 1
   75   144	 1
   76    89	 1
   76   128	 1
   76    78	 1
   76   110	 1
   76    86	 1
   76   112	 1
   76   143	 1
   77    89	 1
   77   128	 1
   77   129	 1
   77   130	 1
   77   131	 1
   77    86	 1
   77   112	 1
   77   143	 1
   77    80	 1
   77    82	 1
   77   133	 1
   78    85	 1
   78    81	 1
   78    83	 1
   78    84	 1
   79   118	 1
   79   106	 1
   79   107	 1
   79   110	 1
   79   133	 1
   79   134	 1
   79   135	 1
   79   136	 1
   79   137	 1
   79   138	 1
   79   139	 1
   79   140	 1
   79   141	 1
   79   142	 1
   80   119	 1
   80   120	 1
   80   111	 1
   80   132	 1
   80    83	 1
   80    84	 1
   81   118	 1
   81   106	 1
   81    82	 1
   82   119	 1
   82   120	 1
   82   108	 1
   82   122	 1
   82   121	 1
   82   111	 1
   82   132	 1
   83   107	 1
   83   140	 1
   83   141	 1
   83   142	 1
   84   107	 1
   84   137	 1
   84   138	 1
   84   139	 1
   85    89	 1
   85   128	 1
   85   129	 1
   85   130	 1
   85   131	 1
   85   110	 1
   85   113	 1
   85   147	 1
   86   144	 1
   86    88	 1
   86   114	 1
   87   128	 1
   87   112	 1
   87   143	 1
   87   148	 1
   87   149	 1
   87    90	 1
   88   128	 1
   88   147	 1
   88    90	 1
   89   108	 1
   89   122	 1
   89   145	 1
   89   146	 1
   89    91	 1
   89   115	 1
   92    94	 1
   92   116	 1
   92   105	 1
   92   106	 1
   92   100	 1
   92   164	 1
   92   102	 1
   92   168	 1
   93    98	 1
   93   153	 1
   93   155	 1
   93   156	 1
   93   157	 1
   93   158	 1
   93   159	 1
   93   160	 1
   93   161	 1
   93   162	 1
   93   163	 1
   94   154	 1
   95   116	 1
   95   158	 1
   95   159	 1
   95   160	 1
   95   161	 1
   95   162	 1
   95   163	 1
   96   116	 1
   96   155	 1
   96   156	 1
   96   157	 1
   96   161	 1
   96   162	 1
   96   163	 1
   97   116	 1
   97   155	 1
   97   156	 1
   97   157	 1
   97   158	 1
   97   159	 1
   97   160	 1
   98   154	 1
   98   117	 1
   98   104	 1
   98   101	 1
   98   165	 1
   98   167	 1
   99   153	 1
   99   102	 1
   99   168	 1
   99   166	 1
  100   103	 1
  100   167	 1
  101   164	 1
  101   168	 1
  102   165	 1
  103   153	 1
  103   164	 1
  103   166	 1
  104   105	 1
  104   106	 1
  104   153	 1
  105   117	 1
  106   117	 1
  106   119	 1
  106   120	 1
  107   119	 1
  107   120	 1
  107   108	 1
  107   122	 1
  108   128	 1
  110   111	 1
  110   132	 1
  112   145	 1
  112   146	 1
  113   145	 1
  113   146	 1
  113   114	 1
  114   128	 1
  114   147	 1
  114   148	 1
  114   149	 1
  114   150	 1
  114   151	 1
  114   152	 1
  115   150	 1
  115   151	 1
  115   152	 1
  116   154	 1
  117   153	 1
  118   119	 1
  118   120	 1
  122   128	 1
  123   124	 1
  124   125	 1
  125   126	 1
  126   127	 1
  132   133	 1
  143   145	 1
  143   146	 1
  143   144	 1
  145   147	 1
  146   147	 1
  153   154	 1
  164   165	 1
  165   166	 1
  166   167	 1
  167   168	 1

[ angles ]
;	ai	  aj	ak funct			c0			  c1			c2			  c3
    2     1    21	5 ;      CG321      CG331       HGA3
    2     1    22	5 ;      CG321      CG331       HGA3
    2     1    23	5 ;      CG321      CG331       HGA3
   21     1    22	5 ;       HGA3      CG331       HGA3
   21     1    23	5 ;       HGA3      CG331       HGA3
   22     1    23	5 ;       HGA3      CG331       HGA3
    1     2     3	5 ;      CG331      CG321      CG321
    1     2    24	5 ;      CG331      CG321       HGA2
    1     2    25	5 ;      CG331      CG321       HGA2
    3     2    24	5 ;      CG321      CG321       HGA2
    3     2    25	5 ;      CG321      CG321       HGA2
   24     2    25	5 ;       HGA2      CG321       HGA2
    2     3     4	5 ;      CG321      CG321      CG321
    2     3    26	5 ;      CG321      CG321       HGA2
    2     3    27	5 ;      CG321      CG321       HGA2
    4     3    26	5 ;      CG321      CG321       HGA2
    4     3    27	5 ;      CG321      CG321       HGA2
   26     3    27	5 ;       HGA2      CG321       HGA2
    3     4     5	5 ;      CG321      CG321      CG321
    3     4    28	5 ;      CG321      CG321       HGA2
    3     4    29	5 ;      CG321      CG321       HGA2
    5     4    28	5 ;      CG321      CG321       HGA2
    5     4    29	5 ;      CG321      CG321       HGA2
   28     4    29	5 ;       HGA2      CG321       HGA2
    4     5     6	5 ;      CG321      CG321      CG321
    4     5    30	5 ;      CG321      CG321       HGA2
    4     5    31	5 ;      CG321      CG321       HGA2
    6     5    30	5 ;      CG321      CG321       HGA2
    6     5    31	5 ;      CG321      CG321       HGA2
   30     5    31	5 ;       HGA2      CG321       HGA2
    5     6     7	5 ;      CG321      CG321      CG321
    5     6    32	5 ;      CG321      CG321       HGA2
    5     6    33	5 ;      CG321      CG321       HGA2
    7     6    32	5 ;      CG321      CG321       HGA2
    7     6    33	5 ;      CG321      CG321       HGA2
   32     6    33	5 ;       HGA2      CG321       HGA2
    6     7     8	5 ;      CG321      CG321      CG321
    6     7    34	5 ;      CG321      CG321       HGA2
    6     7    35	5 ;      CG321      CG321       HGA2
    8     7    34	5 ;      CG321      CG321       HGA2
    8     7    35	5 ;      CG321      CG321       HGA2
   34     7    35	5 ;       HGA2      CG321       HGA2
    7     8     9	5 ;      CG321      CG321      CG321
    7     8    36	5 ;      CG321      CG321       HGA2
    7     8    37	5 ;      CG321      CG321       HGA2
    9     8    36	5 ;      CG321      CG321       HGA2
    9     8    37	5 ;      CG321      CG321       HGA2
   36     8    37	5 ;       HGA2      CG321       HGA2
    8     9    10	5 ;      CG321      CG321      CG321
    8     9    38	5 ;      CG321      CG321       HGA2
    8     9    39	5 ;      CG321      CG321       HGA2
   10     9    38	5 ;      CG321      CG321       HGA2
   10     9    39	5 ;      CG321      CG321       HGA2
   38     9    39	5 ;       HGA2      CG321       HGA2
    9    10    11	5 ;      CG321      CG321      CG321
    9    10    40	5 ;      CG321      CG321       HGA2
    9    10    41	5 ;      CG321      CG321       HGA2
   11    10    40	5 ;      CG321      CG321       HGA2
   11    10    41	5 ;      CG321      CG321       HGA2
   40    10    41	5 ;       HGA2      CG321       HGA2
   10    11    12	5 ;      CG321      CG321      CG321
   10    11    42	5 ;      CG321      CG321       HGA2
   10    11    43	5 ;      CG321      CG321       HGA2
   12    11    42	5 ;      CG321      CG321       HGA2
   12    11    43	5 ;      CG321      CG321       HGA2
   42    11    43	5 ;       HGA2      CG321       HGA2
   11    12    13	5 ;      CG321      CG321      CG321
   11    12    44	5 ;      CG321      CG321       HGA2
   11    12    45	5 ;      CG321      CG321       HGA2
   13    12    44	5 ;      CG321      CG321       HGA2
   13    12    45	5 ;      CG321      CG321       HGA2
   44    12    45	5 ;       HGA2      CG321       HGA2
   12    13    14	5 ;      CG321      CG321      CG321
   12    13    46	5 ;      CG321      CG321       HGA2
   12    13    47	5 ;      CG321      CG321       HGA2
   14    13    46	5 ;      CG321      CG321       HGA2
   14    13    47	5 ;      CG321      CG321       HGA2
   46    13    47	5 ;       HGA2      CG321       HGA2
   13    14    15	5 ;      CG321      CG321      CG311
   13    14    48	5 ;      CG321      CG321       HGA2
   13    14    49	5 ;      CG321      CG321       HGA2
   15    14    48	5 ;      CG311      CG321       HGA2
   15    14    49	5 ;      CG311      CG321       HGA2
   48    14    49	5 ;       HGA2      CG321       HGA2
   14    15    16	5 ;      CG321      CG311      CG331
   14    15    20	5 ;      CG321      CG311      OG301
   14    15    50	5 ;      CG321      CG311       HGA1
   16    15    20	5 ;      CG331      CG311      OG301
   16    15    50	5 ;      CG331      CG311       HGA1
   20    15    50	5 ;      OG301      CG311       HGA1
   15    16    51	5 ;      CG311      CG331       HGA3
   15    16    52	5 ;      CG311      CG331       HGA3
   15    16    53	5 ;      CG311      CG331       HGA3
   51    16    52	5 ;       HGA3      CG331       HGA3
   51    16    53	5 ;       HGA3      CG331       HGA3
   52    16    53	5 ;       HGA3      CG331       HGA3
   18    17    19	5 ;      CG331      CG301      CG331
   18    17   104	5 ;      CG331      CG301      OG301
   18    17    20	5 ;      CG331      CG301      OG301
   19    17   104	5 ;      CG331      CG301      OG301
   19    17    20	5 ;      CG331      CG301      OG301
  104    17    20	5 ;      OG301      CG301      OG301
   17    18    54	5 ;      CG301      CG331       HGA3
   17    18    55	5 ;      CG301      CG331       HGA3
   17    18    56	5 ;      CG301      CG331       HGA3
   54    18    55	5 ;       HGA3      CG331       HGA3
   54    18    56	5 ;       HGA3      CG331       HGA3
   55    18    56	5 ;       HGA3      CG331       HGA3
   17    19    57	5 ;      CG301      CG331       HGA3
   17    19    58	5 ;      CG301      CG331       HGA3
   17    19    59	5 ;      CG301      CG331       HGA3
   57    19    58	5 ;       HGA3      CG331       HGA3
   57    19    59	5 ;       HGA3      CG331       HGA3
   58    19    59	5 ;       HGA3      CG331       HGA3
   15    20    17	5 ;      CG311      OG301      CG301
   93    60   154	5 ;      CG2O1      NG2S1       HGP1
   93    60    92	5 ;      CG2O1      NG2S1      CG311
  154    60    92	5 ;       HGP1      NG2S1      CG311
   62    61    92	5 ;      CG2O2      CG311      CG311
   62    61   117	5 ;      CG2O2      CG311       HGA1
   62    61   104	5 ;      CG2O2      CG311      OG301
   92    61   117	5 ;      CG311      CG311       HGA1
   92    61   104	5 ;      CG311      CG311      OG301
  117    61   104	5 ;       HGA1      CG311      OG301
   61    62   105	5 ;      CG311      CG2O2      OG2D1
   61    62   106	5 ;      CG311      CG2O2      OG302
  105    62   106	5 ;      OG2D1      CG2O2      OG302
   64    63    80	5 ;      CG321      CG311      CG2D1
   64    63   118	5 ;      CG321      CG311       HGA1
   64    63   106	5 ;      CG321      CG311      OG302
   80    63   118	5 ;      CG2D1      CG311       HGA1
   80    63   106	5 ;      CG2D1      CG311      OG302
  118    63   106	5 ;       HGA1      CG311      OG302
   63    64    65	5 ;      CG311      CG321      CG301
   63    64   119	5 ;      CG311      CG321       HGA2
   63    64   120	5 ;      CG311      CG321       HGA2
   65    64   119	5 ;      CG301      CG321       HGA2
   65    64   120	5 ;      CG301      CG321       HGA2
  119    64   120	5 ;       HGA2      CG321       HGA2
   64    65    66	5 ;      CG321      CG301      CG311
   64    65    82	5 ;      CG321      CG301      CG301
   64    65   107	5 ;      CG321      CG301      OG311
   66    65    82	5 ;      CG311      CG301      CG301
   66    65   107	5 ;      CG311      CG301      OG311
   82    65   107	5 ;      CG301      CG301      OG311
   65    66    74	5 ;      CG301      CG311      CG311
   65    66   108	5 ;      CG301      CG311      OG302
   65    66   122	5 ;      CG301      CG311       HGA1
   74    66   108	5 ;      CG311      CG311      OG302
   74    66   122	5 ;      CG311      CG311       HGA1
  108    66   122	5 ;      OG302      CG311       HGA1
   68    67   109	5 ;     CG2R61      CG2O2      OG2D1
   68    67   108	5 ;     CG2R61      CG2O2      OG302
  109    67   108	5 ;      OG2D1      CG2O2      OG302
   67    68    69	5 ;      CG2O2     CG2R61     CG2R61
   67    68    73	5 ;      CG2O2     CG2R61     CG2R61
   69    68    73	5 ;     CG2R61     CG2R61     CG2R61
   68    69    70	5 ;     CG2R61     CG2R61     CG2R61
   68    69   123	5 ;     CG2R61     CG2R61      HGR61
   70    69   123	5 ;     CG2R61     CG2R61      HGR61
   69    70    71	5 ;     CG2R61     CG2R61     CG2R61
   69    70   124	5 ;     CG2R61     CG2R61      HGR61
   71    70   124	5 ;     CG2R61     CG2R61      HGR61
   70    71    72	5 ;     CG2R61     CG2R61     CG2R61
   70    71   125	5 ;     CG2R61     CG2R61      HGR61
   72    71   125	5 ;     CG2R61     CG2R61      HGR61
   71    72    73	5 ;     CG2R61     CG2R61     CG2R61
   71    72   126	5 ;     CG2R61     CG2R61      HGR61
   73    72   126	5 ;     CG2R61     CG2R61      HGR61
   68    73    72	5 ;     CG2R61     CG2R61     CG2R61
   68    73   127	5 ;     CG2R61     CG2R61      HGR61
   72    73   127	5 ;     CG2R61     CG2R61      HGR61
   66    74    75	5 ;      CG311      CG311      CG301
   66    74    89	5 ;      CG311      CG311     CG3RC1
   66    74   128	5 ;      CG311      CG311       HGA1
   75    74    89	5 ;      CG301      CG311     CG3RC1
   75    74   128	5 ;      CG301      CG311       HGA1
   89    74   128	5 ;     CG3RC1      CG311       HGA1
   74    75    76	5 ;      CG311      CG301      CG331
   74    75    77	5 ;      CG311      CG301      CG2O5
   74    75    85	5 ;      CG311      CG301      CG311
   76    75    77	5 ;      CG331      CG301      CG2O5
   76    75    85	5 ;      CG331      CG301      CG311
   77    75    85	5 ;      CG2O5      CG301      CG311
   75    76   129	5 ;      CG301      CG331       HGA3
   75    76   130	5 ;      CG301      CG331       HGA3
   75    76   131	5 ;      CG301      CG331       HGA3
  129    76   130	5 ;       HGA3      CG331       HGA3
  129    76   131	5 ;       HGA3      CG331       HGA3
  130    76   131	5 ;       HGA3      CG331       HGA3
   75    77    78	5 ;      CG301      CG2O5      CG311
   75    77   110	5 ;      CG301      CG2O5      OG2D3
   78    77   110	5 ;      CG311      CG2O5      OG2D3
   77    78    79	5 ;      CG2O5      CG311      CG2D1
   77    78   111	5 ;      CG2O5      CG311      OG311
   77    78   132	5 ;      CG2O5      CG311       HGA1
   79    78   111	5 ;      CG2D1      CG311      OG311
   79    78   132	5 ;      CG2D1      CG311       HGA1
  111    78   132	5 ;      OG311      CG311       HGA1
   78    79    80	5 ;      CG311      CG2D1      CG2D1
   78    79    82	5 ;      CG311      CG2D1      CG301
   80    79    82	5 ;      CG2D1      CG2D1      CG301
   63    80    79	5 ;      CG311      CG2D1      CG2D1
   63    80    81	5 ;      CG311      CG2D1      CG331
   79    80    81	5 ;      CG2D1      CG2D1      CG331
   80    81   134	5 ;      CG2D1      CG331       HGA3
   80    81   135	5 ;      CG2D1      CG331       HGA3
   80    81   136	5 ;      CG2D1      CG331       HGA3
  134    81   135	5 ;       HGA3      CG331       HGA3
  134    81   136	5 ;       HGA3      CG331       HGA3
  135    81   136	5 ;       HGA3      CG331       HGA3
   65    82    79	5 ;      CG301      CG301      CG2D1
   65    82    83	5 ;      CG301      CG301      CG331
   65    82    84	5 ;      CG301      CG301      CG331
   79    82    83	5 ;      CG2D1      CG301      CG331
   79    82    84	5 ;      CG2D1      CG301      CG331
   83    82    84	5 ;      CG331      CG301      CG331
   82    83   137	5 ;      CG301      CG331       HGA3
   82    83   138	5 ;      CG301      CG331       HGA3
   82    83   139	5 ;      CG301      CG331       HGA3
  137    83   138	5 ;       HGA3      CG331       HGA3
  137    83   139	5 ;       HGA3      CG331       HGA3
  138    83   139	5 ;       HGA3      CG331       HGA3
   82    84   140	5 ;      CG301      CG331       HGA3
   82    84   141	5 ;      CG301      CG331       HGA3
   82    84   142	5 ;      CG301      CG331       HGA3
  140    84   141	5 ;       HGA3      CG331       HGA3
  140    84   142	5 ;       HGA3      CG331       HGA3
  141    84   142	5 ;       HGA3      CG331       HGA3
   75    85    86	5 ;      CG301      CG311      CG321
   75    85   112	5 ;      CG301      CG311      OG311
   75    85   143	5 ;      CG301      CG311       HGA1
   86    85   112	5 ;      CG321      CG311      OG311
   86    85   143	5 ;      CG321      CG311       HGA1
  112    85   143	5 ;      OG311      CG311       HGA1
   85    86    87	5 ;      CG311      CG321     CG3RC1
   85    86   145	5 ;      CG311      CG321       HGA2
   85    86   146	5 ;      CG311      CG321       HGA2
   87    86   145	5 ;     CG3RC1      CG321       HGA2
   87    86   146	5 ;     CG3RC1      CG321       HGA2
  145    86   146	5 ;       HGA2      CG321       HGA2
   86    87    89	5 ;      CG321     CG3RC1     CG3RC1
   86    87   113	5 ;      CG321     CG3RC1     OG3C51
   86    87   147	5 ;      CG321     CG3RC1       HGA1
   89    87   113	5 ;     CG3RC1     CG3RC1     OG3C51
   89    87   147	5 ;     CG3RC1     CG3RC1       HGA1
  113    87   147	5 ;     OG3C51     CG3RC1       HGA1
   89    88   148	5 ;     CG3RC1     CG3C41       HGA2
   89    88   149	5 ;     CG3RC1     CG3C41       HGA2
   89    88   113	5 ;     CG3RC1     CG3C41     OG3C51
  148    88   149	5 ;       HGA2     CG3C41       HGA2
  148    88   113	5 ;       HGA2     CG3C41     OG3C51
  149    88   113	5 ;       HGA2     CG3C41     OG3C51
   74    89    87	5 ;      CG311     CG3RC1     CG3RC1
   74    89    88	5 ;      CG311     CG3RC1     CG3C41
   74    89   114	5 ;      CG311     CG3RC1      OG302
   87    89    88	5 ;     CG3RC1     CG3RC1     CG3C41
   87    89   114	5 ;     CG3RC1     CG3RC1      OG302
   88    89   114	5 ;     CG3C41     CG3RC1      OG302
   91    90   115	5 ;      CG331      CG2O2      OG2D1
   91    90   114	5 ;      CG331      CG2O2      OG302
  115    90   114	5 ;      OG2D1      CG2O2      OG302
   90    91   150	5 ;      CG2O2      CG331       HGA3
   90    91   151	5 ;      CG2O2      CG331       HGA3
   90    91   152	5 ;      CG2O2      CG331       HGA3
  150    91   151	5 ;       HGA3      CG331       HGA3
  150    91   152	5 ;       HGA3      CG331       HGA3
  151    91   152	5 ;       HGA3      CG331       HGA3
   61    92    60	5 ;      CG311      CG311      NG2S1
   61    92    98	5 ;      CG311      CG311     CG2R61
   61    92   153	5 ;      CG311      CG311       HGA1
   60    92    98	5 ;      NG2S1      CG311     CG2R61
   60    92   153	5 ;      NG2S1      CG311       HGA1
   98    92   153	5 ;     CG2R61      CG311       HGA1
   60    93    94	5 ;      NG2S1      CG2O1      CG301
   60    93   116	5 ;      NG2S1      CG2O1      OG2D1
   94    93   116	5 ;      CG301      CG2O1      OG2D1
   93    94    95	5 ;      CG2O1      CG301      CG331
   93    94    96	5 ;      CG2O1      CG301      CG331
   93    94    97	5 ;      CG2O1      CG301      CG331
   95    94    96	5 ;      CG331      CG301      CG331
   95    94    97	5 ;      CG331      CG301      CG331
   96    94    97	5 ;      CG331      CG301      CG331
   94    95   155	5 ;      CG301      CG331       HGA3
   94    95   156	5 ;      CG301      CG331       HGA3
   94    95   157	5 ;      CG301      CG331       HGA3
  155    95   156	5 ;       HGA3      CG331       HGA3
  155    95   157	5 ;       HGA3      CG331       HGA3
  156    95   157	5 ;       HGA3      CG331       HGA3
   94    96   158	5 ;      CG301      CG331       HGA3
   94    96   159	5 ;      CG301      CG331       HGA3
   94    96   160	5 ;      CG301      CG331       HGA3
  158    96   159	5 ;       HGA3      CG331       HGA3
  158    96   160	5 ;       HGA3      CG331       HGA3
  159    96   160	5 ;       HGA3      CG331       HGA3
   94    97   161	5 ;      CG301      CG331       HGA3
   94    97   162	5 ;      CG301      CG331       HGA3
   94    97   163	5 ;      CG301      CG331       HGA3
  161    97   162	5 ;       HGA3      CG331       HGA3
  161    97   163	5 ;       HGA3      CG331       HGA3
  162    97   163	5 ;       HGA3      CG331       HGA3
   92    98    99	5 ;      CG311     CG2R61     CG2R61
   92    98   103	5 ;      CG311     CG2R61     CG2R61
   99    98   103	5 ;     CG2R61     CG2R61     CG2R61
   98    99   100	5 ;     CG2R61     CG2R61     CG2R61
   98    99   164	5 ;     CG2R61     CG2R61      HGR61
  100    99   164	5 ;     CG2R61     CG2R61      HGR61
   99   100   101	5 ;     CG2R61     CG2R61     CG2R61
   99   100   165	5 ;     CG2R61     CG2R61      HGR61
  101   100   165	5 ;     CG2R61     CG2R61      HGR61
  100   101   102	5 ;     CG2R61     CG2R61     CG2R61
  100   101   166	5 ;     CG2R61     CG2R61      HGR61
  102   101   166	5 ;     CG2R61     CG2R61      HGR61
  101   102   103	5 ;     CG2R61     CG2R61     CG2R61
  101   102   167	5 ;     CG2R61     CG2R61      HGR61
  103   102   167	5 ;     CG2R61     CG2R61      HGR61
   98   103   102	5 ;     CG2R61     CG2R61     CG2R61
   98   103   168	5 ;     CG2R61     CG2R61      HGR61
  102   103   168	5 ;     CG2R61     CG2R61      HGR61
   17   104    61	5 ;      CG301      OG301      CG311
   62   106    63	5 ;      CG2O2      OG302      CG311
   65   107   121	5 ;      CG301      OG311       HGP1
   66   108    67	5 ;      CG311      OG302      CG2O2
   78   111   133	5 ;      CG311      OG311       HGP1
   85   112   144	5 ;      CG311      OG311       HGP1
   87   113    88	5 ;     CG3RC1     OG3C51     CG3C41
   89   114    90	5 ;     CG3RC1      OG302      CG2O2

[ dihedrals ]
;	ai	  aj	ak	  al funct			  c0			c1			  c2			c3			  c4			c5
   21     1     2     3	 9 ;       HGA3      CG331      CG321      CG321
   21     1     2    24	 9 ;       HGA3      CG331      CG321       HGA2
   21     1     2    25	 9 ;       HGA3      CG331      CG321       HGA2
   22     1     2     3	 9 ;       HGA3      CG331      CG321      CG321
   22     1     2    24	 9 ;       HGA3      CG331      CG321       HGA2
   22     1     2    25	 9 ;       HGA3      CG331      CG321       HGA2
   23     1     2     3	 9 ;       HGA3      CG331      CG321      CG321
   23     1     2    24	 9 ;       HGA3      CG331      CG321       HGA2
   23     1     2    25	 9 ;       HGA3      CG331      CG321       HGA2
    1     2     3     4	 9 ;      CG331      CG321      CG321      CG321
    1     2     3    26	 9 ;      CG331      CG321      CG321       HGA2
    1     2     3    27	 9 ;      CG331      CG321      CG321       HGA2
   24     2     3     4	 9 ;       HGA2      CG321      CG321      CG321
   24     2     3    26	 9 ;       HGA2      CG321      CG321       HGA2
   24     2     3    27	 9 ;       HGA2      CG321      CG321       HGA2
   25     2     3     4	 9 ;       HGA2      CG321      CG321      CG321
   25     2     3    26	 9 ;       HGA2      CG321      CG321       HGA2
   25     2     3    27	 9 ;       HGA2      CG321      CG321       HGA2
    2     3     4     5	 9 ;      CG321      CG321      CG321      CG321
    2     3     4    28	 9 ;      CG321      CG321      CG321       HGA2
    2     3     4    29	 9 ;      CG321      CG321      CG321       HGA2
   26     3     4     5	 9 ;       HGA2      CG321      CG321      CG321
   26     3     4    28	 9 ;       HGA2      CG321      CG321       HGA2
   26     3     4    29	 9 ;       HGA2      CG321      CG321       HGA2
   27     3     4     5	 9 ;       HGA2      CG321      CG321      CG321
   27     3     4    28	 9 ;       HGA2      CG321      CG321       HGA2
   27     3     4    29	 9 ;       HGA2      CG321      CG321       HGA2
    3     4     5     6	 9 ;      CG321      CG321      CG321      CG321
    3     4     5    30	 9 ;      CG321      CG321      CG321       HGA2
    3     4     5    31	 9 ;      CG321      CG321      CG321       HGA2
   28     4     5     6	 9 ;       HGA2      CG321      CG321      CG321
   28     4     5    30	 9 ;       HGA2      CG321      CG321       HGA2
   28     4     5    31	 9 ;       HGA2      CG321      CG321       HGA2
   29     4     5     6	 9 ;       HGA2      CG321      CG321      CG321
   29     4     5    30	 9 ;       HGA2      CG321      CG321       HGA2
   29     4     5    31	 9 ;       HGA2      CG321      CG321       HGA2
    4     5     6     7	 9 ;      CG321      CG321      CG321      CG321
    4     5     6    32	 9 ;      CG321      CG321      CG321       HGA2
    4     5     6    33	 9 ;      CG321      CG321      CG321       HGA2
   30     5     6     7	 9 ;       HGA2      CG321      CG321      CG321
   30     5     6    32	 9 ;       HGA2      CG321      CG321       HGA2
   30     5     6    33	 9 ;       HGA2      CG321      CG321       HGA2
   31     5     6     7	 9 ;       HGA2      CG321      CG321      CG321
   31     5     6    32	 9 ;       HGA2      CG321      CG321       HGA2
   31     5     6    33	 9 ;       HGA2      CG321      CG321       HGA2
    5     6     7     8	 9 ;      CG321      CG321      CG321      CG321
    5     6     7    34	 9 ;      CG321      CG321      CG321       HGA2
    5     6     7    35	 9 ;      CG321      CG321      CG321       HGA2
   32     6     7     8	 9 ;       HGA2      CG321      CG321      CG321
   32     6     7    34	 9 ;       HGA2      CG321      CG321       HGA2
   32     6     7    35	 9 ;       HGA2      CG321      CG321       HGA2
   33     6     7     8	 9 ;       HGA2      CG321      CG321      CG321
   33     6     7    34	 9 ;       HGA2      CG321      CG321       HGA2
   33     6     7    35	 9 ;       HGA2      CG321      CG321       HGA2
    6     7     8     9	 9 ;      CG321      CG321      CG321      CG321
    6     7     8    36	 9 ;      CG321      CG321      CG321       HGA2
    6     7     8    37	 9 ;      CG321      CG321      CG321       HGA2
   34     7     8     9	 9 ;       HGA2      CG321      CG321      CG321
   34     7     8    36	 9 ;       HGA2      CG321      CG321       HGA2
   34     7     8    37	 9 ;       HGA2      CG321      CG321       HGA2
   35     7     8     9	 9 ;       HGA2      CG321      CG321      CG321
   35     7     8    36	 9 ;       HGA2      CG321      CG321       HGA2
   35     7     8    37	 9 ;       HGA2      CG321      CG321       HGA2
    7     8     9    10	 9 ;      CG321      CG321      CG321      CG321
    7     8     9    38	 9 ;      CG321      CG321      CG321       HGA2
    7     8     9    39	 9 ;      CG321      CG321      CG321       HGA2
   36     8     9    10	 9 ;       HGA2      CG321      CG321      CG321
   36     8     9    38	 9 ;       HGA2      CG321      CG321       HGA2
   36     8     9    39	 9 ;       HGA2      CG321      CG321       HGA2
   37     8     9    10	 9 ;       HGA2      CG321      CG321      CG321
   37     8     9    38	 9 ;       HGA2      CG321      CG321       HGA2
   37     8     9    39	 9 ;       HGA2      CG321      CG321       HGA2
    8     9    10    11	 9 ;      CG321      CG321      CG321      CG321
    8     9    10    40	 9 ;      CG321      CG321      CG321       HGA2
    8     9    10    41	 9 ;      CG321      CG321      CG321       HGA2
   38     9    10    11	 9 ;       HGA2      CG321      CG321      CG321
   38     9    10    40	 9 ;       HGA2      CG321      CG321       HGA2
   38     9    10    41	 9 ;       HGA2      CG321      CG321       HGA2
   39     9    10    11	 9 ;       HGA2      CG321      CG321      CG321
   39     9    10    40	 9 ;       HGA2      CG321      CG321       HGA2
   39     9    10    41	 9 ;       HGA2      CG321      CG321       HGA2
    9    10    11    12	 9 ;      CG321      CG321      CG321      CG321
    9    10    11    42	 9 ;      CG321      CG321      CG321       HGA2
    9    10    11    43	 9 ;      CG321      CG321      CG321       HGA2
   40    10    11    12	 9 ;       HGA2      CG321      CG321      CG321
   40    10    11    42	 9 ;       HGA2      CG321      CG321       HGA2
   40    10    11    43	 9 ;       HGA2      CG321      CG321       HGA2
   41    10    11    12	 9 ;       HGA2      CG321      CG321      CG321
   41    10    11    42	 9 ;       HGA2      CG321      CG321       HGA2
   41    10    11    43	 9 ;       HGA2      CG321      CG321       HGA2
   10    11    12    13	 9 ;      CG321      CG321      CG321      CG321
   10    11    12    44	 9 ;      CG321      CG321      CG321       HGA2
   10    11    12    45	 9 ;      CG321      CG321      CG321       HGA2
   42    11    12    13	 9 ;       HGA2      CG321      CG321      CG321
   42    11    12    44	 9 ;       HGA2      CG321      CG321       HGA2
   42    11    12    45	 9 ;       HGA2      CG321      CG321       HGA2
   43    11    12    13	 9 ;       HGA2      CG321      CG321      CG321
   43    11    12    44	 9 ;       HGA2      CG321      CG321       HGA2
   43    11    12    45	 9 ;       HGA2      CG321      CG321       HGA2
   11    12    13    14	 9 ;      CG321      CG321      CG321      CG321
   11    12    13    46	 9 ;      CG321      CG321      CG321       HGA2
   11    12    13    47	 9 ;      CG321      CG321      CG321       HGA2
   44    12    13    14	 9 ;       HGA2      CG321      CG321      CG321
   44    12    13    46	 9 ;       HGA2      CG321      CG321       HGA2
   44    12    13    47	 9 ;       HGA2      CG321      CG321       HGA2
   45    12    13    14	 9 ;       HGA2      CG321      CG321      CG321
   45    12    13    46	 9 ;       HGA2      CG321      CG321       HGA2
   45    12    13    47	 9 ;       HGA2      CG321      CG321       HGA2
   12    13    14    15	 9 ;      CG321      CG321      CG321      CG311
   12    13    14    48	 9 ;      CG321      CG321      CG321       HGA2
   12    13    14    49	 9 ;      CG321      CG321      CG321       HGA2
   46    13    14    15	 9 ;       HGA2      CG321      CG321      CG311
   46    13    14    48	 9 ;       HGA2      CG321      CG321       HGA2
   46    13    14    49	 9 ;       HGA2      CG321      CG321       HGA2
   47    13    14    15	 9 ;       HGA2      CG321      CG321      CG311
   47    13    14    48	 9 ;       HGA2      CG321      CG321       HGA2
   47    13    14    49	 9 ;       HGA2      CG321      CG321       HGA2
   13    14    15    16	 9 ;      CG321      CG321      CG311      CG331
   13    14    15    20	 9 ;      CG321      CG321      CG311      OG301
   13    14    15    50	 9 ;      CG321      CG321      CG311       HGA1
   48    14    15    16	 9 ;       HGA2      CG321      CG311      CG331
   48    14    15    20	 9 ;       HGA2      CG321      CG311      OG301
   48    14    15    50	 9 ;       HGA2      CG321      CG311       HGA1
   49    14    15    16	 9 ;       HGA2      CG321      CG311      CG331
   49    14    15    20	 9 ;       HGA2      CG321      CG311      OG301
   49    14    15    50	 9 ;       HGA2      CG321      CG311       HGA1
   14    15    16    51	 9 ;      CG321      CG311      CG331       HGA3
   14    15    16    52	 9 ;      CG321      CG311      CG331       HGA3
   14    15    16    53	 9 ;      CG321      CG311      CG331       HGA3
   20    15    16    51	 9 ;      OG301      CG311      CG331       HGA3
   20    15    16    52	 9 ;      OG301      CG311      CG331       HGA3
   20    15    16    53	 9 ;      OG301      CG311      CG331       HGA3
   50    15    16    51	 9 ;       HGA1      CG311      CG331       HGA3
   50    15    16    52	 9 ;       HGA1      CG311      CG331       HGA3
   50    15    16    53	 9 ;       HGA1      CG311      CG331       HGA3
   14    15    20    17	 9 ;      CG321      CG311      OG301      CG301
   16    15    20    17	 9 ;      CG331      CG311      OG301      CG301
   50    15    20    17	 9 ;       HGA1      CG311      OG301      CG301
   19    17    18    54	 9 ;      CG331      CG301      CG331       HGA3
   19    17    18    55	 9 ;      CG331      CG301      CG331       HGA3
   19    17    18    56	 9 ;      CG331      CG301      CG331       HGA3
  104    17    18    54	 9 ;      OG301      CG301      CG331       HGA3
  104    17    18    55	 9 ;      OG301      CG301      CG331       HGA3
  104    17    18    56	 9 ;      OG301      CG301      CG331       HGA3
   20    17    18    54	 9 ;      OG301      CG301      CG331       HGA3
   20    17    18    55	 9 ;      OG301      CG301      CG331       HGA3
   20    17    18    56	 9 ;      OG301      CG301      CG331       HGA3
   18    17    19    57	 9 ;      CG331      CG301      CG331       HGA3
   18    17    19    58	 9 ;      CG331      CG301      CG331       HGA3
   18    17    19    59	 9 ;      CG331      CG301      CG331       HGA3
  104    17    19    57	 9 ;      OG301      CG301      CG331       HGA3
  104    17    19    58	 9 ;      OG301      CG301      CG331       HGA3
  104    17    19    59	 9 ;      OG301      CG301      CG331       HGA3
   20    17    19    57	 9 ;      OG301      CG301      CG331       HGA3
   20    17    19    58	 9 ;      OG301      CG301      CG331       HGA3
   20    17    19    59	 9 ;      OG301      CG301      CG331       HGA3
   18    17   104    61	 9 ;      CG331      CG301      OG301      CG311
   19    17   104    61	 9 ;      CG331      CG301      OG301      CG311
   20    17   104    61	 9 ;      OG301      CG301      OG301      CG311
   18    17    20    15	 9 ;      CG331      CG301      OG301      CG311
   19    17    20    15	 9 ;      CG331      CG301      OG301      CG311
  104    17    20    15	 9 ;      OG301      CG301      OG301      CG311
  154    60    93    94	 9 ;       HGP1      NG2S1      CG2O1      CG301
  154    60    93   116	 9 ;       HGP1      NG2S1      CG2O1      OG2D1
   92    60    93    94	 9 ;      CG311      NG2S1      CG2O1      CG301
   92    60    93   116	 9 ;      CG311      NG2S1      CG2O1      OG2D1
   93    60    92    61	 9 ;      CG2O1      NG2S1      CG311      CG311
   93    60    92    98	 9 ;      CG2O1      NG2S1      CG311     CG2R61
   93    60    92   153	 9 ;      CG2O1      NG2S1      CG311       HGA1
  154    60    92    61	 9 ;       HGP1      NG2S1      CG311      CG311
  154    60    92    98	 9 ;       HGP1      NG2S1      CG311     CG2R61
  154    60    92   153	 9 ;       HGP1      NG2S1      CG311       HGA1
   92    61    62   105	 9 ;      CG311      CG311      CG2O2      OG2D1
   92    61    62   106	 9 ;      CG311      CG311      CG2O2      OG302
  117    61    62   105	 9 ;       HGA1      CG311      CG2O2      OG2D1
  117    61    62   106	 9 ;       HGA1      CG311      CG2O2      OG302
  104    61    62   105	 9 ;      OG301      CG311      CG2O2      OG2D1
  104    61    62   106	 9 ;      OG301      CG311      CG2O2      OG302
   62    61    92    60	 9 ;      CG2O2      CG311      CG311      NG2S1
   62    61    92    98	 9 ;      CG2O2      CG311      CG311     CG2R61
   62    61    92   153	 9 ;      CG2O2      CG311      CG311       HGA1
  117    61    92    60	 9 ;       HGA1      CG311      CG311      NG2S1
  117    61    92    98	 9 ;       HGA1      CG311      CG311     CG2R61
  117    61    92   153	 9 ;       HGA1      CG311      CG311       HGA1
  104    61    92    60	 9 ;      OG301      CG311      CG311      NG2S1
  104    61    92    98	 9 ;      OG301      CG311      CG311     CG2R61
  104    61    92   153	 9 ;      OG301      CG311      CG311       HGA1
   62    61   104    17	 9 ;      CG2O2      CG311      OG301      CG301
   92    61   104    17	 9 ;      CG311      CG311      OG301      CG301
  117    61   104    17	 9 ;       HGA1      CG311      OG301      CG301
   61    62   106    63	 9 ;      CG311      CG2O2      OG302      CG311
  105    62   106    63	 9 ;      OG2D1      CG2O2      OG302      CG311
   80    63    64    65	 9 ;      CG2D1      CG311      CG321      CG301
   80    63    64   119	 9 ;      CG2D1      CG311      CG321       HGA2
   80    63    64   120	 9 ;      CG2D1      CG311      CG321       HGA2
  118    63    64    65	 9 ;       HGA1      CG311      CG321      CG301
  118    63    64   119	 9 ;       HGA1      CG311      CG321       HGA2
  118    63    64   120	 9 ;       HGA1      CG311      CG321       HGA2
  106    63    64    65	 9 ;      OG302      CG311      CG321      CG301
  106    63    64   119	 9 ;      OG302      CG311      CG321       HGA2
  106    63    64   120	 9 ;      OG302      CG311      CG321       HGA2
   64    63    80    79	 9 ;      CG321      CG311      CG2D1      CG2D1
   64    63    80    81	 9 ;      CG321      CG311      CG2D1      CG331
  118    63    80    79	 9 ;       HGA1      CG311      CG2D1      CG2D1
  118    63    80    81	 9 ;       HGA1      CG311      CG2D1      CG331
  106    63    80    79	 9 ;      OG302      CG311      CG2D1      CG2D1
  106    63    80    81	 9 ;      OG302      CG311      CG2D1      CG331
   64    63   106    62	 9 ;      CG321      CG311      OG302      CG2O2
   80    63   106    62	 9 ;      CG2D1      CG311      OG302      CG2O2
  118    63   106    62	 9 ;       HGA1      CG311      OG302      CG2O2
   63    64    65    66	 9 ;      CG311      CG321      CG301      CG311
   63    64    65    82	 9 ;      CG311      CG321      CG301      CG301
   63    64    65   107	 9 ;      CG311      CG321      CG301      OG311
  119    64    65    66	 9 ;       HGA2      CG321      CG301      CG311
  119    64    65    82	 9 ;       HGA2      CG321      CG301      CG301
  119    64    65   107	 9 ;       HGA2      CG321      CG301      OG311
  120    64    65    66	 9 ;       HGA2      CG321      CG301      CG311
  120    64    65    82	 9 ;       HGA2      CG321      CG301      CG301
  120    64    65   107	 9 ;       HGA2      CG321      CG301      OG311
   64    65    66    74	 9 ;      CG321      CG301      CG311      CG311
   64    65    66   108	 9 ;      CG321      CG301      CG311      OG302
   64    65    66   122	 9 ;      CG321      CG301      CG311       HGA1
   82    65    66    74	 9 ;      CG301      CG301      CG311      CG311
   82    65    66   108	 9 ;      CG301      CG301      CG311      OG302
   82    65    66   122	 9 ;      CG301      CG301      CG311       HGA1
  107    65    66    74	 9 ;      OG311      CG301      CG311      CG311
  107    65    66   108	 9 ;      OG311      CG301      CG311      OG302
  107    65    66   122	 9 ;      OG311      CG301      CG311       HGA1
   64    65    82    79	 9 ;      CG321      CG301      CG301      CG2D1
   64    65    82    83	 9 ;      CG321      CG301      CG301      CG331
   64    65    82    84	 9 ;      CG321      CG301      CG301      CG331
   66    65    82    79	 9 ;      CG311      CG301      CG301      CG2D1
   66    65    82    83	 9 ;      CG311      CG301      CG301      CG331
   66    65    82    84	 9 ;      CG311      CG301      CG301      CG331
  107    65    82    79	 9 ;      OG311      CG301      CG301      CG2D1
  107    65    82    83	 9 ;      OG311      CG301      CG301      CG331
  107    65    82    84	 9 ;      OG311      CG301      CG301      CG331
   64    65   107   121	 9 ;      CG321      CG301      OG311       HGP1
   66    65   107   121	 9 ;      CG311      CG301      OG311       HGP1
   82    65   107   121	 9 ;      CG301      CG301      OG311       HGP1
   65    66    74    75	 9 ;      CG301      CG311      CG311      CG301
   65    66    74    89	 9 ;      CG301      CG311      CG311     CG3RC1
   65    66    74   128	 9 ;      CG301      CG311      CG311       HGA1
  108    66    74    75	 9 ;      OG302      CG311      CG311      CG301
  108    66    74    89	 9 ;      OG302      CG311      CG311     CG3RC1
  108    66    74   128	 9 ;      OG302      CG311      CG311       HGA1
  122    66    74    75	 9 ;       HGA1      CG311      CG311      CG301
  122    66    74    89	 9 ;       HGA1      CG311      CG311     CG3RC1
  122    66    74   128	 9 ;       HGA1      CG311      CG311       HGA1
   65    66   108    67	 9 ;      CG301      CG311      OG302      CG2O2
   74    66   108    67	 9 ;      CG311      CG311      OG302      CG2O2
  122    66   108    67	 9 ;       HGA1      CG311      OG302      CG2O2
  109    67    68    69	 9 ;      OG2D1      CG2O2     CG2R61     CG2R61
  109    67    68    73	 9 ;      OG2D1      CG2O2     CG2R61     CG2R61
  108    67    68    69	 9 ;      OG302      CG2O2     CG2R61     CG2R61
  108    67    68    73	 9 ;      OG302      CG2O2     CG2R61     CG2R61
   68    67   108    66	 9 ;     CG2R61      CG2O2      OG302      CG311
  109    67   108    66	 9 ;      OG2D1      CG2O2      OG302      CG311
   67    68    69    70	 9 ;      CG2O2     CG2R61     CG2R61     CG2R61
   67    68    69   123	 9 ;      CG2O2     CG2R61     CG2R61      HGR61
   73    68    69    70	 9 ;     CG2R61     CG2R61     CG2R61     CG2R61
   73    68    69   123	 9 ;     CG2R61     CG2R61     CG2R61      HGR61
   67    68    73    72	 9 ;      CG2O2     CG2R61     CG2R61     CG2R61
   67    68    73   127	 9 ;      CG2O2     CG2R61     CG2R61      HGR61
   69    68    73    72	 9 ;     CG2R61     CG2R61     CG2R61     CG2R61
   69    68    73   127	 9 ;     CG2R61     CG2R61     CG2R61      HGR61
   68    69    70    71	 9 ;     CG2R61     CG2R61     CG2R61     CG2R61
   68    69    70   124	 9 ;     CG2R61     CG2R61     CG2R61      HGR61
  123    69    70    71	 9 ;      HGR61     CG2R61     CG2R61     CG2R61
  123    69    70   124	 9 ;      HGR61     CG2R61     CG2R61      HGR61
   69    70    71    72	 9 ;     CG2R61     CG2R61     CG2R61     CG2R61
   69    70    71   125	 9 ;     CG2R61     CG2R61     CG2R61      HGR61
  124    70    71    72	 9 ;      HGR61     CG2R61     CG2R61     CG2R61
  124    70    71   125	 9 ;      HGR61     CG2R61     CG2R61      HGR61
   70    71    72    73	 9 ;     CG2R61     CG2R61     CG2R61     CG2R61
   70    71    72   126	 9 ;     CG2R61     CG2R61     CG2R61      HGR61
  125    71    72    73	 9 ;      HGR61     CG2R61     CG2R61     CG2R61
  125    71    72   126	 9 ;      HGR61     CG2R61     CG2R61      HGR61
   71    72    73    68	 9 ;     CG2R61     CG2R61     CG2R61     CG2R61
   71    72    73   127	 9 ;     CG2R61     CG2R61     CG2R61      HGR61
  126    72    73    68	 9 ;      HGR61     CG2R61     CG2R61     CG2R61
  126    72    73   127	 9 ;      HGR61     CG2R61     CG2R61      HGR61
   66    74    75    76	 9 ;      CG311      CG311      CG301      CG331
   66    74    75    77	 9 ;      CG311      CG311      CG301      CG2O5
   66    74    75    85	 9 ;      CG311      CG311      CG301      CG311
   89    74    75    76	 9 ;     CG3RC1      CG311      CG301      CG331
   89    74    75    77	 9 ;     CG3RC1      CG311      CG301      CG2O5
   89    74    75    85	 9 ;     CG3RC1      CG311      CG301      CG311
  128    74    75    76	 9 ;       HGA1      CG311      CG301      CG331
  128    74    75    77	 9 ;       HGA1      CG311      CG301      CG2O5
  128    74    75    85	 9 ;       HGA1      CG311      CG301      CG311
   66    74    89    87	 9 ;      CG311      CG311     CG3RC1     CG3RC1
   66    74    89    88	 9 ;      CG311      CG311     CG3RC1     CG3C41
   66    74    89   114	 9 ;      CG311      CG311     CG3RC1      OG302
   75    74    89    87	 9 ;      CG301      CG311     CG3RC1     CG3RC1
   75    74    89    88	 9 ;      CG301      CG311     CG3RC1     CG3C41
   75    74    89   114	 9 ;      CG301      CG311     CG3RC1      OG302
  128    74    89    87	 9 ;       HGA1      CG311     CG3RC1     CG3RC1
  128    74    89    88	 9 ;       HGA1      CG311     CG3RC1     CG3C41
  128    74    89   114	 9 ;       HGA1      CG311     CG3RC1      OG302
   74    75    76   129	 9 ;      CG311      CG301      CG331       HGA3
   74    75    76   130	 9 ;      CG311      CG301      CG331       HGA3
   74    75    76   131	 9 ;      CG311      CG301      CG331       HGA3
   77    75    76   129	 9 ;      CG2O5      CG301      CG331       HGA3
   77    75    76   130	 9 ;      CG2O5      CG301      CG331       HGA3
   77    75    76   131	 9 ;      CG2O5      CG301      CG331       HGA3
   85    75    76   129	 9 ;      CG311      CG301      CG331       HGA3
   85    75    76   130	 9 ;      CG311      CG301      CG331       HGA3
   85    75    76   131	 9 ;      CG311      CG301      CG331       HGA3
   74    75    77    78	 9 ;      CG311      CG301      CG2O5      CG311
   74    75    77   110	 9 ;      CG311      CG301      CG2O5      OG2D3
   76    75    77    78	 9 ;      CG331      CG301      CG2O5      CG311
   76    75    77   110	 9 ;      CG331      CG301      CG2O5      OG2D3
   85    75    77    78	 9 ;      CG311      CG301      CG2O5      CG311
   85    75    77   110	 9 ;      CG311      CG301      CG2O5      OG2D3
   74    75    85    86	 9 ;      CG311      CG301      CG311      CG321
   74    75    85   112	 9 ;      CG311      CG301      CG311      OG311
   74    75    85   143	 9 ;      CG311      CG301      CG311       HGA1
   76    75    85    86	 9 ;      CG331      CG301      CG311      CG321
   76    75    85   112	 9 ;      CG331      CG301      CG311      OG311
   76    75    85   143	 9 ;      CG331      CG301      CG311       HGA1
   77    75    85    86	 9 ;      CG2O5      CG301      CG311      CG321
   77    75    85   112	 9 ;      CG2O5      CG301      CG311      OG311
   77    75    85   143	 9 ;      CG2O5      CG301      CG311       HGA1
   75    77    78    79	 9 ;      CG301      CG2O5      CG311      CG2D1
   75    77    78   111	 9 ;      CG301      CG2O5      CG311      OG311
   75    77    78   132	 9 ;      CG301      CG2O5      CG311       HGA1
  110    77    78    79	 9 ;      OG2D3      CG2O5      CG311      CG2D1
  110    77    78   111	 9 ;      OG2D3      CG2O5      CG311      OG311
  110    77    78   132	 9 ;      OG2D3      CG2O5      CG311       HGA1
   77    78    79    80	 9 ;      CG2O5      CG311      CG2D1      CG2D1
   77    78    79    82	 9 ;      CG2O5      CG311      CG2D1      CG301
  111    78    79    80	 9 ;      OG311      CG311      CG2D1      CG2D1
  111    78    79    82	 9 ;      OG311      CG311      CG2D1      CG301
  132    78    79    80	 9 ;       HGA1      CG311      CG2D1      CG2D1
  132    78    79    82	 9 ;       HGA1      CG311      CG2D1      CG301
   77    78   111   133	 9 ;      CG2O5      CG311      OG311       HGP1
   79    78   111   133	 9 ;      CG2D1      CG311      OG311       HGP1
  132    78   111   133	 9 ;       HGA1      CG311      OG311       HGP1
   78    79    80    63	 9 ;      CG311      CG2D1      CG2D1      CG311
   78    79    80    81	 9 ;      CG311      CG2D1      CG2D1      CG331
   82    79    80    63	 9 ;      CG301      CG2D1      CG2D1      CG311
   82    79    80    81	 9 ;      CG301      CG2D1      CG2D1      CG331
   78    79    82    65	 9 ;      CG311      CG2D1      CG301      CG301
   78    79    82    83	 9 ;      CG311      CG2D1      CG301      CG331
   78    79    82    84	 9 ;      CG311      CG2D1      CG301      CG331
   80    79    82    65	 9 ;      CG2D1      CG2D1      CG301      CG301
   80    79    82    83	 9 ;      CG2D1      CG2D1      CG301      CG331
   80    79    82    84	 9 ;      CG2D1      CG2D1      CG301      CG331
   63    80    81   134	 9 ;      CG311      CG2D1      CG331       HGA3
   63    80    81   135	 9 ;      CG311      CG2D1      CG331       HGA3
   63    80    81   136	 9 ;      CG311      CG2D1      CG331       HGA3
   79    80    81   134	 9 ;      CG2D1      CG2D1      CG331       HGA3
   79    80    81   135	 9 ;      CG2D1      CG2D1      CG331       HGA3
   79    80    81   136	 9 ;      CG2D1      CG2D1      CG331       HGA3
   65    82    83   137	 9 ;      CG301      CG301      CG331       HGA3
   65    82    83   138	 9 ;      CG301      CG301      CG331       HGA3
   65    82    83   139	 9 ;      CG301      CG301      CG331       HGA3
   79    82    83   137	 9 ;      CG2D1      CG301      CG331       HGA3
   79    82    83   138	 9 ;      CG2D1      CG301      CG331       HGA3
   79    82    83   139	 9 ;      CG2D1      CG301      CG331       HGA3
   84    82    83   137	 9 ;      CG331      CG301      CG331       HGA3
   84    82    83   138	 9 ;      CG331      CG301      CG331       HGA3
   84    82    83   139	 9 ;      CG331      CG301      CG331       HGA3
   65    82    84   140	 9 ;      CG301      CG301      CG331       HGA3
   65    82    84   141	 9 ;      CG301      CG301      CG331       HGA3
   65    82    84   142	 9 ;      CG301      CG301      CG331       HGA3
   79    82    84   140	 9 ;      CG2D1      CG301      CG331       HGA3
   79    82    84   141	 9 ;      CG2D1      CG301      CG331       HGA3
   79    82    84   142	 9 ;      CG2D1      CG301      CG331       HGA3
   83    82    84   140	 9 ;      CG331      CG301      CG331       HGA3
   83    82    84   141	 9 ;      CG331      CG301      CG331       HGA3
   83    82    84   142	 9 ;      CG331      CG301      CG331       HGA3
   75    85    86    87	 9 ;      CG301      CG311      CG321     CG3RC1
   75    85    86   145	 9 ;      CG301      CG311      CG321       HGA2
   75    85    86   146	 9 ;      CG301      CG311      CG321       HGA2
  112    85    86    87	 9 ;      OG311      CG311      CG321     CG3RC1
  112    85    86   145	 9 ;      OG311      CG311      CG321       HGA2
  112    85    86   146	 9 ;      OG311      CG311      CG321       HGA2
  143    85    86    87	 9 ;       HGA1      CG311      CG321     CG3RC1
  143    85    86   145	 9 ;       HGA1      CG311      CG321       HGA2
  143    85    86   146	 9 ;       HGA1      CG311      CG321       HGA2
   75    85   112   144	 9 ;      CG301      CG311      OG311       HGP1
   86    85   112   144	 9 ;      CG321      CG311      OG311       HGP1
  143    85   112   144	 9 ;       HGA1      CG311      OG311       HGP1
   85    86    87    89	 9 ;      CG311      CG321     CG3RC1     CG3RC1
   85    86    87   113	 9 ;      CG311      CG321     CG3RC1     OG3C51
   85    86    87   147	 9 ;      CG311      CG321     CG3RC1       HGA1
  145    86    87    89	 9 ;       HGA2      CG321     CG3RC1     CG3RC1
  145    86    87   113	 9 ;       HGA2      CG321     CG3RC1     OG3C51
  145    86    87   147	 9 ;       HGA2      CG321     CG3RC1       HGA1
  146    86    87    89	 9 ;       HGA2      CG321     CG3RC1     CG3RC1
  146    86    87   113	 9 ;       HGA2      CG321     CG3RC1     OG3C51
  146    86    87   147	 9 ;       HGA2      CG321     CG3RC1       HGA1
   86    87    89    74	 9 ;      CG321     CG3RC1     CG3RC1      CG311
   86    87    89    88	 9 ;      CG321     CG3RC1     CG3RC1     CG3C41
   86    87    89   114	 9 ;      CG321     CG3RC1     CG3RC1      OG302
  113    87    89    74	 9 ;     OG3C51     CG3RC1     CG3RC1      CG311
  113    87    89    88	 9 ;     OG3C51     CG3RC1     CG3RC1     CG3C41
  113    87    89   114	 9 ;     OG3C51     CG3RC1     CG3RC1      OG302
  147    87    89    74	 9 ;       HGA1     CG3RC1     CG3RC1      CG311
  147    87    89    88	 9 ;       HGA1     CG3RC1     CG3RC1     CG3C41
  147    87    89   114	 9 ;       HGA1     CG3RC1     CG3RC1      OG302
   86    87   113    88	 9 ;      CG321     CG3RC1     OG3C51     CG3C41
   89    87   113    88	 9 ;     CG3RC1     CG3RC1     OG3C51     CG3C41
  147    87   113    88	 9 ;       HGA1     CG3RC1     OG3C51     CG3C41
  148    88    89    74	 9 ;       HGA2     CG3C41     CG3RC1      CG311
  148    88    89    87	 9 ;       HGA2     CG3C41     CG3RC1     CG3RC1
  148    88    89   114	 9 ;       HGA2     CG3C41     CG3RC1      OG302
  149    88    89    74	 9 ;       HGA2     CG3C41     CG3RC1      CG311
  149    88    89    87	 9 ;       HGA2     CG3C41     CG3RC1     CG3RC1
  149    88    89   114	 9 ;       HGA2     CG3C41     CG3RC1      OG302
  113    88    89    74	 9 ;     OG3C51     CG3C41     CG3RC1      CG311
  113    88    89    87	 9 ;     OG3C51     CG3C41     CG3RC1     CG3RC1
  113    88    89   114	 9 ;     OG3C51     CG3C41     CG3RC1      OG302
   89    88   113    87	 9 ;     CG3RC1     CG3C41     OG3C51     CG3RC1
  148    88   113    87	 9 ;       HGA2     CG3C41     OG3C51     CG3RC1
  149    88   113    87	 9 ;       HGA2     CG3C41     OG3C51     CG3RC1
   74    89   114    90	 9 ;      CG311     CG3RC1      OG302      CG2O2
   87    89   114    90	 9 ;     CG3RC1     CG3RC1      OG302      CG2O2
   88    89   114    90	 9 ;     CG3C41     CG3RC1      OG302      CG2O2
  115    90    91   150	 9 ;      OG2D1      CG2O2      CG331       HGA3
  115    90    91   151	 9 ;      OG2D1      CG2O2      CG331       HGA3
  115    90    91   152	 9 ;      OG2D1      CG2O2      CG331       HGA3
  114    90    91   150	 9 ;      OG302      CG2O2      CG331       HGA3
  114    90    91   151	 9 ;      OG302      CG2O2      CG331       HGA3
  114    90    91   152	 9 ;      OG302      CG2O2      CG331       HGA3
   91    90   114    89	 9 ;      CG331      CG2O2      OG302     CG3RC1
  115    90   114    89	 9 ;      OG2D1      CG2O2      OG302     CG3RC1
   61    92    98    99	 9 ;      CG311      CG311     CG2R61     CG2R61
   61    92    98   103	 9 ;      CG311      CG311     CG2R61     CG2R61
   60    92    98    99	 9 ;      NG2S1      CG311     CG2R61     CG2R61
   60    92    98   103	 9 ;      NG2S1      CG311     CG2R61     CG2R61
  153    92    98    99	 9 ;       HGA1      CG311     CG2R61     CG2R61
  153    92    98   103	 9 ;       HGA1      CG311     CG2R61     CG2R61
   60    93    94    95	 9 ;      NG2S1      CG2O1      CG301      CG331
   60    93    94    96	 9 ;      NG2S1      CG2O1      CG301      CG331
   60    93    94    97	 9 ;      NG2S1      CG2O1      CG301      CG331
  116    93    94    95	 9 ;      OG2D1      CG2O1      CG301      CG331
  116    93    94    96	 9 ;      OG2D1      CG2O1      CG301      CG331
  116    93    94    97	 9 ;      OG2D1      CG2O1      CG301      CG331
   93    94    95   155	 9 ;      CG2O1      CG301      CG331       HGA3
   93    94    95   156	 9 ;      CG2O1      CG301      CG331       HGA3
   93    94    95   157	 9 ;      CG2O1      CG301      CG331       HGA3
   96    94    95   155	 9 ;      CG331      CG301      CG331       HGA3
   96    94    95   156	 9 ;      CG331      CG301      CG331       HGA3
   96    94    95   157	 9 ;      CG331      CG301      CG331       HGA3
   97    94    95   155	 9 ;      CG331      CG301      CG331       HGA3
   97    94    95   156	 9 ;      CG331      CG301      CG331       HGA3
   97    94    95   157	 9 ;      CG331      CG301      CG331       HGA3
   93    94    96   158	 9 ;      CG2O1      CG301      CG331       HGA3
   93    94    96   159	 9 ;      CG2O1      CG301      CG331       HGA3
   93    94    96   160	 9 ;      CG2O1      CG301      CG331       HGA3
   95    94    96   158	 9 ;      CG331      CG301      CG331       HGA3
   95    94    96   159	 9 ;      CG331      CG301      CG331       HGA3
   95    94    96   160	 9 ;      CG331      CG301      CG331       HGA3
   97    94    96   158	 9 ;      CG331      CG301      CG331       HGA3
   97    94    96   159	 9 ;      CG331      CG301      CG331       HGA3
   97    94    96   160	 9 ;      CG331      CG301      CG331       HGA3
   93    94    97   161	 9 ;      CG2O1      CG301      CG331       HGA3
   93    94    97   162	 9 ;      CG2O1      CG301      CG331       HGA3
   93    94    97   163	 9 ;      CG2O1      CG301      CG331       HGA3
   95    94    97   161	 9 ;      CG331      CG301      CG331       HGA3
   95    94    97   162	 9 ;      CG331      CG301      CG331       HGA3
   95    94    97   163	 9 ;      CG331      CG301      CG331       HGA3
   96    94    97   161	 9 ;      CG331      CG301      CG331       HGA3
   96    94    97   162	 9 ;      CG331      CG301      CG331       HGA3
   96    94    97   163	 9 ;      CG331      CG301      CG331       HGA3
   92    98    99   100	 9 ;      CG311     CG2R61     CG2R61     CG2R61
   92    98    99   164	 9 ;      CG311     CG2R61     CG2R61      HGR61
  103    98    99   100	 9 ;     CG2R61     CG2R61     CG2R61     CG2R61
  103    98    99   164	 9 ;     CG2R61     CG2R61     CG2R61      HGR61
   92    98   103   102	 9 ;      CG311     CG2R61     CG2R61     CG2R61
   92    98   103   168	 9 ;      CG311     CG2R61     CG2R61      HGR61
   99    98   103   102	 9 ;     CG2R61     CG2R61     CG2R61     CG2R61
   99    98   103   168	 9 ;     CG2R61     CG2R61     CG2R61      HGR61
   98    99   100   101	 9 ;     CG2R61     CG2R61     CG2R61     CG2R61
   98    99   100   165	 9 ;     CG2R61     CG2R61     CG2R61      HGR61
  164    99   100   101	 9 ;      HGR61     CG2R61     CG2R61     CG2R61
  164    99   100   165	 9 ;      HGR61     CG2R61     CG2R61      HGR61
   99   100   101   102	 9 ;     CG2R61     CG2R61     CG2R61     CG2R61
   99   100   101   166	 9 ;     CG2R61     CG2R61     CG2R61      HGR61
  165   100   101   102	 9 ;      HGR61     CG2R61     CG2R61     CG2R61
  165   100   101   166	 9 ;      HGR61     CG2R61     CG2R61      HGR61
  100   101   102   103	 9 ;     CG2R61     CG2R61     CG2R61     CG2R61
  100   101   102   167	 9 ;     CG2R61     CG2R61     CG2R61      HGR61
  166   101   102   103	 9 ;      HGR61     CG2R61     CG2R61     CG2R61
  166   101   102   167	 9 ;      HGR61     CG2R61     CG2R61      HGR61
  101   102   103    98	 9 ;     CG2R61     CG2R61     CG2R61     CG2R61
  101   102   103   168	 9 ;     CG2R61     CG2R61     CG2R61      HGR61
  167   102   103    98	 9 ;      HGR61     CG2R61     CG2R61     CG2R61
  167   102   103   168	 9 ;      HGR61     CG2R61     CG2R61      HGR61

[ dihedrals ]
;	ai	  aj	ak	  al funct			  c0			c1			  c2			c3
   62    61   105   106	 2
   67    68   109   108	 2
   77    75    78   110	 2
   90    91   115   114	 2
   93    94    60   116	 2

