; Created by cgenff_charmm2gmx.py

[ moleculetype ]
; Name			   nrexcl
IDB				 3

[ atoms ]
;	 nr		  type	resnr residue  atom   cgnr	   charge		mass  typeB    chargeB		massB
; residue	 1 IDB rtp IDB q	qsum
     1      CG321      1    IDB     C1      1      0.036     12.011   ;
     2      CG321      1    IDB     C2      2     -0.180     12.011   ;
     3      CG321      1    IDB     C3      3     -0.180     12.011   ;
     4      CG321      1    IDB     C4      4     -0.180     12.011   ;
     5      CG321      1    IDB     C5      5     -0.180     12.011   ;
     6      CG321      1    IDB     C6      6     -0.180     12.011   ;
     7      CG321      1    IDB     C7      7     -0.180     12.011   ;
     8      CG321      1    IDB     C8      8     -0.122     12.011   ;
     9      CG321      1    IDB     C9      9     -0.167     12.011   ;
    10      CG321      1    IDB    C10     10     -0.274     12.011   ;
    11     CG2DC1      1    IDB    C11     11     -0.045     12.011   ;
    12     CG2DC1      1    IDB    C12     12      0.072     12.011   ;
    13      CG331      1    IDB    C13     13     -0.241     12.011   ;
    14      CG2O5      1    IDB    C14     14      0.343     12.011   ;
    15     CG2D1O      1    IDB    C15     15     -0.037     12.011   ;
    16      CG331      1    IDB    C16     16      0.012     12.011   ;
    17     CG2D1O      1    IDB    C17     17     -0.037     12.011   ;
    18      CG331      1    IDB    C18     18      0.012     12.011   ;
    19      CG2O5      1    IDB    C19     19      0.374     12.011   ;
    20      OG301      1    IDB     O1     20     -0.402     15.999   ;
    21      OG2D3      1    IDB     O2     21     -0.247     15.999   ;
    22      OG301      1    IDB     O3     22     -0.373     15.999   ;
    23      OG301      1    IDB     O4     23     -0.373     15.999   ;
    24      OG2D3      1    IDB     O5     24     -0.247     15.999   ;
    25       HGA2      1    IDB     H1     25      0.090      1.008   ;
    26       HGA2      1    IDB     H2     26      0.090      1.008   ;
    27       HGA2      1    IDB     H3     27      0.090      1.008   ;
    28       HGA2      1    IDB     H4     28      0.090      1.008   ;
    29       HGA2      1    IDB     H5     29      0.090      1.008   ;
    30       HGA2      1    IDB     H6     30      0.090      1.008   ;
    31       HGA2      1    IDB     H7     31      0.090      1.008   ;
    32       HGA2      1    IDB     H8     32      0.090      1.008   ;
    33       HGA2      1    IDB     H9     33      0.090      1.008   ;
    34       HGA2      1    IDB    H10     34      0.090      1.008   ;
    35       HGA2      1    IDB    H11     35      0.090      1.008   ;
    36       HGA2      1    IDB    H12     36      0.090      1.008   ;
    37       HGA2      1    IDB    H13     37      0.090      1.008   ;
    38       HGA2      1    IDB    H14     38      0.090      1.008   ;
    39       HGA2      1    IDB    H15     39      0.090      1.008   ;
    40       HGA2      1    IDB    H16     40      0.090      1.008   ;
    41       HGA2      1    IDB    H17     41      0.090      1.008   ;
    42       HGA2      1    IDB    H18     42      0.090      1.008   ;
    43       HGA2      1    IDB    H19     43      0.090      1.008   ;
    44       HGA2      1    IDB    H20     44      0.090      1.008   ;
    45       HGA3      1    IDB    H21     45      0.090      1.008   ;
    46       HGA3      1    IDB    H22     46      0.090      1.008   ;
    47       HGA3      1    IDB    H23     47      0.090      1.008   ;
    48       HGA3      1    IDB    H24     48      0.090      1.008   ;
    49       HGA3      1    IDB    H25     49      0.090      1.008   ;
    50       HGA3      1    IDB    H26     50      0.090      1.008   ;
    51       HGA3      1    IDB    H27     51      0.090      1.008   ;
    52       HGA3      1    IDB    H28     52      0.090      1.008   ;
    53       HGA3      1    IDB    H29     53      0.090      1.008   ;
    54      CG331      1    IDL    C20     54     -0.273     12.011   ;
    55      CG321      1    IDL    C21     55     -0.177     12.011   ;
    56      CG321      1    IDL    C22     56     -0.181     12.011   ;
    57      CG321      1    IDL    C23     57     -0.179     12.011   ;
    58      CG321      1    IDL    C24     58     -0.180     12.011   ;
    59      CG321      1    IDL    C25     59     -0.180     12.011   ;
    60      CG321      1    IDL    C26     60     -0.180     12.011   ;
    61      CG321      1    IDL    C27     61      0.036     12.011   ;
    62      CG301      1    IDL    C28     62      0.370     12.011   ;
    63      CG331      1    IDL    C29     63     -0.269     12.011   ;
    64      CG331      1    IDL    C30     64     -0.269     12.011   ;
    65      OG301      1    IDL     O6     65     -0.402     15.999   ;
    66       HGA3      1    IDL    H30     66      0.090      1.008   ;
    67       HGA3      1    IDL    H31     67      0.090      1.008   ;
    68       HGA3      1    IDL    H32     68      0.090      1.008   ;
    69       HGA2      1    IDL    H33     69      0.090      1.008   ;
    70       HGA2      1    IDL    H34     70      0.090      1.008   ;
    71       HGA2      1    IDL    H35     71      0.090      1.008   ;
    72       HGA2      1    IDL    H36     72      0.090      1.008   ;
    73       HGA2      1    IDL    H37     73      0.090      1.008   ;
    74       HGA2      1    IDL    H38     74      0.090      1.008   ;
    75       HGA2      1    IDL    H39     75      0.090      1.008   ;
    76       HGA2      1    IDL    H40     76      0.090      1.008   ;
    77       HGA2      1    IDL    H41     77      0.090      1.008   ;
    78       HGA2      1    IDL    H42     78      0.090      1.008   ;
    79       HGA2      1    IDL    H43     79      0.090      1.008   ;
    80       HGA2      1    IDL    H44     80      0.090      1.008   ;
    81       HGA2      1    IDL    H45     81      0.090      1.008   ;
    82       HGA2      1    IDL    H46     82      0.090      1.008   ;
    83       HGA3      1    IDL    H47     83      0.090      1.008   ;
    84       HGA3      1    IDL    H48     84      0.090      1.008   ;
    85       HGA3      1    IDL    H49     85      0.090      1.008   ;
    86       HGA3      1    IDL    H50     86      0.090      1.008   ;
    87       HGA3      1    IDL    H51     87      0.090      1.008   ;
    88       HGA3      1    IDL    H52     88      0.090      1.008   ;

[ bonds ]
;	ai	  aj funct			  c0			c1			  c2			c3
    1     2	 1 ;       CG321      CG321
    1    25	 1 ;       CG321       HGA2
    1    26	 1 ;       CG321       HGA2
    1    20	 1 ;       CG321      OG301
    2     3	 1 ;       CG321      CG321
    2    27	 1 ;       CG321       HGA2
    2    28	 1 ;       CG321       HGA2
    3     4	 1 ;       CG321      CG321
    3    29	 1 ;       CG321       HGA2
    3    30	 1 ;       CG321       HGA2
    4     5	 1 ;       CG321      CG321
    4    31	 1 ;       CG321       HGA2
    4    32	 1 ;       CG321       HGA2
    5     6	 1 ;       CG321      CG321
    5    33	 1 ;       CG321       HGA2
    5    34	 1 ;       CG321       HGA2
    6     7	 1 ;       CG321      CG321
    6    35	 1 ;       CG321       HGA2
    6    36	 1 ;       CG321       HGA2
    7     8	 1 ;       CG321      CG321
    7    37	 1 ;       CG321       HGA2
    7    38	 1 ;       CG321       HGA2
    8     9	 1 ;       CG321      CG321
    8    39	 1 ;       CG321       HGA2
    8    40	 1 ;       CG321       HGA2
    9    10	 1 ;       CG321      CG321
    9    41	 1 ;       CG321       HGA2
    9    42	 1 ;       CG321       HGA2
   10    11	 1 ;       CG321     CG2DC1
   10    43	 1 ;       CG321       HGA2
   10    44	 1 ;       CG321       HGA2
   11    12	 1 ;      CG2DC1     CG2DC1
   11    19	 1 ;      CG2DC1      CG2O5
   12    13	 1 ;      CG2DC1      CG331
   12    14	 1 ;      CG2DC1      CG2O5
   13    45	 1 ;       CG331       HGA3
   13    46	 1 ;       CG331       HGA3
   13    47	 1 ;       CG331       HGA3
   14    15	 1 ;       CG2O5     CG2D1O
   14    21	 1 ;       CG2O5      OG2D3
   15    17	 1 ;      CG2D1O     CG2D1O
   15    22	 1 ;      CG2D1O      OG301
   16    48	 1 ;       CG331       HGA3
   16    49	 1 ;       CG331       HGA3
   16    50	 1 ;       CG331       HGA3
   16    22	 1 ;       CG331      OG301
   17    19	 1 ;      CG2D1O      CG2O5
   17    23	 1 ;      CG2D1O      OG301
   18    51	 1 ;       CG331       HGA3
   18    52	 1 ;       CG331       HGA3
   18    53	 1 ;       CG331       HGA3
   18    23	 1 ;       CG331      OG301
   19    24	 1 ;       CG2O5      OG2D3
   20    62	 1 ;       OG301      CG301
   54    55	 1 ;       CG331      CG321
   54    66	 1 ;       CG331       HGA3
   54    67	 1 ;       CG331       HGA3
   54    68	 1 ;       CG331       HGA3
   55    56	 1 ;       CG321      CG321
   55    69	 1 ;       CG321       HGA2
   55    70	 1 ;       CG321       HGA2
   56    57	 1 ;       CG321      CG321
   56    71	 1 ;       CG321       HGA2
   56    72	 1 ;       CG321       HGA2
   57    58	 1 ;       CG321      CG321
   57    73	 1 ;       CG321       HGA2
   57    74	 1 ;       CG321       HGA2
   58    59	 1 ;       CG321      CG321
   58    75	 1 ;       CG321       HGA2
   58    76	 1 ;       CG321       HGA2
   59    60	 1 ;       CG321      CG321
   59    77	 1 ;       CG321       HGA2
   59    78	 1 ;       CG321       HGA2
   60    61	 1 ;       CG321      CG321
   60    79	 1 ;       CG321       HGA2
   60    80	 1 ;       CG321       HGA2
   61    65	 1 ;       CG321      OG301
   61    81	 1 ;       CG321       HGA2
   61    82	 1 ;       CG321       HGA2
   62    63	 1 ;       CG301      CG331
   62    64	 1 ;       CG301      CG331
   62    65	 1 ;       CG301      OG301
   63    83	 1 ;       CG331       HGA3
   63    84	 1 ;       CG331       HGA3
   63    85	 1 ;       CG331       HGA3
   64    86	 1 ;       CG331       HGA3
   64    87	 1 ;       CG331       HGA3
   64    88	 1 ;       CG331       HGA3

[ pairs ]
;	ai	  aj funct			  c0			c1			  c2			c3
    1     4	 1
    1    29	 1
    1    30	 1
    1    63	 1
    1    64	 1
    1    65	 1
    2    62	 1
    2     5	 1
    2    31	 1
    2    32	 1
    3    25	 1
    3    26	 1
    3    20	 1
    3     6	 1
    3    33	 1
    3    34	 1
    4    27	 1
    4    28	 1
    4     7	 1
    4    35	 1
    4    36	 1
    5    29	 1
    5    30	 1
    5     8	 1
    5    37	 1
    5    38	 1
    6    31	 1
    6    32	 1
    6     9	 1
    6    39	 1
    6    40	 1
    7    33	 1
    7    34	 1
    7    10	 1
    7    41	 1
    7    42	 1
    8    35	 1
    8    36	 1
    8    11	 1
    8    43	 1
    8    44	 1
    9    37	 1
    9    38	 1
    9    12	 1
    9    19	 1
   10    39	 1
   10    40	 1
   10    13	 1
   10    14	 1
   10    17	 1
   10    24	 1
   11    41	 1
   11    42	 1
   11    45	 1
   11    46	 1
   11    47	 1
   11    15	 1
   11    21	 1
   11    23	 1
   12    43	 1
   12    44	 1
   12    17	 1
   12    24	 1
   12    22	 1
   13    19	 1
   13    15	 1
   13    21	 1
   14    19	 1
   14    45	 1
   14    46	 1
   14    47	 1
   14    23	 1
   14    16	 1
   15    48	 1
   15    49	 1
   15    50	 1
   15    24	 1
   15    18	 1
   16    17	 1
   17    21	 1
   17    51	 1
   17    52	 1
   17    53	 1
   18    19	 1
   19    43	 1
   19    44	 1
   19    22	 1
   20    27	 1
   20    28	 1
   20    83	 1
   20    84	 1
   20    85	 1
   20    86	 1
   20    87	 1
   20    88	 1
   20    61	 1
   21    22	 1
   22    23	 1
   23    24	 1
   25    27	 1
   25    28	 1
   25    62	 1
   26    27	 1
   26    28	 1
   26    62	 1
   27    29	 1
   27    30	 1
   28    29	 1
   28    30	 1
   29    31	 1
   29    32	 1
   30    31	 1
   30    32	 1
   31    33	 1
   31    34	 1
   32    33	 1
   32    34	 1
   33    35	 1
   33    36	 1
   34    35	 1
   34    36	 1
   35    37	 1
   35    38	 1
   36    37	 1
   36    38	 1
   37    39	 1
   37    40	 1
   38    39	 1
   38    40	 1
   39    41	 1
   39    42	 1
   40    41	 1
   40    42	 1
   41    43	 1
   41    44	 1
   42    43	 1
   42    44	 1
   54    57	 1
   54    71	 1
   54    72	 1
   55    58	 1
   55    73	 1
   55    74	 1
   56    66	 1
   56    67	 1
   56    68	 1
   56    59	 1
   56    75	 1
   56    76	 1
   57    69	 1
   57    70	 1
   57    60	 1
   57    77	 1
   57    78	 1
   58    71	 1
   58    72	 1
   58    61	 1
   58    79	 1
   58    80	 1
   59    73	 1
   59    74	 1
   59    65	 1
   59    81	 1
   59    82	 1
   60    75	 1
   60    76	 1
   60    62	 1
   61    77	 1
   61    78	 1
   61    63	 1
   61    64	 1
   62    81	 1
   62    82	 1
   63    86	 1
   63    87	 1
   63    88	 1
   64    83	 1
   64    84	 1
   64    85	 1
   65    79	 1
   65    80	 1
   65    83	 1
   65    84	 1
   65    85	 1
   65    86	 1
   65    87	 1
   65    88	 1
   66    69	 1
   66    70	 1
   67    69	 1
   67    70	 1
   68    69	 1
   68    70	 1
   69    71	 1
   69    72	 1
   70    71	 1
   70    72	 1
   71    73	 1
   71    74	 1
   72    73	 1
   72    74	 1
   73    75	 1
   73    76	 1
   74    75	 1
   74    76	 1
   75    77	 1
   75    78	 1
   76    77	 1
   76    78	 1
   77    79	 1
   77    80	 1
   78    79	 1
   78    80	 1
   79    81	 1
   79    82	 1
   80    81	 1
   80    82	 1

[ angles ]
;	ai	  aj	ak funct			c0			  c1			c2			  c3
    2     1    25	5 ;      CG321      CG321       HGA2
    2     1    26	5 ;      CG321      CG321       HGA2
    2     1    20	5 ;      CG321      CG321      OG301
   25     1    26	5 ;       HGA2      CG321       HGA2
   25     1    20	5 ;       HGA2      CG321      OG301
   26     1    20	5 ;       HGA2      CG321      OG301
    1     2     3	5 ;      CG321      CG321      CG321
    1     2    27	5 ;      CG321      CG321       HGA2
    1     2    28	5 ;      CG321      CG321       HGA2
    3     2    27	5 ;      CG321      CG321       HGA2
    3     2    28	5 ;      CG321      CG321       HGA2
   27     2    28	5 ;       HGA2      CG321       HGA2
    2     3     4	5 ;      CG321      CG321      CG321
    2     3    29	5 ;      CG321      CG321       HGA2
    2     3    30	5 ;      CG321      CG321       HGA2
    4     3    29	5 ;      CG321      CG321       HGA2
    4     3    30	5 ;      CG321      CG321       HGA2
   29     3    30	5 ;       HGA2      CG321       HGA2
    3     4     5	5 ;      CG321      CG321      CG321
    3     4    31	5 ;      CG321      CG321       HGA2
    3     4    32	5 ;      CG321      CG321       HGA2
    5     4    31	5 ;      CG321      CG321       HGA2
    5     4    32	5 ;      CG321      CG321       HGA2
   31     4    32	5 ;       HGA2      CG321       HGA2
    4     5     6	5 ;      CG321      CG321      CG321
    4     5    33	5 ;      CG321      CG321       HGA2
    4     5    34	5 ;      CG321      CG321       HGA2
    6     5    33	5 ;      CG321      CG321       HGA2
    6     5    34	5 ;      CG321      CG321       HGA2
   33     5    34	5 ;       HGA2      CG321       HGA2
    5     6     7	5 ;      CG321      CG321      CG321
    5     6    35	5 ;      CG321      CG321       HGA2
    5     6    36	5 ;      CG321      CG321       HGA2
    7     6    35	5 ;      CG321      CG321       HGA2
    7     6    36	5 ;      CG321      CG321       HGA2
   35     6    36	5 ;       HGA2      CG321       HGA2
    6     7     8	5 ;      CG321      CG321      CG321
    6     7    37	5 ;      CG321      CG321       HGA2
    6     7    38	5 ;      CG321      CG321       HGA2
    8     7    37	5 ;      CG321      CG321       HGA2
    8     7    38	5 ;      CG321      CG321       HGA2
   37     7    38	5 ;       HGA2      CG321       HGA2
    7     8     9	5 ;      CG321      CG321      CG321
    7     8    39	5 ;      CG321      CG321       HGA2
    7     8    40	5 ;      CG321      CG321       HGA2
    9     8    39	5 ;      CG321      CG321       HGA2
    9     8    40	5 ;      CG321      CG321       HGA2
   39     8    40	5 ;       HGA2      CG321       HGA2
    8     9    10	5 ;      CG321      CG321      CG321
    8     9    41	5 ;      CG321      CG321       HGA2
    8     9    42	5 ;      CG321      CG321       HGA2
   10     9    41	5 ;      CG321      CG321       HGA2
   10     9    42	5 ;      CG321      CG321       HGA2
   41     9    42	5 ;       HGA2      CG321       HGA2
    9    10    11	5 ;      CG321      CG321     CG2DC1
    9    10    43	5 ;      CG321      CG321       HGA2
    9    10    44	5 ;      CG321      CG321       HGA2
   11    10    43	5 ;     CG2DC1      CG321       HGA2
   11    10    44	5 ;     CG2DC1      CG321       HGA2
   43    10    44	5 ;       HGA2      CG321       HGA2
   10    11    12	5 ;      CG321     CG2DC1     CG2DC1
   10    11    19	5 ;      CG321     CG2DC1      CG2O5
   12    11    19	5 ;     CG2DC1     CG2DC1      CG2O5
   11    12    13	5 ;     CG2DC1     CG2DC1      CG331
   11    12    14	5 ;     CG2DC1     CG2DC1      CG2O5
   13    12    14	5 ;      CG331     CG2DC1      CG2O5
   12    13    45	5 ;     CG2DC1      CG331       HGA3
   12    13    46	5 ;     CG2DC1      CG331       HGA3
   12    13    47	5 ;     CG2DC1      CG331       HGA3
   45    13    46	5 ;       HGA3      CG331       HGA3
   45    13    47	5 ;       HGA3      CG331       HGA3
   46    13    47	5 ;       HGA3      CG331       HGA3
   12    14    15	5 ;     CG2DC1      CG2O5     CG2D1O
   12    14    21	5 ;     CG2DC1      CG2O5      OG2D3
   15    14    21	5 ;     CG2D1O      CG2O5      OG2D3
   14    15    17	5 ;      CG2O5     CG2D1O     CG2D1O
   14    15    22	5 ;      CG2O5     CG2D1O      OG301
   17    15    22	5 ;     CG2D1O     CG2D1O      OG301
   48    16    49	5 ;       HGA3      CG331       HGA3
   48    16    50	5 ;       HGA3      CG331       HGA3
   48    16    22	5 ;       HGA3      CG331      OG301
   49    16    50	5 ;       HGA3      CG331       HGA3
   49    16    22	5 ;       HGA3      CG331      OG301
   50    16    22	5 ;       HGA3      CG331      OG301
   15    17    19	5 ;     CG2D1O     CG2D1O      CG2O5
   15    17    23	5 ;     CG2D1O     CG2D1O      OG301
   19    17    23	5 ;      CG2O5     CG2D1O      OG301
   51    18    52	5 ;       HGA3      CG331       HGA3
   51    18    53	5 ;       HGA3      CG331       HGA3
   51    18    23	5 ;       HGA3      CG331      OG301
   52    18    53	5 ;       HGA3      CG331       HGA3
   52    18    23	5 ;       HGA3      CG331      OG301
   53    18    23	5 ;       HGA3      CG331      OG301
   11    19    17	5 ;     CG2DC1      CG2O5     CG2D1O
   11    19    24	5 ;     CG2DC1      CG2O5      OG2D3
   17    19    24	5 ;     CG2D1O      CG2O5      OG2D3
    1    20    62	5 ;      CG321      OG301      CG301
   15    22    16	5 ;     CG2D1O      OG301      CG331
   17    23    18	5 ;     CG2D1O      OG301      CG331
   55    54    66	5 ;      CG321      CG331       HGA3
   55    54    67	5 ;      CG321      CG331       HGA3
   55    54    68	5 ;      CG321      CG331       HGA3
   66    54    67	5 ;       HGA3      CG331       HGA3
   66    54    68	5 ;       HGA3      CG331       HGA3
   67    54    68	5 ;       HGA3      CG331       HGA3
   54    55    56	5 ;      CG331      CG321      CG321
   54    55    69	5 ;      CG331      CG321       HGA2
   54    55    70	5 ;      CG331      CG321       HGA2
   56    55    69	5 ;      CG321      CG321       HGA2
   56    55    70	5 ;      CG321      CG321       HGA2
   69    55    70	5 ;       HGA2      CG321       HGA2
   55    56    57	5 ;      CG321      CG321      CG321
   55    56    71	5 ;      CG321      CG321       HGA2
   55    56    72	5 ;      CG321      CG321       HGA2
   57    56    71	5 ;      CG321      CG321       HGA2
   57    56    72	5 ;      CG321      CG321       HGA2
   71    56    72	5 ;       HGA2      CG321       HGA2
   56    57    58	5 ;      CG321      CG321      CG321
   56    57    73	5 ;      CG321      CG321       HGA2
   56    57    74	5 ;      CG321      CG321       HGA2
   58    57    73	5 ;      CG321      CG321       HGA2
   58    57    74	5 ;      CG321      CG321       HGA2
   73    57    74	5 ;       HGA2      CG321       HGA2
   57    58    59	5 ;      CG321      CG321      CG321
   57    58    75	5 ;      CG321      CG321       HGA2
   57    58    76	5 ;      CG321      CG321       HGA2
   59    58    75	5 ;      CG321      CG321       HGA2
   59    58    76	5 ;      CG321      CG321       HGA2
   75    58    76	5 ;       HGA2      CG321       HGA2
   58    59    60	5 ;      CG321      CG321      CG321
   58    59    77	5 ;      CG321      CG321       HGA2
   58    59    78	5 ;      CG321      CG321       HGA2
   60    59    77	5 ;      CG321      CG321       HGA2
   60    59    78	5 ;      CG321      CG321       HGA2
   77    59    78	5 ;       HGA2      CG321       HGA2
   59    60    61	5 ;      CG321      CG321      CG321
   59    60    79	5 ;      CG321      CG321       HGA2
   59    60    80	5 ;      CG321      CG321       HGA2
   61    60    79	5 ;      CG321      CG321       HGA2
   61    60    80	5 ;      CG321      CG321       HGA2
   79    60    80	5 ;       HGA2      CG321       HGA2
   60    61    65	5 ;      CG321      CG321      OG301
   60    61    81	5 ;      CG321      CG321       HGA2
   60    61    82	5 ;      CG321      CG321       HGA2
   65    61    81	5 ;      OG301      CG321       HGA2
   65    61    82	5 ;      OG301      CG321       HGA2
   81    61    82	5 ;       HGA2      CG321       HGA2
   20    62    63	5 ;      OG301      CG301      CG331
   20    62    64	5 ;      OG301      CG301      CG331
   20    62    65	5 ;      OG301      CG301      OG301
   63    62    64	5 ;      CG331      CG301      CG331
   63    62    65	5 ;      CG331      CG301      OG301
   64    62    65	5 ;      CG331      CG301      OG301
   62    63    83	5 ;      CG301      CG331       HGA3
   62    63    84	5 ;      CG301      CG331       HGA3
   62    63    85	5 ;      CG301      CG331       HGA3
   83    63    84	5 ;       HGA3      CG331       HGA3
   83    63    85	5 ;       HGA3      CG331       HGA3
   84    63    85	5 ;       HGA3      CG331       HGA3
   62    64    86	5 ;      CG301      CG331       HGA3
   62    64    87	5 ;      CG301      CG331       HGA3
   62    64    88	5 ;      CG301      CG331       HGA3
   86    64    87	5 ;       HGA3      CG331       HGA3
   86    64    88	5 ;       HGA3      CG331       HGA3
   87    64    88	5 ;       HGA3      CG331       HGA3
   61    65    62	5 ;      CG321      OG301      CG301

[ dihedrals ]
;	ai	  aj	ak	  al funct			  c0			c1			  c2			c3			  c4			c5
   25     1     2     3	 9 ;       HGA2      CG321      CG321      CG321
   25     1     2    27	 9 ;       HGA2      CG321      CG321       HGA2
   25     1     2    28	 9 ;       HGA2      CG321      CG321       HGA2
   26     1     2     3	 9 ;       HGA2      CG321      CG321      CG321
   26     1     2    27	 9 ;       HGA2      CG321      CG321       HGA2
   26     1     2    28	 9 ;       HGA2      CG321      CG321       HGA2
   20     1     2     3	 9 ;      OG301      CG321      CG321      CG321
   20     1     2    27	 9 ;      OG301      CG321      CG321       HGA2
   20     1     2    28	 9 ;      OG301      CG321      CG321       HGA2
    2     1    20    62	 9 ;      CG321      CG321      OG301      CG301
   25     1    20    62	 9 ;       HGA2      CG321      OG301      CG301
   26     1    20    62	 9 ;       HGA2      CG321      OG301      CG301
    1     2     3     4	 9 ;      CG321      CG321      CG321      CG321
    1     2     3    29	 9 ;      CG321      CG321      CG321       HGA2
    1     2     3    30	 9 ;      CG321      CG321      CG321       HGA2
   27     2     3     4	 9 ;       HGA2      CG321      CG321      CG321
   27     2     3    29	 9 ;       HGA2      CG321      CG321       HGA2
   27     2     3    30	 9 ;       HGA2      CG321      CG321       HGA2
   28     2     3     4	 9 ;       HGA2      CG321      CG321      CG321
   28     2     3    29	 9 ;       HGA2      CG321      CG321       HGA2
   28     2     3    30	 9 ;       HGA2      CG321      CG321       HGA2
    2     3     4     5	 9 ;      CG321      CG321      CG321      CG321
    2     3     4    31	 9 ;      CG321      CG321      CG321       HGA2
    2     3     4    32	 9 ;      CG321      CG321      CG321       HGA2
   29     3     4     5	 9 ;       HGA2      CG321      CG321      CG321
   29     3     4    31	 9 ;       HGA2      CG321      CG321       HGA2
   29     3     4    32	 9 ;       HGA2      CG321      CG321       HGA2
   30     3     4     5	 9 ;       HGA2      CG321      CG321      CG321
   30     3     4    31	 9 ;       HGA2      CG321      CG321       HGA2
   30     3     4    32	 9 ;       HGA2      CG321      CG321       HGA2
    3     4     5     6	 9 ;      CG321      CG321      CG321      CG321
    3     4     5    33	 9 ;      CG321      CG321      CG321       HGA2
    3     4     5    34	 9 ;      CG321      CG321      CG321       HGA2
   31     4     5     6	 9 ;       HGA2      CG321      CG321      CG321
   31     4     5    33	 9 ;       HGA2      CG321      CG321       HGA2
   31     4     5    34	 9 ;       HGA2      CG321      CG321       HGA2
   32     4     5     6	 9 ;       HGA2      CG321      CG321      CG321
   32     4     5    33	 9 ;       HGA2      CG321      CG321       HGA2
   32     4     5    34	 9 ;       HGA2      CG321      CG321       HGA2
    4     5     6     7	 9 ;      CG321      CG321      CG321      CG321
    4     5     6    35	 9 ;      CG321      CG321      CG321       HGA2
    4     5     6    36	 9 ;      CG321      CG321      CG321       HGA2
   33     5     6     7	 9 ;       HGA2      CG321      CG321      CG321
   33     5     6    35	 9 ;       HGA2      CG321      CG321       HGA2
   33     5     6    36	 9 ;       HGA2      CG321      CG321       HGA2
   34     5     6     7	 9 ;       HGA2      CG321      CG321      CG321
   34     5     6    35	 9 ;       HGA2      CG321      CG321       HGA2
   34     5     6    36	 9 ;       HGA2      CG321      CG321       HGA2
    5     6     7     8	 9 ;      CG321      CG321      CG321      CG321
    5     6     7    37	 9 ;      CG321      CG321      CG321       HGA2
    5     6     7    38	 9 ;      CG321      CG321      CG321       HGA2
   35     6     7     8	 9 ;       HGA2      CG321      CG321      CG321
   35     6     7    37	 9 ;       HGA2      CG321      CG321       HGA2
   35     6     7    38	 9 ;       HGA2      CG321      CG321       HGA2
   36     6     7     8	 9 ;       HGA2      CG321      CG321      CG321
   36     6     7    37	 9 ;       HGA2      CG321      CG321       HGA2
   36     6     7    38	 9 ;       HGA2      CG321      CG321       HGA2
    6     7     8     9	 9 ;      CG321      CG321      CG321      CG321
    6     7     8    39	 9 ;      CG321      CG321      CG321       HGA2
    6     7     8    40	 9 ;      CG321      CG321      CG321       HGA2
   37     7     8     9	 9 ;       HGA2      CG321      CG321      CG321
   37     7     8    39	 9 ;       HGA2      CG321      CG321       HGA2
   37     7     8    40	 9 ;       HGA2      CG321      CG321       HGA2
   38     7     8     9	 9 ;       HGA2      CG321      CG321      CG321
   38     7     8    39	 9 ;       HGA2      CG321      CG321       HGA2
   38     7     8    40	 9 ;       HGA2      CG321      CG321       HGA2
    7     8     9    10	 9 ;      CG321      CG321      CG321      CG321
    7     8     9    41	 9 ;      CG321      CG321      CG321       HGA2
    7     8     9    42	 9 ;      CG321      CG321      CG321       HGA2
   39     8     9    10	 9 ;       HGA2      CG321      CG321      CG321
   39     8     9    41	 9 ;       HGA2      CG321      CG321       HGA2
   39     8     9    42	 9 ;       HGA2      CG321      CG321       HGA2
   40     8     9    10	 9 ;       HGA2      CG321      CG321      CG321
   40     8     9    41	 9 ;       HGA2      CG321      CG321       HGA2
   40     8     9    42	 9 ;       HGA2      CG321      CG321       HGA2
    8     9    10    11	 9 ;      CG321      CG321      CG321     CG2DC1
    8     9    10    43	 9 ;      CG321      CG321      CG321       HGA2
    8     9    10    44	 9 ;      CG321      CG321      CG321       HGA2
   41     9    10    11	 9 ;       HGA2      CG321      CG321     CG2DC1
   41     9    10    43	 9 ;       HGA2      CG321      CG321       HGA2
   41     9    10    44	 9 ;       HGA2      CG321      CG321       HGA2
   42     9    10    11	 9 ;       HGA2      CG321      CG321     CG2DC1
   42     9    10    43	 9 ;       HGA2      CG321      CG321       HGA2
   42     9    10    44	 9 ;       HGA2      CG321      CG321       HGA2
    9    10    11    12	 9 ;      CG321      CG321     CG2DC1     CG2DC1
    9    10    11    19	 9 ;      CG321      CG321     CG2DC1      CG2O5
   43    10    11    12	 9 ;       HGA2      CG321     CG2DC1     CG2DC1
   43    10    11    19	 9 ;       HGA2      CG321     CG2DC1      CG2O5
   44    10    11    12	 9 ;       HGA2      CG321     CG2DC1     CG2DC1
   44    10    11    19	 9 ;       HGA2      CG321     CG2DC1      CG2O5
   10    11    12    13	 9 ;      CG321     CG2DC1     CG2DC1      CG331
   10    11    12    14	 9 ;      CG321     CG2DC1     CG2DC1      CG2O5
   19    11    12    13	 9 ;      CG2O5     CG2DC1     CG2DC1      CG331
   19    11    12    14	 9 ;      CG2O5     CG2DC1     CG2DC1      CG2O5
   10    11    19    17	 9 ;      CG321     CG2DC1      CG2O5     CG2D1O
   10    11    19    24	 9 ;      CG321     CG2DC1      CG2O5      OG2D3
   12    11    19    17	 9 ;     CG2DC1     CG2DC1      CG2O5     CG2D1O
   12    11    19    24	 9 ;     CG2DC1     CG2DC1      CG2O5      OG2D3
   11    12    13    45	 9 ;     CG2DC1     CG2DC1      CG331       HGA3
   11    12    13    46	 9 ;     CG2DC1     CG2DC1      CG331       HGA3
   11    12    13    47	 9 ;     CG2DC1     CG2DC1      CG331       HGA3
   14    12    13    45	 9 ;      CG2O5     CG2DC1      CG331       HGA3
   14    12    13    46	 9 ;      CG2O5     CG2DC1      CG331       HGA3
   14    12    13    47	 9 ;      CG2O5     CG2DC1      CG331       HGA3
   11    12    14    15	 9 ;     CG2DC1     CG2DC1      CG2O5     CG2D1O
   11    12    14    21	 9 ;     CG2DC1     CG2DC1      CG2O5      OG2D3
   13    12    14    15	 9 ;      CG331     CG2DC1      CG2O5     CG2D1O
   13    12    14    21	 9 ;      CG331     CG2DC1      CG2O5      OG2D3
   12    14    15    17	 9 ;     CG2DC1      CG2O5     CG2D1O     CG2D1O
   12    14    15    22	 9 ;     CG2DC1      CG2O5     CG2D1O      OG301
   21    14    15    17	 9 ;      OG2D3      CG2O5     CG2D1O     CG2D1O
   21    14    15    22	 9 ;      OG2D3      CG2O5     CG2D1O      OG301
   14    15    17    19	 9 ;      CG2O5     CG2D1O     CG2D1O      CG2O5
   14    15    17    23	 9 ;      CG2O5     CG2D1O     CG2D1O      OG301
   22    15    17    19	 9 ;      OG301     CG2D1O     CG2D1O      CG2O5
   22    15    17    23	 9 ;      OG301     CG2D1O     CG2D1O      OG301
   14    15    22    16	 9 ;      CG2O5     CG2D1O      OG301      CG331
   17    15    22    16	 9 ;     CG2D1O     CG2D1O      OG301      CG331
   48    16    22    15	 9 ;       HGA3      CG331      OG301     CG2D1O
   49    16    22    15	 9 ;       HGA3      CG331      OG301     CG2D1O
   50    16    22    15	 9 ;       HGA3      CG331      OG301     CG2D1O
   15    17    19    11	 9 ;     CG2D1O     CG2D1O      CG2O5     CG2DC1
   15    17    19    24	 9 ;     CG2D1O     CG2D1O      CG2O5      OG2D3
   23    17    19    11	 9 ;      OG301     CG2D1O      CG2O5     CG2DC1
   23    17    19    24	 9 ;      OG301     CG2D1O      CG2O5      OG2D3
   15    17    23    18	 9 ;     CG2D1O     CG2D1O      OG301      CG331
   19    17    23    18	 9 ;      CG2O5     CG2D1O      OG301      CG331
   51    18    23    17	 9 ;       HGA3      CG331      OG301     CG2D1O
   52    18    23    17	 9 ;       HGA3      CG331      OG301     CG2D1O
   53    18    23    17	 9 ;       HGA3      CG331      OG301     CG2D1O
    1    20    62    63	 9 ;      CG321      OG301      CG301      CG331
    1    20    62    64	 9 ;      CG321      OG301      CG301      CG331
    1    20    62    65	 9 ;      CG321      OG301      CG301      OG301
   66    54    55    56	 9 ;       HGA3      CG331      CG321      CG321
   66    54    55    69	 9 ;       HGA3      CG331      CG321       HGA2
   66    54    55    70	 9 ;       HGA3      CG331      CG321       HGA2
   67    54    55    56	 9 ;       HGA3      CG331      CG321      CG321
   67    54    55    69	 9 ;       HGA3      CG331      CG321       HGA2
   67    54    55    70	 9 ;       HGA3      CG331      CG321       HGA2
   68    54    55    56	 9 ;       HGA3      CG331      CG321      CG321
   68    54    55    69	 9 ;       HGA3      CG331      CG321       HGA2
   68    54    55    70	 9 ;       HGA3      CG331      CG321       HGA2
   54    55    56    57	 9 ;      CG331      CG321      CG321      CG321
   54    55    56    71	 9 ;      CG331      CG321      CG321       HGA2
   54    55    56    72	 9 ;      CG331      CG321      CG321       HGA2
   69    55    56    57	 9 ;       HGA2      CG321      CG321      CG321
   69    55    56    71	 9 ;       HGA2      CG321      CG321       HGA2
   69    55    56    72	 9 ;       HGA2      CG321      CG321       HGA2
   70    55    56    57	 9 ;       HGA2      CG321      CG321      CG321
   70    55    56    71	 9 ;       HGA2      CG321      CG321       HGA2
   70    55    56    72	 9 ;       HGA2      CG321      CG321       HGA2
   55    56    57    58	 9 ;      CG321      CG321      CG321      CG321
   55    56    57    73	 9 ;      CG321      CG321      CG321       HGA2
   55    56    57    74	 9 ;      CG321      CG321      CG321       HGA2
   71    56    57    58	 9 ;       HGA2      CG321      CG321      CG321
   71    56    57    73	 9 ;       HGA2      CG321      CG321       HGA2
   71    56    57    74	 9 ;       HGA2      CG321      CG321       HGA2
   72    56    57    58	 9 ;       HGA2      CG321      CG321      CG321
   72    56    57    73	 9 ;       HGA2      CG321      CG321       HGA2
   72    56    57    74	 9 ;       HGA2      CG321      CG321       HGA2
   56    57    58    59	 9 ;      CG321      CG321      CG321      CG321
   56    57    58    75	 9 ;      CG321      CG321      CG321       HGA2
   56    57    58    76	 9 ;      CG321      CG321      CG321       HGA2
   73    57    58    59	 9 ;       HGA2      CG321      CG321      CG321
   73    57    58    75	 9 ;       HGA2      CG321      CG321       HGA2
   73    57    58    76	 9 ;       HGA2      CG321      CG321       HGA2
   74    57    58    59	 9 ;       HGA2      CG321      CG321      CG321
   74    57    58    75	 9 ;       HGA2      CG321      CG321       HGA2
   74    57    58    76	 9 ;       HGA2      CG321      CG321       HGA2
   57    58    59    60	 9 ;      CG321      CG321      CG321      CG321
   57    58    59    77	 9 ;      CG321      CG321      CG321       HGA2
   57    58    59    78	 9 ;      CG321      CG321      CG321       HGA2
   75    58    59    60	 9 ;       HGA2      CG321      CG321      CG321
   75    58    59    77	 9 ;       HGA2      CG321      CG321       HGA2
   75    58    59    78	 9 ;       HGA2      CG321      CG321       HGA2
   76    58    59    60	 9 ;       HGA2      CG321      CG321      CG321
   76    58    59    77	 9 ;       HGA2      CG321      CG321       HGA2
   76    58    59    78	 9 ;       HGA2      CG321      CG321       HGA2
   58    59    60    61	 9 ;      CG321      CG321      CG321      CG321
   58    59    60    79	 9 ;      CG321      CG321      CG321       HGA2
   58    59    60    80	 9 ;      CG321      CG321      CG321       HGA2
   77    59    60    61	 9 ;       HGA2      CG321      CG321      CG321
   77    59    60    79	 9 ;       HGA2      CG321      CG321       HGA2
   77    59    60    80	 9 ;       HGA2      CG321      CG321       HGA2
   78    59    60    61	 9 ;       HGA2      CG321      CG321      CG321
   78    59    60    79	 9 ;       HGA2      CG321      CG321       HGA2
   78    59    60    80	 9 ;       HGA2      CG321      CG321       HGA2
   59    60    61    65	 9 ;      CG321      CG321      CG321      OG301
   59    60    61    81	 9 ;      CG321      CG321      CG321       HGA2
   59    60    61    82	 9 ;      CG321      CG321      CG321       HGA2
   79    60    61    65	 9 ;       HGA2      CG321      CG321      OG301
   79    60    61    81	 9 ;       HGA2      CG321      CG321       HGA2
   79    60    61    82	 9 ;       HGA2      CG321      CG321       HGA2
   80    60    61    65	 9 ;       HGA2      CG321      CG321      OG301
   80    60    61    81	 9 ;       HGA2      CG321      CG321       HGA2
   80    60    61    82	 9 ;       HGA2      CG321      CG321       HGA2
   60    61    65    62	 9 ;      CG321      CG321      OG301      CG301
   81    61    65    62	 9 ;       HGA2      CG321      OG301      CG301
   82    61    65    62	 9 ;       HGA2      CG321      OG301      CG301
   20    62    63    83	 9 ;      OG301      CG301      CG331       HGA3
   20    62    63    84	 9 ;      OG301      CG301      CG331       HGA3
   20    62    63    85	 9 ;      OG301      CG301      CG331       HGA3
   64    62    63    83	 9 ;      CG331      CG301      CG331       HGA3
   64    62    63    84	 9 ;      CG331      CG301      CG331       HGA3
   64    62    63    85	 9 ;      CG331      CG301      CG331       HGA3
   65    62    63    83	 9 ;      OG301      CG301      CG331       HGA3
   65    62    63    84	 9 ;      OG301      CG301      CG331       HGA3
   65    62    63    85	 9 ;      OG301      CG301      CG331       HGA3
   20    62    64    86	 9 ;      OG301      CG301      CG331       HGA3
   20    62    64    87	 9 ;      OG301      CG301      CG331       HGA3
   20    62    64    88	 9 ;      OG301      CG301      CG331       HGA3
   63    62    64    86	 9 ;      CG331      CG301      CG331       HGA3
   63    62    64    87	 9 ;      CG331      CG301      CG331       HGA3
   63    62    64    88	 9 ;      CG331      CG301      CG331       HGA3
   65    62    64    86	 9 ;      OG301      CG301      CG331       HGA3
   65    62    64    87	 9 ;      OG301      CG301      CG331       HGA3
   65    62    64    88	 9 ;      OG301      CG301      CG331       HGA3
   20    62    65    61	 9 ;      OG301      CG301      OG301      CG321
   63    62    65    61	 9 ;      CG331      CG301      OG301      CG321
   64    62    65    61	 9 ;      CG331      CG301      OG301      CG321

[ dihedrals ]
;	ai	  aj	ak	  al funct			  c0			c1			  c2			c3
   14    15    12    21	 2
   19    17    11    24	 2

