#include "../../../0-forcefield/charmm36-jul2022.ff/forcefield.itp"

; additional params for the molecule
#include "sn3.prm"

#include "sn3.itp"

#include "../../../0-forcefield/charmm36-jul2022.ff/tip3p.itp"
#ifdef POSRES_WATER
; Position restraint for each water oxygen
[ position_restraints ]
;  i funct		 fcx		fcy		   fcz
   1	1		1000	   1000		  1000
#endif

; Include topology for ions
#include "../../../0-forcefield/charmm36-jul2022.ff/ions.itp"

[ system ]
; Name
mol

[ molecules ]
; Compound		  #mols
SN3			1

