#include "../../../forcefields/charmm36-jul2022.ff/forcefield.itp"
#include "mpeg2kpcl2k.prm"
#include "dtx2c16.prm"

#include "mpeg2kpcl2k.itp"
#include "dtx2c16.itp"

#include "../../../forcefields/charmm36-jul2022.ff/tip3p.itp"
#ifdef POSRES_WATER
; Position restraint for each water oxygen
[ position_restraints ]
;  i funct		 fcx		fcy		   fcz
   1	1		1000	   1000		  1000
#endif

; Include topology for ions
;#include "../../../forcefields/charmm36-jul2022.ff/ions.itp"

[ system ]
; Name
pcldtx2c16 in water

[ molecules ]
;Compound        #mols
ECL             1
DTX                1


