; Created by AuToFF

[ moleculetype ]
; name          nrexcl
LST       3

[ atoms ]
;  Index    type       residue  resname    atom      cgnr     charge       mass
     1    CG301           1       LSL      C01       1      0.000000   12.011000
     2    CG331           1       LSL      C02       1      0.000000   12.011000
     3    CG331           1       LSL      C03       1      0.000000   12.011000
     4    CG321           1       LSL      C04       1      0.000000   12.011000
     5    CG321           1       LSL      C05       1      0.000000   12.011000
     6    CG321           1       LSL      C06       1      0.000000   12.011000
     7    CG321           1       LSL      C07       1      0.000000   12.011000
     8    CG321           1       LSL      C08       1      0.000000   12.011000
     9    CG321           1       LSL      C09       1      0.000000   12.011000
    10    CG321           1       LSL      C0A       1      0.000000   12.011000
    11    CG331           1       LSL      C0B       1      0.000000   12.011000
    12    OG301           1       LSL      O0C       1      0.000000   15.999400
    13    HGA3            1       LSL      H0D       1      0.000000    1.008000
    14    HGA3            1       LSL      H0E       1      0.000000    1.008000
    15    HGA3            1       LSL      H0F       1      0.000000    1.008000
    16    HGA3            1       LSL      H10       1      0.000000    1.008000
    17    HGA3            1       LSL      H11       1      0.000000    1.008000
    18    HGA3            1       LSL      H12       1      0.000000    1.008000
    19    HGA2            1       LSL      H13       1      0.000000    1.008000
    20    HGA2            1       LSL      H14       1      0.000000    1.008000
    21    HGA2            1       LSL      H15       1      0.000000    1.008000
    22    HGA2            1       LSL      H16       1      0.000000    1.008000
    23    HGA2            1       LSL      H17       1      0.000000    1.008000
    24    HGA2            1       LSL      H18       1      0.000000    1.008000
    25    HGA2            1       LSL      H19       1      0.000000    1.008000
    26    HGA2            1       LSL      H1A       1      0.000000    1.008000
    27    HGA2            1       LSL      H1B       1      0.000000    1.008000
    28    HGA2            1       LSL      H1C       1      0.000000    1.008000
    29    HGA2            1       LSL      H1D       1      0.000000    1.008000
    30    HGA2            1       LSL      H1E       1      0.000000    1.008000
    31    HGA2            1       LSL      H1F       1      0.000000    1.008000
    32    HGA2            1       LSL      H20       1      0.000000    1.008000
    33    HGA3            1       LSL      H21       1      0.000000    1.008000
    34    HGA3            1       LSL      H22       1      0.000000    1.008000
    35    HGA3            1       LSL      H23       1      0.000000    1.008000
    36    NG2R50          1       LST      N24       1      0.000000   14.007000
    37    NG2R52          1       LST      N25       1      0.000000   14.007000
    38    NG2R50          1       LST      N26       1      0.000000   14.007000
    39    NG2R51          1       LST      N27       1      0.000000   14.007000
    40    NG2R50          1       LST      N28       1      0.000000   14.007000
    41    NG2R50          1       LST      N29       1      0.000000   14.007000
    42    CG2R53          1       LST      C2A       1      0.000000   12.011000
    43    CG2R51          1       LST      C2B       1      0.000000   12.011000
    44    CG2R51          1       LST      C2C       1      0.000000   12.011000
    45    CG321           1       LST      C2D       1      0.000000   12.011000
    46    CG324           1       LST      C2E       1      0.000000   12.011000
    47    CG2R67          1       LST      C2F       1      0.000000   12.011000
    48    CG2R61          1       LST      C30       1      0.000000   12.011000
    49    CG2R61          1       LST      C31       1      0.000000   12.011000
    50    CG2R61          1       LST      C32       1      0.000000   12.011000
    51    CG2R61          1       LST      C33       1      0.000000   12.011000
    52    CG2R61          1       LST      C34       1      0.000000   12.011000
    53    CG2R67          1       LST      C35       1      0.000000   12.011000
    54    CG2R61          1       LST      C36       1      0.000000   12.011000
    55    CG2R61          1       LST      C37       1      0.000000   12.011000
    56    CG2R61          1       LST      C38       1      0.000000   12.011000
    57    CG2R61          1       LST      C39       1      0.000000   12.011000
    58    CG2R61          1       LST      C3A       1      0.000000   12.011000
    59    CG2R53          1       LST      C3B       1      0.000000   12.011000
    60    CG321           1       LST      C3C       1      0.000000   12.011000
    61    CG321           1       LST      C3D       1      0.000000   12.011000
    62    CG321           1       LST      C3E       1      0.000000   12.011000
    63    CG331           1       LST      C3F       1      0.000000   12.011000
    64    OG301           1       LST      O40       1      0.000000   15.999400
    65    CLGR1           1       LST      Cl41      1      0.000000   35.453000
    66    HGA2            1       LST      H42       1      0.000000    1.008000
    67    HGA2            1       LST      H43       1      0.000000    1.008000
    68    HGA2            1       LST      H44       1      0.000000    1.008000
    69    HGA2            1       LST      H45       1      0.000000    1.008000
    70    HGR61           1       LST      H46       1      0.000000    1.008000
    71    HGR61           1       LST      H47       1      0.000000    1.008000
    72    HGR61           1       LST      H48       1      0.000000    1.008000
    73    HGR61           1       LST      H49       1      0.000000    1.008000
    74    HGR61           1       LST      H4A       1      0.000000    1.008000
    75    HGR61           1       LST      H4B       1      0.000000    1.008000
    76    HGR61           1       LST      H4C       1      0.000000    1.008000
    77    HGR61           1       LST      H4D       1      0.000000    1.008000
    78    HGP1            1       LST      H4E       1      0.000000    1.008000
    79    HGA2            1       LST      H4F       1      0.000000    1.008000
    80    HGA2            1       LST      H50       1      0.000000    1.008000
    81    HGA2            1       LST      H51       1      0.000000    1.008000
    82    HGA2            1       LST      H52       1      0.000000    1.008000
    83    HGA2            1       LST      H53       1      0.000000    1.008000
    84    HGA2            1       LST      H54       1      0.000000    1.008000
    85    HGA3            1       LST      H55       1      0.000000    1.008000
    86    HGA3            1       LST      H56       1      0.000000    1.008000
    87    HGA3            1       LST      H57       1      0.000000    1.008000

[ bonds ]
; atom_i  atom_j  functype     r0 (nm)   k (kJ/mol/nm^2)
       1       2       1       0.1540    1.861836E+05
       1       3       1       0.1540    1.861836E+05
       1      12       1       0.1410    3.012408E+05
       2      13       1       0.1110    2.694432E+05
       2      14       1       0.1110    2.694432E+05
       2      15       1       0.1110    2.694432E+05
       3      16       1       0.1110    2.694432E+05
       3      17       1       0.1110    2.694432E+05
       3      18       1       0.1110    2.694432E+05
       4       5       1       0.1530    1.861836E+05
       4      19       1       0.1110    2.585650E+05
       4      20       1       0.1110    2.585650E+05
       5       6       1       0.1530    1.861836E+05
       5      21       1       0.1110    2.585650E+05
       5      22       1       0.1110    2.585650E+05
       6       7       1       0.1530    1.861836E+05
       6      23       1       0.1110    2.585650E+05
       6      24       1       0.1110    2.585650E+05
       7       8       1       0.1530    1.861836E+05
       7      25       1       0.1110    2.585650E+05
       7      26       1       0.1110    2.585650E+05
       8       9       1       0.1530    1.861836E+05
       8      27       1       0.1110    2.585650E+05
       8      28       1       0.1110    2.585650E+05
       9      10       1       0.1530    1.861836E+05
       9      29       1       0.1110    2.585650E+05
       9      30       1       0.1110    2.585650E+05
      10      11       1       0.1530    1.861836E+05
      10      31       1       0.1110    2.585650E+05
      10      32       1       0.1110    2.585650E+05
      11      33       1       0.1110    2.694432E+05
      11      34       1       0.1110    2.694432E+05
      11      35       1       0.1110    2.694432E+05
       4      12       1       0.1410    3.012408E+05
      36      43       1       0.1380    3.347120E+05
      37      46       1       0.1440    2.694432E+05
      38      39       1       0.1360    3.012408E+05
      38      59       1       0.1320    3.347120E+05
      39      40       1       0.1360    3.012408E+05
      39      78       1       0.1010    3.966338E+05
      40      41       1       0.1290    2.845052E+05
      41      59       1       0.1320    3.347120E+05
      36      42       1       0.1320    3.347120E+05
      37      42       1       0.1320    3.179764E+05
      42      60       1       0.1500    3.556316E+05
      43      44       1       0.1360    3.430798E+05
      37      44       1       0.1370    3.179764E+05
      44      45       1       0.1500    1.921498E+05
      45      64       1       0.1410    3.012408E+05
      45      66       1       0.1110    2.585650E+05
      45      67       1       0.1110    2.585650E+05
      46      50       1       0.1490    1.924594E+05
      46      68       1       0.1100    2.380640E+05
      46      69       1       0.1100    2.380640E+05
      47      48       1       0.1380    2.552180E+05
      47      52       1       0.1380    2.552180E+05
      47      53       1       0.1490    2.510340E+05
      48      49       1       0.1380    2.552180E+05
      48      70       1       0.1080    2.845052E+05
      49      50       1       0.1380    2.552180E+05
      49      71       1       0.1080    2.845052E+05
      50      51       1       0.1380    2.552180E+05
      51      52       1       0.1380    2.552180E+05
      51      72       1       0.1080    2.845052E+05
      52      73       1       0.1080    2.845052E+05
      53      54       1       0.1380    2.552180E+05
      53      58       1       0.1380    2.552180E+05
      54      55       1       0.1380    2.552180E+05
      54      59       1       0.1440    2.510340E+05
      55      56       1       0.1380    2.552180E+05
      55      74       1       0.1080    2.845052E+05
      56      57       1       0.1380    2.552180E+05
      56      75       1       0.1080    2.845052E+05
      57      58       1       0.1380    2.552180E+05
      57      76       1       0.1080    2.845052E+05
      58      77       1       0.1080    2.845052E+05
      60      61       1       0.1530    1.861836E+05
      60      79       1       0.1110    2.585650E+05
      60      80       1       0.1110    2.585650E+05
      61      62       1       0.1530    1.861836E+05
      61      81       1       0.1110    2.585650E+05
      61      82       1       0.1110    2.585650E+05
      62      63       1       0.1530    1.861836E+05
      62      83       1       0.1110    2.585650E+05
      62      84       1       0.1110    2.585650E+05
      63      85       1       0.1110    2.694432E+05
      63      86       1       0.1110    2.694432E+05
      63      87       1       0.1110    2.694432E+05
       1      64       1       0.1410    3.012408E+05
      43      65       1       0.1719    2.000000E+06 ; no parameters found, use a large force constant to constraint the distance

[ angles ]
; atom_i  atom_j  atom_k  functype    a0 (Deg.)  k (kJ/mol/rad^2)
       2       1       3       5        113.50    4.882720E+02       0.2560    9.338690E+03
       2       1      12       5        111.50    3.765600E+02       0.0000    0.000000E+00
       2       1      64       5        111.50    3.765600E+02       0.0000    0.000000E+00
       3       1      12       5        111.50    3.765600E+02       0.0000    0.000000E+00
       3       1      64       5        111.50    3.765600E+02       0.0000    0.000000E+00
      12       1      64       5        107.00    5.898600E+02       0.0000    0.000000E+00
       1       2      13       5        110.10    2.797420E+02       0.2180    1.885310E+04
       1       2      14       5        110.10    2.797420E+02       0.2180    1.885310E+04
       1       2      15       5        110.10    2.797420E+02       0.2180    1.885310E+04
      13       2      14       5        108.40    2.970640E+02       0.1800    4.518720E+03
      13       2      15       5        108.40    2.970640E+02       0.1800    4.518720E+03
      14       2      15       5        108.40    2.970640E+02       0.1800    4.518720E+03
       1       3      16       5        110.10    2.797420E+02       0.2180    1.885310E+04
       1       3      17       5        110.10    2.797420E+02       0.2180    1.885310E+04
       1       3      18       5        110.10    2.797420E+02       0.2180    1.885310E+04
      16       3      17       5        108.40    2.970640E+02       0.1800    4.518720E+03
      16       3      18       5        108.40    2.970640E+02       0.1800    4.518720E+03
      17       3      18       5        108.40    2.970640E+02       0.1800    4.518720E+03
       5       4      19       5        110.10    2.217520E+02       0.2180    1.885310E+04
       5       4      20       5        110.10    2.217520E+02       0.2180    1.885310E+04
       5       4      12       5        111.50    3.765600E+02       0.0000    0.000000E+00
      19       4      20       5        109.00    2.970640E+02       0.1800    4.518720E+03
      12       4      19       5        108.89    3.840920E+02       0.0000    0.000000E+00
      12       4      20       5        108.89    3.840920E+02       0.0000    0.000000E+00
       4       5       6       5        113.60    4.882720E+02       0.2560    9.338690E+03
       4       5      21       5        110.10    2.217520E+02       0.2180    1.885310E+04
       4       5      22       5        110.10    2.217520E+02       0.2180    1.885310E+04
       6       5      21       5        110.10    2.217520E+02       0.2180    1.885310E+04
       6       5      22       5        110.10    2.217520E+02       0.2180    1.885310E+04
      21       5      22       5        109.00    2.970640E+02       0.1800    4.518720E+03
       5       6       7       5        113.60    4.882720E+02       0.2560    9.338690E+03
       5       6      23       5        110.10    2.217520E+02       0.2180    1.885310E+04
       5       6      24       5        110.10    2.217520E+02       0.2180    1.885310E+04
       7       6      23       5        110.10    2.217520E+02       0.2180    1.885310E+04
       7       6      24       5        110.10    2.217520E+02       0.2180    1.885310E+04
      23       6      24       5        109.00    2.970640E+02       0.1800    4.518720E+03
       6       7       8       5        113.60    4.882720E+02       0.2560    9.338690E+03
       6       7      25       5        110.10    2.217520E+02       0.2180    1.885310E+04
       6       7      26       5        110.10    2.217520E+02       0.2180    1.885310E+04
       8       7      25       5        110.10    2.217520E+02       0.2180    1.885310E+04
       8       7      26       5        110.10    2.217520E+02       0.2180    1.885310E+04
      25       7      26       5        109.00    2.970640E+02       0.1800    4.518720E+03
       7       8       9       5        113.60    4.882720E+02       0.2560    9.338690E+03
       7       8      27       5        110.10    2.217520E+02       0.2180    1.885310E+04
       7       8      28       5        110.10    2.217520E+02       0.2180    1.885310E+04
       9       8      27       5        110.10    2.217520E+02       0.2180    1.885310E+04
       9       8      28       5        110.10    2.217520E+02       0.2180    1.885310E+04
      27       8      28       5        109.00    2.970640E+02       0.1800    4.518720E+03
       8       9      10       5        113.60    4.882720E+02       0.2560    9.338690E+03
       8       9      29       5        110.10    2.217520E+02       0.2180    1.885310E+04
       8       9      30       5        110.10    2.217520E+02       0.2180    1.885310E+04
      10       9      29       5        110.10    2.217520E+02       0.2180    1.885310E+04
      10       9      30       5        110.10    2.217520E+02       0.2180    1.885310E+04
      29       9      30       5        109.00    2.970640E+02       0.1800    4.518720E+03
       9      10      11       5        115.00    4.853440E+02       0.2560    6.694400E+03
       9      10      31       5        110.10    2.217520E+02       0.2180    1.885310E+04
       9      10      32       5        110.10    2.217520E+02       0.2180    1.885310E+04
      11      10      31       5        110.10    2.895320E+02       0.2180    1.885310E+04
      11      10      32       5        110.10    2.895320E+02       0.2180    1.885310E+04
      31      10      32       5        109.00    2.970640E+02       0.1800    4.518720E+03
      10      11      33       5        110.10    2.895320E+02       0.2180    1.885310E+04
      10      11      34       5        110.10    2.895320E+02       0.2180    1.885310E+04
      10      11      35       5        110.10    2.895320E+02       0.2180    1.885310E+04
      33      11      34       5        108.40    2.970640E+02       0.1800    4.518720E+03
      33      11      35       5        108.40    2.970640E+02       0.1800    4.518720E+03
      34      11      35       5        108.40    2.970640E+02       0.1800    4.518720E+03
      42      36      43       5        103.50    1.087840E+03       0.0000    0.000000E+00
      42      37      44       5        108.00    1.213360E+03       0.0000    0.000000E+00
      39      38      59       5        101.00    8.368000E+02       0.0000    0.000000E+00
      38      39      40       5        121.00    7.531200E+02       0.0000    0.000000E+00
      38      39      78       5        119.50    2.677760E+02       0.0000    0.000000E+00
      40      39      78       5        119.50    2.677760E+02       0.0000    0.000000E+00
      39      40      41       5        102.20    1.338880E+03       0.0000    0.000000E+00
      40      41      59       5        105.90    9.204800E+02       0.0000    0.000000E+00
      36      42      60       5        123.00    3.832540E+02       0.0000    0.000000E+00
      37      42      60       5        148.17    3.825020E+02       0.0000    0.000000E+00
      36      43      44       5        110.00    1.087840E+03       0.0000    0.000000E+00
      43      44      45       5        130.00    3.832540E+02       0.0000    0.000000E+00
      37      44      43       5        108.00    1.213360E+03       0.0000    0.000000E+00
      37      44      45       5        122.00    3.832540E+02       0.0000    0.000000E+00
      44      45      66       5        109.50    4.602400E+02       0.0000    0.000000E+00
      44      45      67       5        109.50    4.602400E+02       0.0000    0.000000E+00
      64      45      66       5        108.89    3.840920E+02       0.0000    0.000000E+00
      64      45      67       5        108.89    3.840920E+02       0.0000    0.000000E+00
      66      45      67       5        109.00    2.970640E+02       0.1800    4.518720E+03
      37      46      68       5        105.20    3.204940E+02       0.0000    0.000000E+00
      37      46      69       5        105.20    3.204940E+02       0.0000    0.000000E+00
      50      46      68       5        107.50    4.125420E+02       0.0000    0.000000E+00
      50      46      69       5        107.50    4.125420E+02       0.0000    0.000000E+00
      68      46      69       5        109.00    2.970640E+02       0.1800    4.518720E+03
      48      47      52       5        120.00    3.347200E+02       0.0000    0.000000E+00
      48      47      53       5        120.00    3.347200E+02       0.0000    0.000000E+00
      52      47      53       5        120.00    3.347200E+02       0.0000    0.000000E+00
      47      48      49       5        120.00    3.347200E+02       0.0000    0.000000E+00
      47      48      70       5        120.00    2.510400E+02       0.0000    0.000000E+00
      49      48      70       5        120.00    2.510400E+02       0.2150    1.840960E+04
      48      49      50       5        120.00    3.347200E+02       0.2420    2.928800E+04
      48      49      71       5        120.00    2.510400E+02       0.2150    1.840960E+04
      50      49      71       5        120.00    2.510400E+02       0.2150    1.840960E+04
      46      50      49       5        120.00    3.832540E+02       0.0000    0.000000E+00
      46      50      51       5        120.00    3.832540E+02       0.0000    0.000000E+00
      49      50      51       5        120.00    3.347200E+02       0.2420    2.928800E+04
      50      51      52       5        120.00    3.347200E+02       0.2420    2.928800E+04
      50      51      72       5        120.00    2.510400E+02       0.2150    1.840960E+04
      52      51      72       5        120.00    2.510400E+02       0.2150    1.840960E+04
      47      52      51       5        120.00    3.347200E+02       0.0000    0.000000E+00
      47      52      73       5        120.00    2.510400E+02       0.0000    0.000000E+00
      51      52      73       5        120.00    2.510400E+02       0.2150    1.840960E+04
      47      53      54       5        120.00    3.347200E+02       0.0000    0.000000E+00
      47      53      58       5        120.00    3.347200E+02       0.0000    0.000000E+00
      54      53      58       5        120.00    3.347200E+02       0.0000    0.000000E+00
      53      54      55       5        120.00    3.347200E+02       0.0000    0.000000E+00
      53      54      59       5        120.00    2.677760E+02       0.0000    0.000000E+00
      55      54      59       5        120.00    2.677760E+02       0.0000    0.000000E+00
      54      55      56       5        120.00    3.347200E+02       0.2420    2.928800E+04
      54      55      74       5        120.00    2.510400E+02       0.2150    1.840960E+04
      56      55      74       5        120.00    2.510400E+02       0.2150    1.840960E+04
      55      56      57       5        120.00    3.347200E+02       0.2420    2.928800E+04
      55      56      75       5        120.00    2.510400E+02       0.2150    1.840960E+04
      57      56      75       5        120.00    2.510400E+02       0.2150    1.840960E+04
      56      57      58       5        120.00    3.347200E+02       0.2420    2.928800E+04
      56      57      76       5        120.00    2.510400E+02       0.2150    1.840960E+04
      58      57      76       5        120.00    2.510400E+02       0.2150    1.840960E+04
      53      58      57       5        120.00    3.347200E+02       0.0000    0.000000E+00
      53      58      77       5        120.00    2.510400E+02       0.0000    0.000000E+00
      57      58      77       5        120.00    2.510400E+02       0.2150    1.840960E+04
      38      59      41       5        111.00    8.368000E+02       0.0000    0.000000E+00
      38      59      54       5        124.50    2.092000E+02       0.0000    0.000000E+00
      41      59      54       5        124.50    2.092000E+02       0.0000    0.000000E+00
      42      60      61       5        111.00    4.937120E+02       0.0000    0.000000E+00
      42      60      79       5        109.50    4.602400E+02       0.0000    0.000000E+00
      42      60      80       5        109.50    4.602400E+02       0.0000    0.000000E+00
      61      60      79       5        110.10    2.217520E+02       0.2180    1.885310E+04
      61      60      80       5        110.10    2.217520E+02       0.2180    1.885310E+04
      79      60      80       5        109.00    2.970640E+02       0.1800    4.518720E+03
      60      61      62       5        113.60    4.882720E+02       0.2560    9.338690E+03
      60      61      81       5        110.10    2.217520E+02       0.2180    1.885310E+04
      60      61      82       5        110.10    2.217520E+02       0.2180    1.885310E+04
      62      61      81       5        110.10    2.217520E+02       0.2180    1.885310E+04
      62      61      82       5        110.10    2.217520E+02       0.2180    1.885310E+04
      81      61      82       5        109.00    2.970640E+02       0.1800    4.518720E+03
      61      62      63       5        115.00    4.853440E+02       0.2560    6.694400E+03
      61      62      83       5        110.10    2.217520E+02       0.2180    1.885310E+04
      61      62      84       5        110.10    2.217520E+02       0.2180    1.885310E+04
      63      62      83       5        110.10    2.895320E+02       0.2180    1.885310E+04
      63      62      84       5        110.10    2.895320E+02       0.2180    1.885310E+04
      83      62      84       5        109.00    2.970640E+02       0.1800    4.518720E+03
      62      63      85       5        110.10    2.895320E+02       0.2180    1.885310E+04
      62      63      86       5        110.10    2.895320E+02       0.2180    1.885310E+04
      62      63      87       5        110.10    2.895320E+02       0.2180    1.885310E+04
      85      63      86       5        108.40    2.970640E+02       0.1800    4.518720E+03
      85      63      87       5        108.40    2.970640E+02       0.1800    4.518720E+03
      86      63      87       5        108.40    2.970640E+02       0.1800    4.518720E+03
       1      12       4       1        106.81    2.000000E+03 ; no parameters found, use a large force constant to constraint the angle
      42      37      46       1        126.25    2.000000E+03 ; no parameters found, use a large force constant to constraint the angle
      44      37      46       1        126.24    2.000000E+03 ; no parameters found, use a large force constant to constraint the angle
      36      42      37       1        111.47    2.000000E+03 ; no parameters found, use a large force constant to constraint the angle
      36      43      65       1        124.63    2.000000E+03 ; no parameters found, use a large force constant to constraint the angle
      44      43      65       1        124.64    2.000000E+03 ; no parameters found, use a large force constant to constraint the angle
      44      45      64       1        109.52    2.000000E+03 ; no parameters found, use a large force constant to constraint the angle
      37      46      50       1        109.51    2.000000E+03 ; no parameters found, use a large force constant to constraint the angle
       1      64      45       1        106.83    2.000000E+03 ; no parameters found, use a large force constant to constraint the angle

[ dihedrals ]
; PROPER DIHEDRAL ANGLES
; atom_i  atom_j  atom_k  atom_l  functype     c0          c1          c2          c3          c4          c5
      64       1       2      13       9      0.0000      0.6690           3
      64       1       2      14       9      0.0000      0.6690           3
      64       1       2      15       9      0.0000      0.6690           3
      64       1       3      16       9      0.0000      0.6690           3
      64       1       3      17       9      0.0000      0.6690           3
      64       1       3      18       9      0.0000      0.6690           3
      64       1      12       4       9      0.0000      2.1340           1
      64       1      12       4       9      0.0000      2.8030           2
      64       1      12       4       9      0.0000      1.0880           3
      13       2       1       3       9      0.0000      0.6690           3
      13       2       1      12       9      0.0000      0.6690           3
      14       2       1       3       9      0.0000      0.6690           3
      14       2       1      12       9      0.0000      0.6690           3
      15       2       1       3       9      0.0000      0.6690           3
      15       2       1      12       9      0.0000      0.6690           3
      16       3       1       2       9      0.0000      0.6690           3
      16       3       1      12       9      0.0000      0.6690           3
      17       3       1       2       9      0.0000      0.6690           3
      17       3       1      12       9      0.0000      0.6690           3
      18       3       1       2       9      0.0000      0.6690           3
      18       3       1      12       9      0.0000      0.6690           3
       5       4      12       1       9      0.0000      1.0040           1
       5       4      12       1       9      0.0000      1.2130           2
       5       4      12       1       9      0.0000      0.0840           3
      19       4       5       6       9      0.0000      0.8160           3
      19       4      12       1       9      0.0000      0.3970           3
      20       4       5       6       9      0.0000      0.8160           3
      20       4      12       1       9      0.0000      0.3970           3
      12       4       5       6       9    180.0000      0.6690           1
      12       4       5       6       9      0.0000      1.6320           2
      21       5       4      19       9      0.0000      0.9200           3
      21       5       4      20       9      0.0000      0.9200           3
      21       5       4      12       9      0.0000      0.7950           3
      21       5       6       7       9      0.0000      0.8160           3
      22       5       4      19       9      0.0000      0.9200           3
      22       5       4      20       9      0.0000      0.9200           3
      22       5       4      12       9      0.0000      0.7950           3
      22       5       6       7       9      0.0000      0.8160           3
       7       6       5       4       9      0.0000      0.2700           2
       7       6       5       4       9    180.0000      0.6260           3
       7       6       5       4       9      0.0000      0.3960           4
       7       6       5       4       9      0.0000      0.4710           5
      23       6       5       4       9      0.0000      0.8160           3
      23       6       5      21       9      0.0000      0.9200           3
      23       6       5      22       9      0.0000      0.9200           3
      23       6       7       8       9      0.0000      0.8160           3
      24       6       5       4       9      0.0000      0.8160           3
      24       6       5      21       9      0.0000      0.9200           3
      24       6       5      22       9      0.0000      0.9200           3
      24       6       7       8       9      0.0000      0.8160           3
       8       7       6       5       9      0.0000      0.2700           2
       8       7       6       5       9    180.0000      0.6260           3
       8       7       6       5       9      0.0000      0.3960           4
       8       7       6       5       9      0.0000      0.4710           5
      25       7       6       5       9      0.0000      0.8160           3
      25       7       6      23       9      0.0000      0.9200           3
      25       7       6      24       9      0.0000      0.9200           3
      25       7       8       9       9      0.0000      0.8160           3
      26       7       6       5       9      0.0000      0.8160           3
      26       7       6      23       9      0.0000      0.9200           3
      26       7       6      24       9      0.0000      0.9200           3
      26       7       8       9       9      0.0000      0.8160           3
       9       8       7       6       9      0.0000      0.2700           2
       9       8       7       6       9    180.0000      0.6260           3
       9       8       7       6       9      0.0000      0.3960           4
       9       8       7       6       9      0.0000      0.4710           5
      27       8       7       6       9      0.0000      0.8160           3
      27       8       7      25       9      0.0000      0.9200           3
      27       8       7      26       9      0.0000      0.9200           3
      27       8       9      10       9      0.0000      0.8160           3
      28       8       7       6       9      0.0000      0.8160           3
      28       8       7      25       9      0.0000      0.9200           3
      28       8       7      26       9      0.0000      0.9200           3
      28       8       9      10       9      0.0000      0.8160           3
      10       9       8       7       9      0.0000      0.2700           2
      10       9       8       7       9    180.0000      0.6260           3
      10       9       8       7       9      0.0000      0.3960           4
      10       9       8       7       9      0.0000      0.4710           5
      29       9       8       7       9      0.0000      0.8160           3
      29       9       8      27       9      0.0000      0.9200           3
      29       9       8      28       9      0.0000      0.9200           3
      29       9      10      11       9      0.0000      0.7530           3
      30       9       8       7       9      0.0000      0.8160           3
      30       9       8      27       9      0.0000      0.9200           3
      30       9       8      28       9      0.0000      0.9200           3
      30       9      10      11       9      0.0000      0.7530           3
      11      10       9       8       9      0.0000      0.6300           2
      11      10       9       8       9    180.0000      0.3400           3
      11      10       9       8       9      0.0000      0.4530           4
      11      10       9       8       9      0.0000      0.8530           5
      31      10       9       8       9      0.0000      0.8160           3
      31      10       9      29       9      0.0000      0.9200           3
      31      10       9      30       9      0.0000      0.9200           3
      32      10       9       8       9      0.0000      0.8160           3
      32      10       9      29       9      0.0000      0.9200           3
      32      10       9      30       9      0.0000      0.9200           3
      33      11      10       9       9      0.0000      0.6690           3
      33      11      10      31       9      0.0000      0.6690           3
      33      11      10      32       9      0.0000      0.6690           3
      34      11      10       9       9      0.0000      0.6690           3
      34      11      10      31       9      0.0000      0.6690           3
      34      11      10      32       9      0.0000      0.6690           3
      35      11      10       9       9      0.0000      0.6690           3
      35      11      10      31       9      0.0000      0.6690           3
      35      11      10      32       9      0.0000      0.6690           3
       4      12       1       2       9      0.0000      1.6740           1
       4      12       1       2       9      0.0000      2.0500           3
       4      12       1       3       9      0.0000      1.6740           1
       4      12       1       3       9      0.0000      2.0500           3
      43      36      42      37       9    180.0000     16.7360           2
      46      37      44      43       9    180.0000     50.2070           2
      46      37      44      45       9    180.0000     10.4600           2
      44      37      42      36       9    180.0000      7.6230           2
      59      38      39      40       9    180.0000     39.7470           2
      78      39      38      59       9    180.0000      9.6230           2
      78      39      40      41       9    180.0000     10.4600           2
      41      40      39      38       9    180.0000     45.6710           2
      40      41      59      38       9    180.0000     52.5130           2
      59      41      40      39       9    180.0000     58.5750           2
      60      42      36      43       9    180.0000     20.5760           2
      60      42      37      46       9    180.0000     10.4600           2
      60      42      37      44       9    180.0000      7.6230           2
      44      43      36      42       9    180.0000     58.5750           2
      65      43      36      42       9    180.0000      3.7930           2
      65      43      44      37       9    180.0000     10.4600           2
      65      43      44      45       9    180.0000      0.0000           2
      43      44      37      42       9    180.0000     50.2070           2
      37      44      43      36       9    180.0000     12.5520           2
      45      44      43      36       9    180.0000     12.5520           2
      45      44      37      42       9    180.0000     10.4600           2
      44      45      64       1       9      0.0000      1.0040           1
      44      45      64       1       9      0.0000      1.2130           2
      44      45      64       1       9      0.0000      0.0840           3
      64      45      44      43       9      0.0000      0.1260           1
      64      45      44      43       9      0.0000      2.3010           2
      64      45      44      43       9    180.0000      1.6320           3
      64      45      44      37       9      0.0000      0.7950           3
      66      45      44      43       9      0.0000      0.0000           3
      66      45      44      37       9      0.0000      0.7950           3
      66      45      64       1       9      0.0000      0.3970           3
      67      45      44      43       9      0.0000      0.0000           3
      67      45      44      37       9      0.0000      0.7950           3
      67      45      64       1       9      0.0000      0.3970           3
      68      46      37      42       9      0.0000      0.6280           3
      68      46      37      44       9      0.0000      0.6280           3
      68      46      50      49       9      0.0000      0.0000           2
      68      46      50      51       9      0.0000      0.0000           2
      69      46      37      42       9      0.0000      0.6280           3
      69      46      37      44       9      0.0000      0.6280           3
      69      46      50      49       9      0.0000      0.0000           2
      69      46      50      51       9      0.0000      0.0000           2
      52      47      48      49       9    180.0000     12.9700           2
      53      47      48      49       9    180.0000     12.9700           2
      53      47      52      51       9    180.0000     12.9700           2
      70      48      47      52       9    180.0000     17.5720           2
      70      48      47      53       9    180.0000     17.5720           2
      70      48      49      50       9    180.0000     17.5720           2
      48      49      50      46       9    180.0000     12.9700           2
      50      49      48      47       9    180.0000     12.9700           2
      71      49      48      47       9    180.0000     17.5720           2
      71      49      48      70       9    180.0000     10.0410           2
      71      49      50      46       9    180.0000     10.0410           2
      71      49      50      51       9    180.0000     17.5720           2
      49      50      46      37       9    180.0000      0.6280           2
      51      50      46      37       9    180.0000      0.6280           2
      51      50      49      48       9    180.0000     12.9700           2
      50      51      52      47       9    180.0000     12.9700           2
      52      51      50      46       9    180.0000     12.9700           2
      52      51      50      49       9    180.0000     12.9700           2
      72      51      50      46       9    180.0000     10.0410           2
      72      51      50      49       9    180.0000     17.5720           2
      72      51      52      47       9    180.0000     17.5720           2
      51      52      47      48       9    180.0000     12.9700           2
      73      52      47      48       9    180.0000     17.5720           2
      73      52      47      53       9    180.0000     17.5720           2
      73      52      51      50       9    180.0000     17.5720           2
      73      52      51      72       9    180.0000     10.0410           2
      54      53      47      48       9    180.0000      3.7240           2
      54      53      47      52       9    180.0000      3.7240           2
      58      53      47      48       9    180.0000      3.7240           2
      58      53      47      52       9    180.0000      3.7240           2
      58      53      54      55       9    180.0000     12.9700           2
      53      54      59      38       9    180.0000      3.7240           2
      53      54      59      38       9      0.0000      0.4180           4
      53      54      59      41       9    180.0000      3.7240           2
      53      54      59      41       9      0.0000      0.4180           4
      55      54      53      47       9    180.0000     12.9700           2
      55      54      59      38       9    180.0000      3.7240           2
      55      54      59      38       9      0.0000      0.4180           4
      55      54      59      41       9    180.0000      3.7240           2
      55      54      59      41       9      0.0000      0.4180           4
      59      54      53      47       9    180.0000     12.5520           2
      59      54      53      58       9    180.0000     12.5520           2
      59      54      55      56       9    180.0000     12.5520           2
      56      55      54      53       9    180.0000     12.9700           2
      74      55      54      53       9    180.0000     17.5720           2
      74      55      54      59       9    180.0000      8.3680           2
      74      55      56      57       9    180.0000     17.5720           2
      57      56      55      54       9    180.0000     12.9700           2
      75      56      55      54       9    180.0000     17.5720           2
      75      56      55      74       9    180.0000     10.0410           2
      75      56      57      58       9    180.0000     17.5720           2
      56      57      58      53       9    180.0000     12.9700           2
      58      57      56      55       9    180.0000     12.9700           2
      76      57      56      55       9    180.0000     17.5720           2
      76      57      56      75       9    180.0000     10.0410           2
      76      57      58      53       9    180.0000     17.5720           2
      57      58      53      47       9    180.0000     12.9700           2
      57      58      53      54       9    180.0000     12.9700           2
      77      58      53      47       9    180.0000     17.5720           2
      77      58      53      54       9    180.0000     17.5720           2
      77      58      57      56       9    180.0000     17.5720           2
      77      58      57      76       9    180.0000     10.0410           2
      41      59      38      39       9    180.0000     50.2070           2
      54      59      38      39       9    180.0000     16.7360           2
      54      59      41      40       9    180.0000     16.7360           2
      61      60      42      36       9    180.0000      1.5220           1
      61      60      42      36       9      0.0000      0.0620           2
      61      60      42      36       9    180.0000      1.1890           3
      61      60      42      36       9      0.0000      0.1230           6
      61      60      42      37       9    180.0000      0.1230           2
      61      60      42      37       9      0.0000      0.7950           3
      79      60      42      36       9      0.0000      0.7950           3
      79      60      42      37       9      0.0000      1.4150           3
      79      60      61      62       9      0.0000      0.8160           3
      80      60      42      36       9      0.0000      0.7950           3
      80      60      42      37       9      0.0000      1.4150           3
      80      60      61      62       9      0.0000      0.8160           3
      62      61      60      42       9      0.0000      0.1670           3
      81      61      60      42       9      0.0000      0.8370           3
      81      61      60      79       9      0.0000      0.9200           3
      81      61      60      80       9      0.0000      0.9200           3
      81      61      62      63       9      0.0000      0.7530           3
      82      61      60      42       9      0.0000      0.8370           3
      82      61      60      79       9      0.0000      0.9200           3
      82      61      60      80       9      0.0000      0.9200           3
      82      61      62      63       9      0.0000      0.7530           3
      63      62      61      60       9      0.0000      0.6300           2
      63      62      61      60       9    180.0000      0.3400           3
      63      62      61      60       9      0.0000      0.4530           4
      63      62      61      60       9      0.0000      0.8530           5
      83      62      61      60       9      0.0000      0.8160           3
      83      62      61      81       9      0.0000      0.9200           3
      83      62      61      82       9      0.0000      0.9200           3
      84      62      61      60       9      0.0000      0.8160           3
      84      62      61      81       9      0.0000      0.9200           3
      84      62      61      82       9      0.0000      0.9200           3
      85      63      62      61       9      0.0000      0.6690           3
      85      63      62      83       9      0.0000      0.6690           3
      85      63      62      84       9      0.0000      0.6690           3
      86      63      62      61       9      0.0000      0.6690           3
      86      63      62      83       9      0.0000      0.6690           3
      86      63      62      84       9      0.0000      0.6690           3
      87      63      62      61       9      0.0000      0.6690           3
      87      63      62      83       9      0.0000      0.6690           3
      87      63      62      84       9      0.0000      0.6690           3
      45      64       1       2       9      0.0000      1.6740           1
      45      64       1       2       9      0.0000      2.0500           3
      45      64       1       3       9      0.0000      1.6740           1
      45      64       1       3       9      0.0000      2.0500           3
      45      64       1      12       9      0.0000      2.1340           1
      45      64       1      12       9      0.0000      2.8030           2
      45      64       1      12       9      0.0000      1.0880           3
      46      37      42      36       9      0.0000      0.0000           1 ; no dihedral parameters found and use zero coefficient
      50      46      37      42       9      0.0000      0.0000           1 ; no dihedral parameters found and use zero coefficient
      50      46      37      44       9      0.0000      0.0000           1 ; no dihedral parameters found and use zero coefficient

[ dihedrals ]
; IMPROPER DIHEDRAL ANGLES
; atom_i  atom_j  atom_k  atom_l  functype     c0          c1          c2          c3          c4          c5
      44      43      37      45       2      0.0000    443.4940
      48      47      49      70       2      0.0000    251.0340
      49      48      50      71       2      0.0000    251.0340
      51      50      52      72       2      0.0000    251.0340
      52      47      51      73       2      0.0000    251.0340
      55      54      56      74       2      0.0000    251.0340
      56      55      57      75       2      0.0000    251.0340
      57      56      58      76       2      0.0000    251.0340
      58      53      57      77       2      0.0000    251.0340

; sigma_14 and epsilon_14 et.al here are calculated according to the mixing rules defined by force fields.
; These parameters are commented out by default because the 'gen-pairs' is set to yes in the [ defaults ] directive.
; If you want to risk mixing this toplogy file with other forcefields which has a different 1-4 scale factor, 
; you can remove these comments and set 'gen-pairs' in [ defaults ] directive to no.
[ pairs ]
; atom_i  atom_j  functype
      64      13       1  ;      64      13       1    0.149500    0.204968
      64      14       1  ;      64      14       1    0.149500    0.204968
      64      15       1  ;      64      15       1    0.149500    0.204968
      64      16       1  ;      64      16       1    0.149500    0.204968
      64      17       1  ;      64      17       1    0.149500    0.204968
      64      18       1  ;      64      18       1    0.149500    0.204968
      64       4       1  ;      64       4       1    0.183000    0.313094
      13       3       1  ;      13       3       1    0.169500    0.181023
      13      12       1  ;      13      12       1    0.149500    0.204968
      14       3       1  ;      14       3       1    0.169500    0.181023
      14      12       1  ;      14      12       1    0.149500    0.204968
      15       3       1  ;      15       3       1    0.169500    0.181023
      15      12       1  ;      15      12       1    0.149500    0.204968
      16       2       1  ;      16       2       1    0.169500    0.181023
      16      12       1  ;      16      12       1    0.149500    0.204968
      17       2       1  ;      17       2       1    0.169500    0.181023
      17      12       1  ;      17      12       1    0.149500    0.204968
      18       2       1  ;      18       2       1    0.169500    0.181023
      18      12       1  ;      18      12       1    0.149500    0.204968
       5       1       1  ;       5       1       1    0.200500    0.177113
      19       6       1  ;      19       6       1    0.167500    0.185229
      19       1       1  ;      19       1       1    0.167000    0.140020
      20       6       1  ;      20       6       1    0.167500    0.185229
      20       1       1  ;      20       1       1    0.167000    0.140020
      12       6       1  ;      12       6       1    0.183000    0.313094
      21      19       1  ;      21      19       1    0.134000    0.146436
      21      20       1  ;      21      20       1    0.134000    0.146436
      21      12       1  ;      21      12       1    0.149500    0.247523
      21       7       1  ;      21       7       1    0.167500    0.185229
      22      19       1  ;      22      19       1    0.134000    0.146436
      22      20       1  ;      22      20       1    0.134000    0.146436
      22      12       1  ;      22      12       1    0.149500    0.247523
      22       7       1  ;      22       7       1    0.167500    0.185229
       7       4       1  ;       7       4       1    0.201000    0.234298
      23       4       1  ;      23       4       1    0.167500    0.185229
      23      21       1  ;      23      21       1    0.134000    0.146436
      23      22       1  ;      23      22       1    0.134000    0.146436
      23       8       1  ;      23       8       1    0.167500    0.185229
      24       4       1  ;      24       4       1    0.167500    0.185229
      24      21       1  ;      24      21       1    0.134000    0.146436
      24      22       1  ;      24      22       1    0.134000    0.146436
      24       8       1  ;      24       8       1    0.167500    0.185229
       8       5       1  ;       8       5       1    0.201000    0.234298
      25       5       1  ;      25       5       1    0.167500    0.185229
      25      23       1  ;      25      23       1    0.134000    0.146436
      25      24       1  ;      25      24       1    0.134000    0.146436
      25       9       1  ;      25       9       1    0.167500    0.185229
      26       5       1  ;      26       5       1    0.167500    0.185229
      26      23       1  ;      26      23       1    0.134000    0.146436
      26      24       1  ;      26      24       1    0.134000    0.146436
      26       9       1  ;      26       9       1    0.167500    0.185229
       9       6       1  ;       9       6       1    0.201000    0.234298
      27       6       1  ;      27       6       1    0.167500    0.185229
      27      25       1  ;      27      25       1    0.134000    0.146436
      27      26       1  ;      27      26       1    0.134000    0.146436
      27      10       1  ;      27      10       1    0.167500    0.185229
      28       6       1  ;      28       6       1    0.167500    0.185229
      28      25       1  ;      28      25       1    0.134000    0.146436
      28      26       1  ;      28      26       1    0.134000    0.146436
      28      10       1  ;      28      10       1    0.167500    0.185229
      10       7       1  ;      10       7       1    0.201000    0.234298
      29       7       1  ;      29       7       1    0.167500    0.185229
      29      27       1  ;      29      27       1    0.134000    0.146436
      29      28       1  ;      29      28       1    0.134000    0.146436
      29      11       1  ;      29      11       1    0.169500    0.218606
      30       7       1  ;      30       7       1    0.167500    0.185229
      30      27       1  ;      30      27       1    0.134000    0.146436
      30      28       1  ;      30      28       1    0.134000    0.146436
      30      11       1  ;      30      11       1    0.169500    0.218606
      11       8       1  ;      11       8       1    0.203000    0.276517
      31       8       1  ;      31       8       1    0.167500    0.185229
      31      29       1  ;      31      29       1    0.134000    0.146436
      31      30       1  ;      31      30       1    0.134000    0.146436
      32       8       1  ;      32       8       1    0.167500    0.185229
      32      29       1  ;      32      29       1    0.134000    0.146436
      32      30       1  ;      32      30       1    0.134000    0.146436
      33       9       1  ;      33       9       1    0.167500    0.153384
      33      31       1  ;      33      31       1    0.134000    0.121261
      33      32       1  ;      33      32       1    0.134000    0.121261
      34       9       1  ;      34       9       1    0.167500    0.153384
      34      31       1  ;      34      31       1    0.134000    0.121261
      34      32       1  ;      34      32       1    0.134000    0.121261
      35       9       1  ;      35       9       1    0.167500    0.153384
      35      31       1  ;      35      31       1    0.134000    0.121261
      35      32       1  ;      35      32       1    0.134000    0.121261
       4       2       1  ;       4       2       1    0.203000    0.276517
       4       3       1  ;       4       3       1    0.203000    0.276517
      46      43       1  ;      46      43       1    0.213750    0.219406
      46      45       1  ;      46      45       1    0.209250    0.232197
      78      59       1  ;      78      59       1    0.121250    0.126904
      78      41       1  ;      78      41       1    0.103750    0.401306
      60      43       1  ;      60      43       1    0.205500    0.221391
      60      46       1  ;      60      46       1    0.209250    0.232197
      60      44       1  ;      60      44       1    0.205500    0.221391
      65      42       1  ;      65      42       1    0.203000    0.283766
      65      37       1  ;      65      37       1    0.185500    0.897347
      65      45       1  ;      65      45       1    0.193500    0.474831
      45      36       1  ;      45      36       1    0.193000    0.442782
      45      42       1  ;      45      42       1    0.210500    0.140020
      44       1       1  ;      44       1       1    0.205000    0.167356
      64      43       1  ;      64      43       1    0.187500    0.295846
      64      37       1  ;      64      37       1    0.175000    0.591693
      66      43       1  ;      66      43       1    0.172000    0.175025
      66      37       1  ;      66      37       1    0.159500    0.350050
      66       1       1  ;      66       1       1    0.167000    0.140020
      67      43       1  ;      67      43       1    0.172000    0.175025
      67      37       1  ;      67      37       1    0.159500    0.350050
      67       1       1  ;      67       1       1    0.167000    0.140020
      68      42       1  ;      68      42       1    0.177000    0.110696
      68      44       1  ;      68      44       1    0.172000    0.175025
      68      49       1  ;      68      49       1    0.166600    0.207092
      68      51       1  ;      68      51       1    0.166600    0.207092
      69      42       1  ;      69      42       1    0.177000    0.110696
      69      44       1  ;      69      44       1    0.172000    0.175025
      69      49       1  ;      69      49       1    0.166600    0.207092
      69      51       1  ;      69      51       1    0.166600    0.207092
      52      49       1  ;      52      49       1    0.199200    0.292873
      53      49       1  ;      53      49       1    0.199200    0.292873
      53      51       1  ;      53      51       1    0.199200    0.292873
      70      52       1  ;      70      52       1    0.167500    0.191730
      70      53       1  ;      70      53       1    0.167500    0.191730
      70      50       1  ;      70      50       1    0.167500    0.191730
      48      46       1  ;      48      46       1    0.208350    0.259604
      50      47       1  ;      50      47       1    0.199200    0.292873
      71      47       1  ;      71      47       1    0.167500    0.191730
      71      70       1  ;      71      70       1    0.135800    0.125517
      71      46       1  ;      71      46       1    0.176650    0.169951
      71      51       1  ;      71      51       1    0.167500    0.191730
      49      37       1  ;      49      37       1    0.192100    0.495046
      51      37       1  ;      51      37       1    0.192100    0.495046
      51      48       1  ;      51      48       1    0.199200    0.292873
      52      46       1  ;      52      46       1    0.208350    0.259604
      72      46       1  ;      72      46       1    0.176650    0.169951
      72      49       1  ;      72      49       1    0.167500    0.191730
      72      47       1  ;      72      47       1    0.167500    0.191730
      73      48       1  ;      73      48       1    0.167500    0.191730
      73      53       1  ;      73      53       1    0.167500    0.191730
      73      50       1  ;      73      50       1    0.167500    0.191730
      73      72       1  ;      73      72       1    0.135800    0.125517
      54      48       1  ;      54      48       1    0.199200    0.292873
      54      52       1  ;      54      52       1    0.199200    0.292873
      58      48       1  ;      58      48       1    0.199200    0.292873
      58      52       1  ;      58      52       1    0.199200    0.292873
      58      55       1  ;      58      55       1    0.199200    0.292873
      53      38       1  ;      53      38       1    0.192100    0.495046
      53      41       1  ;      53      41       1    0.192100    0.495046
      55      47       1  ;      55      47       1    0.199200    0.292873
      55      38       1  ;      55      38       1    0.192100    0.495046
      55      41       1  ;      55      41       1    0.192100    0.495046
      59      47       1  ;      59      47       1    0.209600    0.156547
      59      58       1  ;      59      58       1    0.209600    0.156547
      59      56       1  ;      59      56       1    0.209600    0.156547
      56      53       1  ;      56      53       1    0.199200    0.292873
      74      53       1  ;      74      53       1    0.167500    0.191730
      74      59       1  ;      74      59       1    0.177900    0.102484
      74      57       1  ;      74      57       1    0.167500    0.191730
      57      54       1  ;      57      54       1    0.199200    0.292873
      75      54       1  ;      75      54       1    0.167500    0.191730
      75      74       1  ;      75      74       1    0.135800    0.125517
      75      58       1  ;      75      58       1    0.167500    0.191730
      76      55       1  ;      76      55       1    0.167500    0.191730
      76      75       1  ;      76      75       1    0.135800    0.125517
      76      53       1  ;      76      53       1    0.167500    0.191730
      57      47       1  ;      57      47       1    0.199200    0.292873
      77      47       1  ;      77      47       1    0.167500    0.191730
      77      54       1  ;      77      54       1    0.167500    0.191730
      77      56       1  ;      77      56       1    0.167500    0.191730
      77      76       1  ;      77      76       1    0.135800    0.125517
      54      39       1  ;      54      39       1    0.192100    0.495046
      54      40       1  ;      54      40       1    0.192100    0.495046
      61      36       1  ;      61      36       1    0.193000    0.442782
      61      37       1  ;      61      37       1    0.193000    0.442782
      79      36       1  ;      79      36       1    0.159500    0.350050
      79      37       1  ;      79      37       1    0.159500    0.350050
      79      62       1  ;      79      62       1    0.167500    0.185229
      80      36       1  ;      80      36       1    0.159500    0.350050
      80      37       1  ;      80      37       1    0.159500    0.350050
      80      62       1  ;      80      62       1    0.167500    0.185229
      62      42       1  ;      62      42       1    0.210500    0.140020
      81      42       1  ;      81      42       1    0.177000    0.110696
      81      79       1  ;      81      79       1    0.134000    0.146436
      81      80       1  ;      81      80       1    0.134000    0.146436
      81      63       1  ;      81      63       1    0.169500    0.218606
      82      42       1  ;      82      42       1    0.177000    0.110696
      82      79       1  ;      82      79       1    0.134000    0.146436
      82      80       1  ;      82      80       1    0.134000    0.146436
      82      63       1  ;      82      63       1    0.169500    0.218606
      63      60       1  ;      63      60       1    0.203000    0.276517
      83      60       1  ;      83      60       1    0.167500    0.185229
      83      81       1  ;      83      81       1    0.134000    0.146436
      83      82       1  ;      83      82       1    0.134000    0.146436
      84      60       1  ;      84      60       1    0.167500    0.185229
      84      81       1  ;      84      81       1    0.134000    0.146436
      84      82       1  ;      84      82       1    0.134000    0.146436
      85      61       1  ;      85      61       1    0.167500    0.153384
      85      83       1  ;      85      83       1    0.134000    0.121261
      85      84       1  ;      85      84       1    0.134000    0.121261
      86      61       1  ;      86      61       1    0.167500    0.153384
      86      83       1  ;      86      83       1    0.134000    0.121261
      86      84       1  ;      86      84       1    0.134000    0.121261
      87      61       1  ;      87      61       1    0.167500    0.153384
      87      83       1  ;      87      83       1    0.134000    0.121261
      87      84       1  ;      87      84       1    0.134000    0.121261
      45       2       1  ;      45       2       1    0.203000    0.276517
      45       3       1  ;      45       3       1    0.203000    0.276517
      45      12       1  ;      45      12       1    0.183000    0.313094
      46      36       1  ;      46      36       1    0.201250    0.438811
      50      42       1  ;      50      42       1    0.209600    0.156547
      50      44       1  ;      50      44       1    0.204600    0.247523

[ dihedral_restraints ]
; atom_i  atom_j  atom_k  atom_l  functype     phi     dphi   kfac
      46      37      42      36       1     180.0000       0     500
      50      46      37      42       1      51.4180       0     500
      50      46      37      44       1    -128.5820       0     500
