; Created by cgenff_charmm2gmx.py

[ moleculetype ]
; Name			   nrexcl
PTX				 3

[ atoms ]
;	 nr		  type	resnr residue  atom   cgnr	   charge		mass  typeB    chargeB		massB
; residue	 1 PTX rtp PTX q	qsum
     1      CG301      1    PTL     C1      1      0.407     12.011   ;
     2      CG331      1    PTL     C2      2     -0.269     12.011   ;
     3      CG331      1    PTL     C3      3     -0.269     12.011   ;
     4      CG331      1    PTL     C4      4     -0.090     12.011   ;
     5      OG301      1    PTL     O1      5     -0.382     15.999   ;
     6       HGA3      1    PTL     H1      6      0.090      1.008   ;
     7       HGA3      1    PTL     H2      7      0.090      1.008   ;
     8       HGA3      1    PTL     H3      8      0.090      1.008   ;
     9       HGA3      1    PTL     H4      9      0.090      1.008   ;
    10       HGA3      1    PTL     H5     10      0.090      1.008   ;
    11       HGA3      1    PTL     H6     11      0.090      1.008   ;
    12       HGA3      1    PTL     H7     12      0.090      1.008   ;
    13       HGA3      1    PTL     H8     13      0.090      1.008   ;
    14       HGA3      1    PTL     H9     14      0.090      1.008   ;
    15      NG2S1      1    PTX      N     15     -0.404     14.007   ;
    16      CG2O2      1    PTX     C5     16      0.850     12.011   ;
    17      CG311      1    PTX     C6     17      0.183     12.011   ;
    18      CG311      1    PTX     C7     18      0.127     12.011   ;
    19     CG2R61      1    PTX     C8     19     -0.040     12.011   ;
    20     CG2R61      1    PTX     C9     20     -0.106     12.011   ;
    21     CG2R61      1    PTX    C10     21     -0.115     12.011   ;
    22     CG2R61      1    PTX    C11     22     -0.115     12.011   ;
    23     CG2R61      1    PTX    C12     23     -0.115     12.011   ;
    24     CG2R61      1    PTX    C13     24     -0.106     12.011   ;
    25      CG2O1      1    PTX    C14     25      0.341     12.011   ;
    26     CG2R61      1    PTX    C15     26     -0.137     12.011   ;
    27     CG2R61      1    PTX    C16     27     -0.024     12.011   ;
    28     CG2R61      1    PTX    C17     28     -0.109     12.011   ;
    29     CG2R61      1    PTX    C18     29     -0.115     12.011   ;
    30     CG2R61      1    PTX    C19     30     -0.109     12.011   ;
    31     CG2R61      1    PTX    C20     31     -0.024     12.011   ;
    32      CG311      1    PTX    C21     32      0.272     12.011   ;
    33      CG2D1      1    PTX    C22     33     -0.153     12.011   ;
    34      CG331      1    PTX    C23     34     -0.265     12.011   ;
    35      CG2D1      1    PTX    C24     35     -0.113     12.011   ;
    36      CG311      1    PTX    C25     36      0.432     12.011   ;
    37      CG2O2      1    PTX    C26     37      0.834     12.011   ;
    38      CG331      1    PTX    C27     38     -0.311     12.011   ;
    39      CG2O5      1    PTX    C28     39      0.297     12.011   ;
    40      CG301      1    PTX    C29     40      0.016     12.011   ;
    41      CG331      1    PTX    C30     41     -0.269     12.011   ;
    42      CG331      1    PTX    C31     42     -0.269     12.011   ;
    43      CG301      1    PTX    C32     43      0.186     12.011   ;
    44      CG311      1    PTX    C33     44      0.133     12.011   ;
    45      CG2O2      1    PTX    C34     45      0.459     12.011   ;
    46     CG2R61      1    PTX    C35     46      0.086     12.011   ;
    47     CG2R61      1    PTX    C36     47     -0.110     12.011   ;
    48     CG2R61      1    PTX    C37     48     -0.114     12.011   ;
    49     CG2R61      1    PTX    C38     49     -0.115     12.011   ;
    50     CG2R61      1    PTX    C39     50     -0.114     12.011   ;
    51     CG2R61      1    PTX    C40     51     -0.110     12.011   ;
    52      CG311      1    PTX    C41     52     -0.074     12.011   ;
    53      CG301      1    PTX    C42     53      0.081     12.011   ;
    54      CG331      1    PTX    C43     54     -0.263     12.011   ;
    55      CG311      1    PTX    C44     55      0.166     12.011   ;
    56      CG321      1    PTX    C45     56     -0.201     12.011   ;
    57     CG3RC1      1    PTX    C46     57      0.015     12.011   ;
    58     CG3RC1      1    PTX    C47     58      0.366     12.011   ;
    59      CG2O2      1    PTX    C48     59      0.885     12.011   ;
    60      CG331      1    PTX    C49     60     -0.313     12.011   ;
    61     CG3C41      1    PTX    C50     61     -0.106     12.011   ;
    62      CG321      1    PTX    C51     62     -0.212     12.011   ;
    63      OG2D1      1    PTX     O2     63     -0.623     15.999   ;
    64      OG301      1    PTX     O3     64     -0.506     15.999   ;
    65      OG2D1      1    PTX     O4     65     -0.458     15.999   ;
    66      OG302      1    PTX     O5     66     -0.432     15.999   ;
    67      OG302      1    PTX     O6     67     -0.427     15.999   ;
    68      OG2D1      1    PTX     O7     68     -0.625     15.999   ;
    69      OG2D3      1    PTX     O8     69     -0.515     15.999   ;
    70      OG302      1    PTX     O9     70     -0.310     15.999   ;
    71      OG2D1      1    PTX    O10     71     -0.496     15.999   ;
    72      OG311      1    PTX    O11     72     -0.642     15.999   ;
    73      OG302      1    PTX    O12     73     -0.422     15.999   ;
    74      OG2D1      1    PTX    O13     74     -0.617     15.999   ;
    75     OG3C51      1    PTX    O14     75     -0.343     15.999   ;
    76      OG311      1    PTX    O15     76     -0.460     15.999   ;
    77       HGA1      1    PTX    H10     77      0.090      1.008   ;
    78       HGA1      1    PTX    H11     78      0.090      1.008   ;
    79      HGR61      1    PTX    H12     79      0.115      1.008   ;
    80      HGR61      1    PTX    H13     80      0.115      1.008   ;
    81      HGR61      1    PTX    H14     81      0.115      1.008   ;
    82      HGR61      1    PTX    H15     82      0.115      1.008   ;
    83      HGR61      1    PTX    H16     83      0.115      1.008   ;
    84       HGP1      1    PTX    H17     84      0.274      1.008   ;
    85      HGR61      1    PTX    H18     85      0.115      1.008   ;
    86      HGR61      1    PTX    H19     86      0.115      1.008   ;
    87      HGR61      1    PTX    H20     87      0.115      1.008   ;
    88      HGR61      1    PTX    H21     88      0.115      1.008   ;
    89      HGR61      1    PTX    H22     89      0.115      1.008   ;
    90       HGA1      1    PTX    H23     90      0.090      1.008   ;
    91       HGA3      1    PTX    H24     91      0.090      1.008   ;
    92       HGA3      1    PTX    H25     92      0.090      1.008   ;
    93       HGA3      1    PTX    H26     93      0.090      1.008   ;
    94       HGA1      1    PTX    H27     94      0.090      1.008   ;
    95       HGA3      1    PTX    H28     95      0.090      1.008   ;
    96       HGA3      1    PTX    H29     96      0.090      1.008   ;
    97       HGA3      1    PTX    H30     97      0.090      1.008   ;
    98       HGA3      1    PTX    H31     98      0.090      1.008   ;
    99       HGA3      1    PTX    H32     99      0.090      1.008   ;
   100       HGA3      1    PTX    H33    100      0.090      1.008   ;
   101       HGA3      1    PTX    H34    101      0.090      1.008   ;
   102       HGA3      1    PTX    H35    102      0.090      1.008   ;
   103       HGA3      1    PTX    H36    103      0.090      1.008   ;
   104       HGA1      1    PTX    H37    104      0.090      1.008   ;
   105      HGR61      1    PTX    H38    105      0.115      1.008   ;
   106      HGR61      1    PTX    H39    106      0.115      1.008   ;
   107      HGR61      1    PTX    H40    107      0.115      1.008   ;
   108      HGR61      1    PTX    H41    108      0.115      1.008   ;
   109      HGR61      1    PTX    H42    109      0.115      1.008   ;
   110       HGA1      1    PTX    H43    110      0.090      1.008   ;
   111       HGA3      1    PTX    H44    111      0.090      1.008   ;
   112       HGA3      1    PTX    H45    112      0.090      1.008   ;
   113       HGA3      1    PTX    H46    113      0.090      1.008   ;
   114       HGA1      1    PTX    H47    114      0.090      1.008   ;
   115       HGP1      1    PTX    H48    115      0.400      1.008   ;
   116       HGA2      1    PTX    H49    116      0.090      1.008   ;
   117       HGA2      1    PTX    H50    117      0.090      1.008   ;
   118       HGA1      1    PTX    H51    118      0.090      1.008   ;
   119       HGA3      1    PTX    H52    119      0.090      1.008   ;
   120       HGA3      1    PTX    H53    120      0.090      1.008   ;
   121       HGA3      1    PTX    H54    121      0.090      1.008   ;
   122       HGA2      1    PTX    H55    122      0.090      1.008   ;
   123       HGA2      1    PTX    H56    123      0.090      1.008   ;
   124       HGP1      1    PTX    H57    124      0.292      1.008   ;
   125       HGA2      1    PTX    H58    125      0.090      1.008   ;
   126       HGA2      1    PTX    H59    126      0.090      1.008   ;

[ bonds ]
;	ai	  aj funct			  c0			c1			  c2			c3
    1     2	 1 ;       CG301      CG331
    1     3	 1 ;       CG301      CG331
    1     5	 1 ;       CG301      OG301
    1    64	 1 ;       CG301      OG301
    2     6	 1 ;       CG331       HGA3
    2     7	 1 ;       CG331       HGA3
    2     8	 1 ;       CG331       HGA3
    3     9	 1 ;       CG331       HGA3
    3    10	 1 ;       CG331       HGA3
    3    11	 1 ;       CG331       HGA3
    4    12	 1 ;       CG331       HGA3
    4    13	 1 ;       CG331       HGA3
    4    14	 1 ;       CG331       HGA3
    4     5	 1 ;       CG331      OG301
   15    25	 1 ;       NG2S1      CG2O1
   15    84	 1 ;       NG2S1       HGP1
   15    18	 1 ;       NG2S1      CG311
   16    17	 1 ;       CG2O2      CG311
   16    66	 1 ;       CG2O2      OG302
   16    63	 1 ;       CG2O2      OG2D1
   17    18	 1 ;       CG311      CG311
   17    64	 1 ;       CG311      OG301
   17    77	 1 ;       CG311       HGA1
   18    19	 1 ;       CG311     CG2R61
   18    78	 1 ;       CG311       HGA1
   19    20	 1 ;      CG2R61     CG2R61
   19    24	 1 ;      CG2R61     CG2R61
   20    21	 1 ;      CG2R61     CG2R61
   20    79	 1 ;      CG2R61      HGR61
   21    22	 1 ;      CG2R61     CG2R61
   21    80	 1 ;      CG2R61      HGR61
   22    23	 1 ;      CG2R61     CG2R61
   22    81	 1 ;      CG2R61      HGR61
   23    24	 1 ;      CG2R61     CG2R61
   23    82	 1 ;      CG2R61      HGR61
   24    83	 1 ;      CG2R61      HGR61
   25    26	 1 ;       CG2O1     CG2R61
   25    65	 1 ;       CG2O1      OG2D1
   26    27	 1 ;      CG2R61     CG2R61
   26    31	 1 ;      CG2R61     CG2R61
   27    28	 1 ;      CG2R61     CG2R61
   27    85	 1 ;      CG2R61      HGR61
   28    29	 1 ;      CG2R61     CG2R61
   28    86	 1 ;      CG2R61      HGR61
   29    30	 1 ;      CG2R61     CG2R61
   29    87	 1 ;      CG2R61      HGR61
   30    31	 1 ;      CG2R61     CG2R61
   30    88	 1 ;      CG2R61      HGR61
   31    89	 1 ;      CG2R61      HGR61
   32    33	 1 ;       CG311      CG2D1
   32    62	 1 ;       CG311      CG321
   32    90	 1 ;       CG311       HGA1
   32    66	 1 ;       CG311      OG302
   33    34	 1 ;       CG2D1      CG331
   33    35	 1 ;       CG2D1      CG2D1
   34    91	 1 ;       CG331       HGA3
   34    92	 1 ;       CG331       HGA3
   34    93	 1 ;       CG331       HGA3
   35    36	 1 ;       CG2D1      CG311
   35    40	 1 ;       CG2D1      CG301
   36    39	 1 ;       CG311      CG2O5
   36    67	 1 ;       CG311      OG302
   36    94	 1 ;       CG311       HGA1
   37    38	 1 ;       CG2O2      CG331
   37    68	 1 ;       CG2O2      OG2D1
   37    67	 1 ;       CG2O2      OG302
   38    95	 1 ;       CG331       HGA3
   38    96	 1 ;       CG331       HGA3
   38    97	 1 ;       CG331       HGA3
   39    53	 1 ;       CG2O5      CG301
   39    69	 1 ;       CG2O5      OG2D3
   40    41	 1 ;       CG301      CG331
   40    42	 1 ;       CG301      CG331
   40    43	 1 ;       CG301      CG301
   41    98	 1 ;       CG331       HGA3
   41    99	 1 ;       CG331       HGA3
   41   100	 1 ;       CG331       HGA3
   42   101	 1 ;       CG331       HGA3
   42   102	 1 ;       CG331       HGA3
   42   103	 1 ;       CG331       HGA3
   43    44	 1 ;       CG301      CG311
   43    62	 1 ;       CG301      CG321
   43    76	 1 ;       CG301      OG311
   44    52	 1 ;       CG311      CG311
   44    70	 1 ;       CG311      OG302
   44   104	 1 ;       CG311       HGA1
   45    46	 1 ;       CG2O2     CG2R61
   45    71	 1 ;       CG2O2      OG2D1
   45    70	 1 ;       CG2O2      OG302
   46    47	 1 ;      CG2R61     CG2R61
   46    51	 1 ;      CG2R61     CG2R61
   47    48	 1 ;      CG2R61     CG2R61
   47   105	 1 ;      CG2R61      HGR61
   48    49	 1 ;      CG2R61     CG2R61
   48   106	 1 ;      CG2R61      HGR61
   49    50	 1 ;      CG2R61     CG2R61
   49   107	 1 ;      CG2R61      HGR61
   50    51	 1 ;      CG2R61     CG2R61
   50   108	 1 ;      CG2R61      HGR61
   51   109	 1 ;      CG2R61      HGR61
   52    53	 1 ;       CG311      CG301
   52    58	 1 ;       CG311     CG3RC1
   52   110	 1 ;       CG311       HGA1
   53    54	 1 ;       CG301      CG331
   53    55	 1 ;       CG301      CG311
   54   111	 1 ;       CG331       HGA3
   54   112	 1 ;       CG331       HGA3
   54   113	 1 ;       CG331       HGA3
   55    56	 1 ;       CG311      CG321
   55    72	 1 ;       CG311      OG311
   55   114	 1 ;       CG311       HGA1
   56    57	 1 ;       CG321     CG3RC1
   56   116	 1 ;       CG321       HGA2
   56   117	 1 ;       CG321       HGA2
   57    58	 1 ;      CG3RC1     CG3RC1
   57    75	 1 ;      CG3RC1     OG3C51
   57   118	 1 ;      CG3RC1       HGA1
   58    61	 1 ;      CG3RC1     CG3C41
   58    73	 1 ;      CG3RC1      OG302
   59    60	 1 ;       CG2O2      CG331
   59    74	 1 ;       CG2O2      OG2D1
   59    73	 1 ;       CG2O2      OG302
   60   119	 1 ;       CG331       HGA3
   60   120	 1 ;       CG331       HGA3
   60   121	 1 ;       CG331       HGA3
   61    75	 1 ;      CG3C41     OG3C51
   61   122	 1 ;      CG3C41       HGA2
   61   123	 1 ;      CG3C41       HGA2
   62   125	 1 ;       CG321       HGA2
   62   126	 1 ;       CG321       HGA2
   72   115	 1 ;       OG311       HGP1
   76   124	 1 ;       OG311       HGP1

[ pairs ]
;	ai	  aj funct			  c0			c1			  c2			c3
    1    12	 1
    1    13	 1
    1    14	 1
    1    16	 1
    1    18	 1
    1    77	 1
    2     9	 1
    2    10	 1
    2    11	 1
    2     4	 1
    2    17	 1
    3     6	 1
    3     7	 1
    3     8	 1
    3     4	 1
    3    17	 1
    4    64	 1
    5     6	 1
    5     7	 1
    5     8	 1
    5     9	 1
    5    10	 1
    5    11	 1
    5    17	 1
    6    64	 1
    7    64	 1
    8    64	 1
    9    64	 1
   10    64	 1
   11    64	 1
   15    16	 1
   15    64	 1
   15    77	 1
   15    20	 1
   15    24	 1
   15    27	 1
   15    31	 1
   16    19	 1
   16    78	 1
   16    33	 1
   16    62	 1
   16    90	 1
   17    25	 1
   17    84	 1
   17    32	 1
   17    20	 1
   17    24	 1
   18    26	 1
   18    65	 1
   18    66	 1
   18    63	 1
   18    21	 1
   18    79	 1
   18    23	 1
   18    83	 1
   19    25	 1
   19    84	 1
   19    64	 1
   19    77	 1
   19    22	 1
   19    80	 1
   19    82	 1
   20    78	 1
   20    23	 1
   20    83	 1
   20    81	 1
   21    24	 1
   21    82	 1
   22    79	 1
   22    83	 1
   23    80	 1
   24    78	 1
   24    79	 1
   24    81	 1
   25    78	 1
   25    28	 1
   25    85	 1
   25    30	 1
   25    89	 1
   26    84	 1
   26    29	 1
   26    86	 1
   26    88	 1
   27    65	 1
   27    30	 1
   27    89	 1
   27    87	 1
   28    31	 1
   28    88	 1
   29    85	 1
   29    89	 1
   30    86	 1
   31    65	 1
   31    85	 1
   31    87	 1
   32    63	 1
   32    91	 1
   32    92	 1
   32    93	 1
   32    36	 1
   32    40	 1
   32    44	 1
   32    76	 1
   33    43	 1
   33   125	 1
   33   126	 1
   33    39	 1
   33    67	 1
   33    94	 1
   33    41	 1
   33    42	 1
   34    62	 1
   34    90	 1
   34    66	 1
   34    36	 1
   34    40	 1
   35    62	 1
   35    90	 1
   35    66	 1
   35    91	 1
   35    92	 1
   35    93	 1
   35    53	 1
   35    69	 1
   35    37	 1
   35    98	 1
   35    99	 1
   35   100	 1
   35   101	 1
   35   102	 1
   35   103	 1
   35    44	 1
   35    76	 1
   36    41	 1
   36    42	 1
   36    43	 1
   36    38	 1
   36    68	 1
   36    52	 1
   36    54	 1
   36    55	 1
   37    39	 1
   37    94	 1
   39    40	 1
   39    44	 1
   39    58	 1
   39   110	 1
   39   111	 1
   39   112	 1
   39   113	 1
   39    56	 1
   39    72	 1
   39   114	 1
   40    67	 1
   40    94	 1
   40    52	 1
   40    70	 1
   40   104	 1
   40   125	 1
   40   126	 1
   40   124	 1
   41   101	 1
   41   102	 1
   41   103	 1
   41    44	 1
   41    62	 1
   41    76	 1
   42    98	 1
   42    99	 1
   42   100	 1
   42    44	 1
   42    62	 1
   42    76	 1
   43    90	 1
   43    66	 1
   43    98	 1
   43    99	 1
   43   100	 1
   43   101	 1
   43   102	 1
   43   103	 1
   43    53	 1
   43    58	 1
   43   110	 1
   43    45	 1
   44   125	 1
   44   126	 1
   44   124	 1
   44    46	 1
   44    71	 1
   44    54	 1
   44    55	 1
   44    57	 1
   44    61	 1
   44    73	 1
   45    52	 1
   45   104	 1
   45    48	 1
   45   105	 1
   45    50	 1
   45   109	 1
   46    49	 1
   46   106	 1
   46   108	 1
   47    71	 1
   47    70	 1
   47    50	 1
   47   109	 1
   47   107	 1
   48    51	 1
   48   108	 1
   49   105	 1
   49   109	 1
   50   106	 1
   51    71	 1
   51    70	 1
   51   105	 1
   51   107	 1
   52    69	 1
   52    62	 1
   52    76	 1
   52   111	 1
   52   112	 1
   52   113	 1
   52    56	 1
   52    72	 1
   52   114	 1
   52    75	 1
   52   118	 1
   52   122	 1
   52   123	 1
   52    59	 1
   53    67	 1
   53    94	 1
   53    70	 1
   53   104	 1
   53    57	 1
   53    61	 1
   53    73	 1
   53   116	 1
   53   117	 1
   53   115	 1
   54    69	 1
   54    58	 1
   54   110	 1
   54    56	 1
   54    72	 1
   54   114	 1
   55    69	 1
   55    58	 1
   55   110	 1
   55   111	 1
   55   112	 1
   55   113	 1
   55    75	 1
   55   118	 1
   56   115	 1
   56    61	 1
   56    73	 1
   57   110	 1
   57    72	 1
   57   114	 1
   57   122	 1
   57   123	 1
   57    59	 1
   58    70	 1
   58   104	 1
   58   116	 1
   58   117	 1
   58    60	 1
   58    74	 1
   59    61	 1
   61   110	 1
   61   118	 1
   62    70	 1
   62   104	 1
   62   124	 1
   63    64	 1
   63    77	 1
   64    66	 1
   64    78	 1
   65    84	 1
   66    77	 1
   66   125	 1
   66   126	 1
   67    69	 1
   67    95	 1
   67    96	 1
   67    97	 1
   68    95	 1
   68    96	 1
   68    97	 1
   69    94	 1
   70    76	 1
   70   110	 1
   72   116	 1
   72   117	 1
   73   110	 1
   73    75	 1
   73   118	 1
   73   122	 1
   73   123	 1
   73   119	 1
   73   120	 1
   73   121	 1
   74   119	 1
   74   120	 1
   74   121	 1
   75   116	 1
   75   117	 1
   76   104	 1
   76   125	 1
   76   126	 1
   77    78	 1
   78    84	 1
   79    80	 1
   80    81	 1
   81    82	 1
   82    83	 1
   85    86	 1
   86    87	 1
   87    88	 1
   88    89	 1
   90   125	 1
   90   126	 1
  104   110	 1
  105   106	 1
  106   107	 1
  107   108	 1
  108   109	 1
  114   116	 1
  114   117	 1
  114   115	 1
  116   118	 1
  117   118	 1

[ angles ]
;	ai	  aj	ak funct			c0			  c1			c2			  c3
    2     1     3	5 ;      CG331      CG301      CG331
    2     1     5	5 ;      CG331      CG301      OG301
    2     1    64	5 ;      CG331      CG301      OG301
    3     1     5	5 ;      CG331      CG301      OG301
    3     1    64	5 ;      CG331      CG301      OG301
    5     1    64	5 ;      OG301      CG301      OG301
    1     2     6	5 ;      CG301      CG331       HGA3
    1     2     7	5 ;      CG301      CG331       HGA3
    1     2     8	5 ;      CG301      CG331       HGA3
    6     2     7	5 ;       HGA3      CG331       HGA3
    6     2     8	5 ;       HGA3      CG331       HGA3
    7     2     8	5 ;       HGA3      CG331       HGA3
    1     3     9	5 ;      CG301      CG331       HGA3
    1     3    10	5 ;      CG301      CG331       HGA3
    1     3    11	5 ;      CG301      CG331       HGA3
    9     3    10	5 ;       HGA3      CG331       HGA3
    9     3    11	5 ;       HGA3      CG331       HGA3
   10     3    11	5 ;       HGA3      CG331       HGA3
   12     4    13	5 ;       HGA3      CG331       HGA3
   12     4    14	5 ;       HGA3      CG331       HGA3
   12     4     5	5 ;       HGA3      CG331      OG301
   13     4    14	5 ;       HGA3      CG331       HGA3
   13     4     5	5 ;       HGA3      CG331      OG301
   14     4     5	5 ;       HGA3      CG331      OG301
    1     5     4	5 ;      CG301      OG301      CG331
   25    15    84	5 ;      CG2O1      NG2S1       HGP1
   25    15    18	5 ;      CG2O1      NG2S1      CG311
   84    15    18	5 ;       HGP1      NG2S1      CG311
   17    16    66	5 ;      CG311      CG2O2      OG302
   17    16    63	5 ;      CG311      CG2O2      OG2D1
   66    16    63	5 ;      OG302      CG2O2      OG2D1
   16    17    18	5 ;      CG2O2      CG311      CG311
   16    17    64	5 ;      CG2O2      CG311      OG301
   16    17    77	5 ;      CG2O2      CG311       HGA1
   18    17    64	5 ;      CG311      CG311      OG301
   18    17    77	5 ;      CG311      CG311       HGA1
   64    17    77	5 ;      OG301      CG311       HGA1
   17    18    15	5 ;      CG311      CG311      NG2S1
   17    18    19	5 ;      CG311      CG311     CG2R61
   17    18    78	5 ;      CG311      CG311       HGA1
   15    18    19	5 ;      NG2S1      CG311     CG2R61
   15    18    78	5 ;      NG2S1      CG311       HGA1
   19    18    78	5 ;     CG2R61      CG311       HGA1
   18    19    20	5 ;      CG311     CG2R61     CG2R61
   18    19    24	5 ;      CG311     CG2R61     CG2R61
   20    19    24	5 ;     CG2R61     CG2R61     CG2R61
   19    20    21	5 ;     CG2R61     CG2R61     CG2R61
   19    20    79	5 ;     CG2R61     CG2R61      HGR61
   21    20    79	5 ;     CG2R61     CG2R61      HGR61
   20    21    22	5 ;     CG2R61     CG2R61     CG2R61
   20    21    80	5 ;     CG2R61     CG2R61      HGR61
   22    21    80	5 ;     CG2R61     CG2R61      HGR61
   21    22    23	5 ;     CG2R61     CG2R61     CG2R61
   21    22    81	5 ;     CG2R61     CG2R61      HGR61
   23    22    81	5 ;     CG2R61     CG2R61      HGR61
   22    23    24	5 ;     CG2R61     CG2R61     CG2R61
   22    23    82	5 ;     CG2R61     CG2R61      HGR61
   24    23    82	5 ;     CG2R61     CG2R61      HGR61
   19    24    23	5 ;     CG2R61     CG2R61     CG2R61
   19    24    83	5 ;     CG2R61     CG2R61      HGR61
   23    24    83	5 ;     CG2R61     CG2R61      HGR61
   15    25    26	5 ;      NG2S1      CG2O1     CG2R61
   15    25    65	5 ;      NG2S1      CG2O1      OG2D1
   26    25    65	5 ;     CG2R61      CG2O1      OG2D1
   25    26    27	5 ;      CG2O1     CG2R61     CG2R61
   25    26    31	5 ;      CG2O1     CG2R61     CG2R61
   27    26    31	5 ;     CG2R61     CG2R61     CG2R61
   26    27    28	5 ;     CG2R61     CG2R61     CG2R61
   26    27    85	5 ;     CG2R61     CG2R61      HGR61
   28    27    85	5 ;     CG2R61     CG2R61      HGR61
   27    28    29	5 ;     CG2R61     CG2R61     CG2R61
   27    28    86	5 ;     CG2R61     CG2R61      HGR61
   29    28    86	5 ;     CG2R61     CG2R61      HGR61
   28    29    30	5 ;     CG2R61     CG2R61     CG2R61
   28    29    87	5 ;     CG2R61     CG2R61      HGR61
   30    29    87	5 ;     CG2R61     CG2R61      HGR61
   29    30    31	5 ;     CG2R61     CG2R61     CG2R61
   29    30    88	5 ;     CG2R61     CG2R61      HGR61
   31    30    88	5 ;     CG2R61     CG2R61      HGR61
   26    31    30	5 ;     CG2R61     CG2R61     CG2R61
   26    31    89	5 ;     CG2R61     CG2R61      HGR61
   30    31    89	5 ;     CG2R61     CG2R61      HGR61
   33    32    62	5 ;      CG2D1      CG311      CG321
   33    32    90	5 ;      CG2D1      CG311       HGA1
   33    32    66	5 ;      CG2D1      CG311      OG302
   62    32    90	5 ;      CG321      CG311       HGA1
   62    32    66	5 ;      CG321      CG311      OG302
   90    32    66	5 ;       HGA1      CG311      OG302
   32    33    34	5 ;      CG311      CG2D1      CG331
   32    33    35	5 ;      CG311      CG2D1      CG2D1
   34    33    35	5 ;      CG331      CG2D1      CG2D1
   33    34    91	5 ;      CG2D1      CG331       HGA3
   33    34    92	5 ;      CG2D1      CG331       HGA3
   33    34    93	5 ;      CG2D1      CG331       HGA3
   91    34    92	5 ;       HGA3      CG331       HGA3
   91    34    93	5 ;       HGA3      CG331       HGA3
   92    34    93	5 ;       HGA3      CG331       HGA3
   33    35    36	5 ;      CG2D1      CG2D1      CG311
   33    35    40	5 ;      CG2D1      CG2D1      CG301
   36    35    40	5 ;      CG311      CG2D1      CG301
   35    36    39	5 ;      CG2D1      CG311      CG2O5
   35    36    67	5 ;      CG2D1      CG311      OG302
   35    36    94	5 ;      CG2D1      CG311       HGA1
   39    36    67	5 ;      CG2O5      CG311      OG302
   39    36    94	5 ;      CG2O5      CG311       HGA1
   67    36    94	5 ;      OG302      CG311       HGA1
   38    37    68	5 ;      CG331      CG2O2      OG2D1
   38    37    67	5 ;      CG331      CG2O2      OG302
   68    37    67	5 ;      OG2D1      CG2O2      OG302
   37    38    95	5 ;      CG2O2      CG331       HGA3
   37    38    96	5 ;      CG2O2      CG331       HGA3
   37    38    97	5 ;      CG2O2      CG331       HGA3
   95    38    96	5 ;       HGA3      CG331       HGA3
   95    38    97	5 ;       HGA3      CG331       HGA3
   96    38    97	5 ;       HGA3      CG331       HGA3
   36    39    53	5 ;      CG311      CG2O5      CG301
   36    39    69	5 ;      CG311      CG2O5      OG2D3
   53    39    69	5 ;      CG301      CG2O5      OG2D3
   35    40    41	5 ;      CG2D1      CG301      CG331
   35    40    42	5 ;      CG2D1      CG301      CG331
   35    40    43	5 ;      CG2D1      CG301      CG301
   41    40    42	5 ;      CG331      CG301      CG331
   41    40    43	5 ;      CG331      CG301      CG301
   42    40    43	5 ;      CG331      CG301      CG301
   40    41    98	5 ;      CG301      CG331       HGA3
   40    41    99	5 ;      CG301      CG331       HGA3
   40    41   100	5 ;      CG301      CG331       HGA3
   98    41    99	5 ;       HGA3      CG331       HGA3
   98    41   100	5 ;       HGA3      CG331       HGA3
   99    41   100	5 ;       HGA3      CG331       HGA3
   40    42   101	5 ;      CG301      CG331       HGA3
   40    42   102	5 ;      CG301      CG331       HGA3
   40    42   103	5 ;      CG301      CG331       HGA3
  101    42   102	5 ;       HGA3      CG331       HGA3
  101    42   103	5 ;       HGA3      CG331       HGA3
  102    42   103	5 ;       HGA3      CG331       HGA3
   40    43    44	5 ;      CG301      CG301      CG311
   40    43    62	5 ;      CG301      CG301      CG321
   40    43    76	5 ;      CG301      CG301      OG311
   44    43    62	5 ;      CG311      CG301      CG321
   44    43    76	5 ;      CG311      CG301      OG311
   62    43    76	5 ;      CG321      CG301      OG311
   43    44    52	5 ;      CG301      CG311      CG311
   43    44    70	5 ;      CG301      CG311      OG302
   43    44   104	5 ;      CG301      CG311       HGA1
   52    44    70	5 ;      CG311      CG311      OG302
   52    44   104	5 ;      CG311      CG311       HGA1
   70    44   104	5 ;      OG302      CG311       HGA1
   46    45    71	5 ;     CG2R61      CG2O2      OG2D1
   46    45    70	5 ;     CG2R61      CG2O2      OG302
   71    45    70	5 ;      OG2D1      CG2O2      OG302
   45    46    47	5 ;      CG2O2     CG2R61     CG2R61
   45    46    51	5 ;      CG2O2     CG2R61     CG2R61
   47    46    51	5 ;     CG2R61     CG2R61     CG2R61
   46    47    48	5 ;     CG2R61     CG2R61     CG2R61
   46    47   105	5 ;     CG2R61     CG2R61      HGR61
   48    47   105	5 ;     CG2R61     CG2R61      HGR61
   47    48    49	5 ;     CG2R61     CG2R61     CG2R61
   47    48   106	5 ;     CG2R61     CG2R61      HGR61
   49    48   106	5 ;     CG2R61     CG2R61      HGR61
   48    49    50	5 ;     CG2R61     CG2R61     CG2R61
   48    49   107	5 ;     CG2R61     CG2R61      HGR61
   50    49   107	5 ;     CG2R61     CG2R61      HGR61
   49    50    51	5 ;     CG2R61     CG2R61     CG2R61
   49    50   108	5 ;     CG2R61     CG2R61      HGR61
   51    50   108	5 ;     CG2R61     CG2R61      HGR61
   46    51    50	5 ;     CG2R61     CG2R61     CG2R61
   46    51   109	5 ;     CG2R61     CG2R61      HGR61
   50    51   109	5 ;     CG2R61     CG2R61      HGR61
   44    52    53	5 ;      CG311      CG311      CG301
   44    52    58	5 ;      CG311      CG311     CG3RC1
   44    52   110	5 ;      CG311      CG311       HGA1
   53    52    58	5 ;      CG301      CG311     CG3RC1
   53    52   110	5 ;      CG301      CG311       HGA1
   58    52   110	5 ;     CG3RC1      CG311       HGA1
   39    53    52	5 ;      CG2O5      CG301      CG311
   39    53    54	5 ;      CG2O5      CG301      CG331
   39    53    55	5 ;      CG2O5      CG301      CG311
   52    53    54	5 ;      CG311      CG301      CG331
   52    53    55	5 ;      CG311      CG301      CG311
   54    53    55	5 ;      CG331      CG301      CG311
   53    54   111	5 ;      CG301      CG331       HGA3
   53    54   112	5 ;      CG301      CG331       HGA3
   53    54   113	5 ;      CG301      CG331       HGA3
  111    54   112	5 ;       HGA3      CG331       HGA3
  111    54   113	5 ;       HGA3      CG331       HGA3
  112    54   113	5 ;       HGA3      CG331       HGA3
   53    55    56	5 ;      CG301      CG311      CG321
   53    55    72	5 ;      CG301      CG311      OG311
   53    55   114	5 ;      CG301      CG311       HGA1
   56    55    72	5 ;      CG321      CG311      OG311
   56    55   114	5 ;      CG321      CG311       HGA1
   72    55   114	5 ;      OG311      CG311       HGA1
   55    56    57	5 ;      CG311      CG321     CG3RC1
   55    56   116	5 ;      CG311      CG321       HGA2
   55    56   117	5 ;      CG311      CG321       HGA2
   57    56   116	5 ;     CG3RC1      CG321       HGA2
   57    56   117	5 ;     CG3RC1      CG321       HGA2
  116    56   117	5 ;       HGA2      CG321       HGA2
   56    57    58	5 ;      CG321     CG3RC1     CG3RC1
   56    57    75	5 ;      CG321     CG3RC1     OG3C51
   56    57   118	5 ;      CG321     CG3RC1       HGA1
   58    57    75	5 ;     CG3RC1     CG3RC1     OG3C51
   58    57   118	5 ;     CG3RC1     CG3RC1       HGA1
   75    57   118	5 ;     OG3C51     CG3RC1       HGA1
   52    58    57	5 ;      CG311     CG3RC1     CG3RC1
   52    58    61	5 ;      CG311     CG3RC1     CG3C41
   52    58    73	5 ;      CG311     CG3RC1      OG302
   57    58    61	5 ;     CG3RC1     CG3RC1     CG3C41
   57    58    73	5 ;     CG3RC1     CG3RC1      OG302
   61    58    73	5 ;     CG3C41     CG3RC1      OG302
   60    59    74	5 ;      CG331      CG2O2      OG2D1
   60    59    73	5 ;      CG331      CG2O2      OG302
   74    59    73	5 ;      OG2D1      CG2O2      OG302
   59    60   119	5 ;      CG2O2      CG331       HGA3
   59    60   120	5 ;      CG2O2      CG331       HGA3
   59    60   121	5 ;      CG2O2      CG331       HGA3
  119    60   120	5 ;       HGA3      CG331       HGA3
  119    60   121	5 ;       HGA3      CG331       HGA3
  120    60   121	5 ;       HGA3      CG331       HGA3
   58    61    75	5 ;     CG3RC1     CG3C41     OG3C51
   58    61   122	5 ;     CG3RC1     CG3C41       HGA2
   58    61   123	5 ;     CG3RC1     CG3C41       HGA2
   75    61   122	5 ;     OG3C51     CG3C41       HGA2
   75    61   123	5 ;     OG3C51     CG3C41       HGA2
  122    61   123	5 ;       HGA2     CG3C41       HGA2
   32    62    43	5 ;      CG311      CG321      CG301
   32    62   125	5 ;      CG311      CG321       HGA2
   32    62   126	5 ;      CG311      CG321       HGA2
   43    62   125	5 ;      CG301      CG321       HGA2
   43    62   126	5 ;      CG301      CG321       HGA2
  125    62   126	5 ;       HGA2      CG321       HGA2
   17    64     1	5 ;      CG311      OG301      CG301
   16    66    32	5 ;      CG2O2      OG302      CG311
   36    67    37	5 ;      CG311      OG302      CG2O2
   44    70    45	5 ;      CG311      OG302      CG2O2
   55    72   115	5 ;      CG311      OG311       HGP1
   58    73    59	5 ;     CG3RC1      OG302      CG2O2
   57    75    61	5 ;     CG3RC1     OG3C51     CG3C41
   43    76   124	5 ;      CG301      OG311       HGP1

[ dihedrals ]
;	ai	  aj	ak	  al funct			  c0			c1			  c2			c3			  c4			c5
    3     1     2     6	 9 ;      CG331      CG301      CG331       HGA3
    3     1     2     7	 9 ;      CG331      CG301      CG331       HGA3
    3     1     2     8	 9 ;      CG331      CG301      CG331       HGA3
    5     1     2     6	 9 ;      OG301      CG301      CG331       HGA3
    5     1     2     7	 9 ;      OG301      CG301      CG331       HGA3
    5     1     2     8	 9 ;      OG301      CG301      CG331       HGA3
   64     1     2     6	 9 ;      OG301      CG301      CG331       HGA3
   64     1     2     7	 9 ;      OG301      CG301      CG331       HGA3
   64     1     2     8	 9 ;      OG301      CG301      CG331       HGA3
    2     1     3     9	 9 ;      CG331      CG301      CG331       HGA3
    2     1     3    10	 9 ;      CG331      CG301      CG331       HGA3
    2     1     3    11	 9 ;      CG331      CG301      CG331       HGA3
    5     1     3     9	 9 ;      OG301      CG301      CG331       HGA3
    5     1     3    10	 9 ;      OG301      CG301      CG331       HGA3
    5     1     3    11	 9 ;      OG301      CG301      CG331       HGA3
   64     1     3     9	 9 ;      OG301      CG301      CG331       HGA3
   64     1     3    10	 9 ;      OG301      CG301      CG331       HGA3
   64     1     3    11	 9 ;      OG301      CG301      CG331       HGA3
    2     1     5     4	 9 ;      CG331      CG301      OG301      CG331
    3     1     5     4	 9 ;      CG331      CG301      OG301      CG331
   64     1     5     4	 9 ;      OG301      CG301      OG301      CG331
    2     1    64    17	 9 ;      CG331      CG301      OG301      CG311
    3     1    64    17	 9 ;      CG331      CG301      OG301      CG311
    5     1    64    17	 9 ;      OG301      CG301      OG301      CG311
   12     4     5     1	 9 ;       HGA3      CG331      OG301      CG301
   13     4     5     1	 9 ;       HGA3      CG331      OG301      CG301
   14     4     5     1	 9 ;       HGA3      CG331      OG301      CG301
   84    15    25    26	 9 ;       HGP1      NG2S1      CG2O1     CG2R61
   84    15    25    65	 9 ;       HGP1      NG2S1      CG2O1      OG2D1
   18    15    25    26	 9 ;      CG311      NG2S1      CG2O1     CG2R61
   18    15    25    65	 9 ;      CG311      NG2S1      CG2O1      OG2D1
   25    15    18    17	 9 ;      CG2O1      NG2S1      CG311      CG311
   25    15    18    19	 9 ;      CG2O1      NG2S1      CG311     CG2R61
   25    15    18    78	 9 ;      CG2O1      NG2S1      CG311       HGA1
   84    15    18    17	 9 ;       HGP1      NG2S1      CG311      CG311
   84    15    18    19	 9 ;       HGP1      NG2S1      CG311     CG2R61
   84    15    18    78	 9 ;       HGP1      NG2S1      CG311       HGA1
   66    16    17    18	 9 ;      OG302      CG2O2      CG311      CG311
   66    16    17    64	 9 ;      OG302      CG2O2      CG311      OG301
   66    16    17    77	 9 ;      OG302      CG2O2      CG311       HGA1
   63    16    17    18	 9 ;      OG2D1      CG2O2      CG311      CG311
   63    16    17    64	 9 ;      OG2D1      CG2O2      CG311      OG301
   63    16    17    77	 9 ;      OG2D1      CG2O2      CG311       HGA1
   17    16    66    32	 9 ;      CG311      CG2O2      OG302      CG311
   63    16    66    32	 9 ;      OG2D1      CG2O2      OG302      CG311
   16    17    18    15	 9 ;      CG2O2      CG311      CG311      NG2S1
   16    17    18    19	 9 ;      CG2O2      CG311      CG311     CG2R61
   16    17    18    78	 9 ;      CG2O2      CG311      CG311       HGA1
   64    17    18    15	 9 ;      OG301      CG311      CG311      NG2S1
   64    17    18    19	 9 ;      OG301      CG311      CG311     CG2R61
   64    17    18    78	 9 ;      OG301      CG311      CG311       HGA1
   77    17    18    15	 9 ;       HGA1      CG311      CG311      NG2S1
   77    17    18    19	 9 ;       HGA1      CG311      CG311     CG2R61
   77    17    18    78	 9 ;       HGA1      CG311      CG311       HGA1
   16    17    64     1	 9 ;      CG2O2      CG311      OG301      CG301
   18    17    64     1	 9 ;      CG311      CG311      OG301      CG301
   77    17    64     1	 9 ;       HGA1      CG311      OG301      CG301
   17    18    19    20	 9 ;      CG311      CG311     CG2R61     CG2R61
   17    18    19    24	 9 ;      CG311      CG311     CG2R61     CG2R61
   15    18    19    20	 9 ;      NG2S1      CG311     CG2R61     CG2R61
   15    18    19    24	 9 ;      NG2S1      CG311     CG2R61     CG2R61
   78    18    19    20	 9 ;       HGA1      CG311     CG2R61     CG2R61
   78    18    19    24	 9 ;       HGA1      CG311     CG2R61     CG2R61
   18    19    20    21	 9 ;      CG311     CG2R61     CG2R61     CG2R61
   18    19    20    79	 9 ;      CG311     CG2R61     CG2R61      HGR61
   24    19    20    21	 9 ;     CG2R61     CG2R61     CG2R61     CG2R61
   24    19    20    79	 9 ;     CG2R61     CG2R61     CG2R61      HGR61
   18    19    24    23	 9 ;      CG311     CG2R61     CG2R61     CG2R61
   18    19    24    83	 9 ;      CG311     CG2R61     CG2R61      HGR61
   20    19    24    23	 9 ;     CG2R61     CG2R61     CG2R61     CG2R61
   20    19    24    83	 9 ;     CG2R61     CG2R61     CG2R61      HGR61
   19    20    21    22	 9 ;     CG2R61     CG2R61     CG2R61     CG2R61
   19    20    21    80	 9 ;     CG2R61     CG2R61     CG2R61      HGR61
   79    20    21    22	 9 ;      HGR61     CG2R61     CG2R61     CG2R61
   79    20    21    80	 9 ;      HGR61     CG2R61     CG2R61      HGR61
   20    21    22    23	 9 ;     CG2R61     CG2R61     CG2R61     CG2R61
   20    21    22    81	 9 ;     CG2R61     CG2R61     CG2R61      HGR61
   80    21    22    23	 9 ;      HGR61     CG2R61     CG2R61     CG2R61
   80    21    22    81	 9 ;      HGR61     CG2R61     CG2R61      HGR61
   21    22    23    24	 9 ;     CG2R61     CG2R61     CG2R61     CG2R61
   21    22    23    82	 9 ;     CG2R61     CG2R61     CG2R61      HGR61
   81    22    23    24	 9 ;      HGR61     CG2R61     CG2R61     CG2R61
   81    22    23    82	 9 ;      HGR61     CG2R61     CG2R61      HGR61
   22    23    24    19	 9 ;     CG2R61     CG2R61     CG2R61     CG2R61
   22    23    24    83	 9 ;     CG2R61     CG2R61     CG2R61      HGR61
   82    23    24    19	 9 ;      HGR61     CG2R61     CG2R61     CG2R61
   82    23    24    83	 9 ;      HGR61     CG2R61     CG2R61      HGR61
   15    25    26    27	 9 ;      NG2S1      CG2O1     CG2R61     CG2R61
   15    25    26    31	 9 ;      NG2S1      CG2O1     CG2R61     CG2R61
   65    25    26    27	 9 ;      OG2D1      CG2O1     CG2R61     CG2R61
   65    25    26    31	 9 ;      OG2D1      CG2O1     CG2R61     CG2R61
   25    26    27    28	 9 ;      CG2O1     CG2R61     CG2R61     CG2R61
   25    26    27    85	 9 ;      CG2O1     CG2R61     CG2R61      HGR61
   31    26    27    28	 9 ;     CG2R61     CG2R61     CG2R61     CG2R61
   31    26    27    85	 9 ;     CG2R61     CG2R61     CG2R61      HGR61
   25    26    31    30	 9 ;      CG2O1     CG2R61     CG2R61     CG2R61
   25    26    31    89	 9 ;      CG2O1     CG2R61     CG2R61      HGR61
   27    26    31    30	 9 ;     CG2R61     CG2R61     CG2R61     CG2R61
   27    26    31    89	 9 ;     CG2R61     CG2R61     CG2R61      HGR61
   26    27    28    29	 9 ;     CG2R61     CG2R61     CG2R61     CG2R61
   26    27    28    86	 9 ;     CG2R61     CG2R61     CG2R61      HGR61
   85    27    28    29	 9 ;      HGR61     CG2R61     CG2R61     CG2R61
   85    27    28    86	 9 ;      HGR61     CG2R61     CG2R61      HGR61
   27    28    29    30	 9 ;     CG2R61     CG2R61     CG2R61     CG2R61
   27    28    29    87	 9 ;     CG2R61     CG2R61     CG2R61      HGR61
   86    28    29    30	 9 ;      HGR61     CG2R61     CG2R61     CG2R61
   86    28    29    87	 9 ;      HGR61     CG2R61     CG2R61      HGR61
   28    29    30    31	 9 ;     CG2R61     CG2R61     CG2R61     CG2R61
   28    29    30    88	 9 ;     CG2R61     CG2R61     CG2R61      HGR61
   87    29    30    31	 9 ;      HGR61     CG2R61     CG2R61     CG2R61
   87    29    30    88	 9 ;      HGR61     CG2R61     CG2R61      HGR61
   29    30    31    26	 9 ;     CG2R61     CG2R61     CG2R61     CG2R61
   29    30    31    89	 9 ;     CG2R61     CG2R61     CG2R61      HGR61
   88    30    31    26	 9 ;      HGR61     CG2R61     CG2R61     CG2R61
   88    30    31    89	 9 ;      HGR61     CG2R61     CG2R61      HGR61
   62    32    33    34	 9 ;      CG321      CG311      CG2D1      CG331
   62    32    33    35	 9 ;      CG321      CG311      CG2D1      CG2D1
   90    32    33    34	 9 ;       HGA1      CG311      CG2D1      CG331
   90    32    33    35	 9 ;       HGA1      CG311      CG2D1      CG2D1
   66    32    33    34	 9 ;      OG302      CG311      CG2D1      CG331
   66    32    33    35	 9 ;      OG302      CG311      CG2D1      CG2D1
   33    32    62    43	 9 ;      CG2D1      CG311      CG321      CG301
   33    32    62   125	 9 ;      CG2D1      CG311      CG321       HGA2
   33    32    62   126	 9 ;      CG2D1      CG311      CG321       HGA2
   90    32    62    43	 9 ;       HGA1      CG311      CG321      CG301
   90    32    62   125	 9 ;       HGA1      CG311      CG321       HGA2
   90    32    62   126	 9 ;       HGA1      CG311      CG321       HGA2
   66    32    62    43	 9 ;      OG302      CG311      CG321      CG301
   66    32    62   125	 9 ;      OG302      CG311      CG321       HGA2
   66    32    62   126	 9 ;      OG302      CG311      CG321       HGA2
   33    32    66    16	 9 ;      CG2D1      CG311      OG302      CG2O2
   62    32    66    16	 9 ;      CG321      CG311      OG302      CG2O2
   90    32    66    16	 9 ;       HGA1      CG311      OG302      CG2O2
   32    33    34    91	 9 ;      CG311      CG2D1      CG331       HGA3
   32    33    34    92	 9 ;      CG311      CG2D1      CG331       HGA3
   32    33    34    93	 9 ;      CG311      CG2D1      CG331       HGA3
   35    33    34    91	 9 ;      CG2D1      CG2D1      CG331       HGA3
   35    33    34    92	 9 ;      CG2D1      CG2D1      CG331       HGA3
   35    33    34    93	 9 ;      CG2D1      CG2D1      CG331       HGA3
   32    33    35    36	 9 ;      CG311      CG2D1      CG2D1      CG311
   32    33    35    40	 9 ;      CG311      CG2D1      CG2D1      CG301
   34    33    35    36	 9 ;      CG331      CG2D1      CG2D1      CG311
   34    33    35    40	 9 ;      CG331      CG2D1      CG2D1      CG301
   33    35    36    39	 9 ;      CG2D1      CG2D1      CG311      CG2O5
   33    35    36    67	 9 ;      CG2D1      CG2D1      CG311      OG302
   33    35    36    94	 9 ;      CG2D1      CG2D1      CG311       HGA1
   40    35    36    39	 9 ;      CG301      CG2D1      CG311      CG2O5
   40    35    36    67	 9 ;      CG301      CG2D1      CG311      OG302
   40    35    36    94	 9 ;      CG301      CG2D1      CG311       HGA1
   33    35    40    41	 9 ;      CG2D1      CG2D1      CG301      CG331
   33    35    40    42	 9 ;      CG2D1      CG2D1      CG301      CG331
   33    35    40    43	 9 ;      CG2D1      CG2D1      CG301      CG301
   36    35    40    41	 9 ;      CG311      CG2D1      CG301      CG331
   36    35    40    42	 9 ;      CG311      CG2D1      CG301      CG331
   36    35    40    43	 9 ;      CG311      CG2D1      CG301      CG301
   35    36    39    53	 9 ;      CG2D1      CG311      CG2O5      CG301
   35    36    39    69	 9 ;      CG2D1      CG311      CG2O5      OG2D3
   67    36    39    53	 9 ;      OG302      CG311      CG2O5      CG301
   67    36    39    69	 9 ;      OG302      CG311      CG2O5      OG2D3
   94    36    39    53	 9 ;       HGA1      CG311      CG2O5      CG301
   94    36    39    69	 9 ;       HGA1      CG311      CG2O5      OG2D3
   35    36    67    37	 9 ;      CG2D1      CG311      OG302      CG2O2
   39    36    67    37	 9 ;      CG2O5      CG311      OG302      CG2O2
   94    36    67    37	 9 ;       HGA1      CG311      OG302      CG2O2
   68    37    38    95	 9 ;      OG2D1      CG2O2      CG331       HGA3
   68    37    38    96	 9 ;      OG2D1      CG2O2      CG331       HGA3
   68    37    38    97	 9 ;      OG2D1      CG2O2      CG331       HGA3
   67    37    38    95	 9 ;      OG302      CG2O2      CG331       HGA3
   67    37    38    96	 9 ;      OG302      CG2O2      CG331       HGA3
   67    37    38    97	 9 ;      OG302      CG2O2      CG331       HGA3
   38    37    67    36	 9 ;      CG331      CG2O2      OG302      CG311
   68    37    67    36	 9 ;      OG2D1      CG2O2      OG302      CG311
   36    39    53    52	 9 ;      CG311      CG2O5      CG301      CG311
   36    39    53    54	 9 ;      CG311      CG2O5      CG301      CG331
   36    39    53    55	 9 ;      CG311      CG2O5      CG301      CG311
   69    39    53    52	 9 ;      OG2D3      CG2O5      CG301      CG311
   69    39    53    54	 9 ;      OG2D3      CG2O5      CG301      CG331
   69    39    53    55	 9 ;      OG2D3      CG2O5      CG301      CG311
   35    40    41    98	 9 ;      CG2D1      CG301      CG331       HGA3
   35    40    41    99	 9 ;      CG2D1      CG301      CG331       HGA3
   35    40    41   100	 9 ;      CG2D1      CG301      CG331       HGA3
   42    40    41    98	 9 ;      CG331      CG301      CG331       HGA3
   42    40    41    99	 9 ;      CG331      CG301      CG331       HGA3
   42    40    41   100	 9 ;      CG331      CG301      CG331       HGA3
   43    40    41    98	 9 ;      CG301      CG301      CG331       HGA3
   43    40    41    99	 9 ;      CG301      CG301      CG331       HGA3
   43    40    41   100	 9 ;      CG301      CG301      CG331       HGA3
   35    40    42   101	 9 ;      CG2D1      CG301      CG331       HGA3
   35    40    42   102	 9 ;      CG2D1      CG301      CG331       HGA3
   35    40    42   103	 9 ;      CG2D1      CG301      CG331       HGA3
   41    40    42   101	 9 ;      CG331      CG301      CG331       HGA3
   41    40    42   102	 9 ;      CG331      CG301      CG331       HGA3
   41    40    42   103	 9 ;      CG331      CG301      CG331       HGA3
   43    40    42   101	 9 ;      CG301      CG301      CG331       HGA3
   43    40    42   102	 9 ;      CG301      CG301      CG331       HGA3
   43    40    42   103	 9 ;      CG301      CG301      CG331       HGA3
   35    40    43    44	 9 ;      CG2D1      CG301      CG301      CG311
   35    40    43    62	 9 ;      CG2D1      CG301      CG301      CG321
   35    40    43    76	 9 ;      CG2D1      CG301      CG301      OG311
   41    40    43    44	 9 ;      CG331      CG301      CG301      CG311
   41    40    43    62	 9 ;      CG331      CG301      CG301      CG321
   41    40    43    76	 9 ;      CG331      CG301      CG301      OG311
   42    40    43    44	 9 ;      CG331      CG301      CG301      CG311
   42    40    43    62	 9 ;      CG331      CG301      CG301      CG321
   42    40    43    76	 9 ;      CG331      CG301      CG301      OG311
   40    43    44    52	 9 ;      CG301      CG301      CG311      CG311
   40    43    44    70	 9 ;      CG301      CG301      CG311      OG302
   40    43    44   104	 9 ;      CG301      CG301      CG311       HGA1
   62    43    44    52	 9 ;      CG321      CG301      CG311      CG311
   62    43    44    70	 9 ;      CG321      CG301      CG311      OG302
   62    43    44   104	 9 ;      CG321      CG301      CG311       HGA1
   76    43    44    52	 9 ;      OG311      CG301      CG311      CG311
   76    43    44    70	 9 ;      OG311      CG301      CG311      OG302
   76    43    44   104	 9 ;      OG311      CG301      CG311       HGA1
   40    43    62    32	 9 ;      CG301      CG301      CG321      CG311
   40    43    62   125	 9 ;      CG301      CG301      CG321       HGA2
   40    43    62   126	 9 ;      CG301      CG301      CG321       HGA2
   44    43    62    32	 9 ;      CG311      CG301      CG321      CG311
   44    43    62   125	 9 ;      CG311      CG301      CG321       HGA2
   44    43    62   126	 9 ;      CG311      CG301      CG321       HGA2
   76    43    62    32	 9 ;      OG311      CG301      CG321      CG311
   76    43    62   125	 9 ;      OG311      CG301      CG321       HGA2
   76    43    62   126	 9 ;      OG311      CG301      CG321       HGA2
   40    43    76   124	 9 ;      CG301      CG301      OG311       HGP1
   44    43    76   124	 9 ;      CG311      CG301      OG311       HGP1
   62    43    76   124	 9 ;      CG321      CG301      OG311       HGP1
   43    44    52    53	 9 ;      CG301      CG311      CG311      CG301
   43    44    52    58	 9 ;      CG301      CG311      CG311     CG3RC1
   43    44    52   110	 9 ;      CG301      CG311      CG311       HGA1
   70    44    52    53	 9 ;      OG302      CG311      CG311      CG301
   70    44    52    58	 9 ;      OG302      CG311      CG311     CG3RC1
   70    44    52   110	 9 ;      OG302      CG311      CG311       HGA1
  104    44    52    53	 9 ;       HGA1      CG311      CG311      CG301
  104    44    52    58	 9 ;       HGA1      CG311      CG311     CG3RC1
  104    44    52   110	 9 ;       HGA1      CG311      CG311       HGA1
   43    44    70    45	 9 ;      CG301      CG311      OG302      CG2O2
   52    44    70    45	 9 ;      CG311      CG311      OG302      CG2O2
  104    44    70    45	 9 ;       HGA1      CG311      OG302      CG2O2
   71    45    46    47	 9 ;      OG2D1      CG2O2     CG2R61     CG2R61
   71    45    46    51	 9 ;      OG2D1      CG2O2     CG2R61     CG2R61
   70    45    46    47	 9 ;      OG302      CG2O2     CG2R61     CG2R61
   70    45    46    51	 9 ;      OG302      CG2O2     CG2R61     CG2R61
   46    45    70    44	 9 ;     CG2R61      CG2O2      OG302      CG311
   71    45    70    44	 9 ;      OG2D1      CG2O2      OG302      CG311
   45    46    47    48	 9 ;      CG2O2     CG2R61     CG2R61     CG2R61
   45    46    47   105	 9 ;      CG2O2     CG2R61     CG2R61      HGR61
   51    46    47    48	 9 ;     CG2R61     CG2R61     CG2R61     CG2R61
   51    46    47   105	 9 ;     CG2R61     CG2R61     CG2R61      HGR61
   45    46    51    50	 9 ;      CG2O2     CG2R61     CG2R61     CG2R61
   45    46    51   109	 9 ;      CG2O2     CG2R61     CG2R61      HGR61
   47    46    51    50	 9 ;     CG2R61     CG2R61     CG2R61     CG2R61
   47    46    51   109	 9 ;     CG2R61     CG2R61     CG2R61      HGR61
   46    47    48    49	 9 ;     CG2R61     CG2R61     CG2R61     CG2R61
   46    47    48   106	 9 ;     CG2R61     CG2R61     CG2R61      HGR61
  105    47    48    49	 9 ;      HGR61     CG2R61     CG2R61     CG2R61
  105    47    48   106	 9 ;      HGR61     CG2R61     CG2R61      HGR61
   47    48    49    50	 9 ;     CG2R61     CG2R61     CG2R61     CG2R61
   47    48    49   107	 9 ;     CG2R61     CG2R61     CG2R61      HGR61
  106    48    49    50	 9 ;      HGR61     CG2R61     CG2R61     CG2R61
  106    48    49   107	 9 ;      HGR61     CG2R61     CG2R61      HGR61
   48    49    50    51	 9 ;     CG2R61     CG2R61     CG2R61     CG2R61
   48    49    50   108	 9 ;     CG2R61     CG2R61     CG2R61      HGR61
  107    49    50    51	 9 ;      HGR61     CG2R61     CG2R61     CG2R61
  107    49    50   108	 9 ;      HGR61     CG2R61     CG2R61      HGR61
   49    50    51    46	 9 ;     CG2R61     CG2R61     CG2R61     CG2R61
   49    50    51   109	 9 ;     CG2R61     CG2R61     CG2R61      HGR61
  108    50    51    46	 9 ;      HGR61     CG2R61     CG2R61     CG2R61
  108    50    51   109	 9 ;      HGR61     CG2R61     CG2R61      HGR61
   44    52    53    39	 9 ;      CG311      CG311      CG301      CG2O5
   44    52    53    54	 9 ;      CG311      CG311      CG301      CG331
   44    52    53    55	 9 ;      CG311      CG311      CG301      CG311
   58    52    53    39	 9 ;     CG3RC1      CG311      CG301      CG2O5
   58    52    53    54	 9 ;     CG3RC1      CG311      CG301      CG331
   58    52    53    55	 9 ;     CG3RC1      CG311      CG301      CG311
  110    52    53    39	 9 ;       HGA1      CG311      CG301      CG2O5
  110    52    53    54	 9 ;       HGA1      CG311      CG301      CG331
  110    52    53    55	 9 ;       HGA1      CG311      CG301      CG311
   44    52    58    57	 9 ;      CG311      CG311     CG3RC1     CG3RC1
   44    52    58    61	 9 ;      CG311      CG311     CG3RC1     CG3C41
   44    52    58    73	 9 ;      CG311      CG311     CG3RC1      OG302
   53    52    58    57	 9 ;      CG301      CG311     CG3RC1     CG3RC1
   53    52    58    61	 9 ;      CG301      CG311     CG3RC1     CG3C41
   53    52    58    73	 9 ;      CG301      CG311     CG3RC1      OG302
  110    52    58    57	 9 ;       HGA1      CG311     CG3RC1     CG3RC1
  110    52    58    61	 9 ;       HGA1      CG311     CG3RC1     CG3C41
  110    52    58    73	 9 ;       HGA1      CG311     CG3RC1      OG302
   39    53    54   111	 9 ;      CG2O5      CG301      CG331       HGA3
   39    53    54   112	 9 ;      CG2O5      CG301      CG331       HGA3
   39    53    54   113	 9 ;      CG2O5      CG301      CG331       HGA3
   52    53    54   111	 9 ;      CG311      CG301      CG331       HGA3
   52    53    54   112	 9 ;      CG311      CG301      CG331       HGA3
   52    53    54   113	 9 ;      CG311      CG301      CG331       HGA3
   55    53    54   111	 9 ;      CG311      CG301      CG331       HGA3
   55    53    54   112	 9 ;      CG311      CG301      CG331       HGA3
   55    53    54   113	 9 ;      CG311      CG301      CG331       HGA3
   39    53    55    56	 9 ;      CG2O5      CG301      CG311      CG321
   39    53    55    72	 9 ;      CG2O5      CG301      CG311      OG311
   39    53    55   114	 9 ;      CG2O5      CG301      CG311       HGA1
   52    53    55    56	 9 ;      CG311      CG301      CG311      CG321
   52    53    55    72	 9 ;      CG311      CG301      CG311      OG311
   52    53    55   114	 9 ;      CG311      CG301      CG311       HGA1
   54    53    55    56	 9 ;      CG331      CG301      CG311      CG321
   54    53    55    72	 9 ;      CG331      CG301      CG311      OG311
   54    53    55   114	 9 ;      CG331      CG301      CG311       HGA1
   53    55    56    57	 9 ;      CG301      CG311      CG321     CG3RC1
   53    55    56   116	 9 ;      CG301      CG311      CG321       HGA2
   53    55    56   117	 9 ;      CG301      CG311      CG321       HGA2
   72    55    56    57	 9 ;      OG311      CG311      CG321     CG3RC1
   72    55    56   116	 9 ;      OG311      CG311      CG321       HGA2
   72    55    56   117	 9 ;      OG311      CG311      CG321       HGA2
  114    55    56    57	 9 ;       HGA1      CG311      CG321     CG3RC1
  114    55    56   116	 9 ;       HGA1      CG311      CG321       HGA2
  114    55    56   117	 9 ;       HGA1      CG311      CG321       HGA2
   53    55    72   115	 9 ;      CG301      CG311      OG311       HGP1
   56    55    72   115	 9 ;      CG321      CG311      OG311       HGP1
  114    55    72   115	 9 ;       HGA1      CG311      OG311       HGP1
   55    56    57    58	 9 ;      CG311      CG321     CG3RC1     CG3RC1
   55    56    57    75	 9 ;      CG311      CG321     CG3RC1     OG3C51
   55    56    57   118	 9 ;      CG311      CG321     CG3RC1       HGA1
  116    56    57    58	 9 ;       HGA2      CG321     CG3RC1     CG3RC1
  116    56    57    75	 9 ;       HGA2      CG321     CG3RC1     OG3C51
  116    56    57   118	 9 ;       HGA2      CG321     CG3RC1       HGA1
  117    56    57    58	 9 ;       HGA2      CG321     CG3RC1     CG3RC1
  117    56    57    75	 9 ;       HGA2      CG321     CG3RC1     OG3C51
  117    56    57   118	 9 ;       HGA2      CG321     CG3RC1       HGA1
   56    57    58    52	 9 ;      CG321     CG3RC1     CG3RC1      CG311
   56    57    58    61	 9 ;      CG321     CG3RC1     CG3RC1     CG3C41
   56    57    58    73	 9 ;      CG321     CG3RC1     CG3RC1      OG302
   75    57    58    52	 9 ;     OG3C51     CG3RC1     CG3RC1      CG311
   75    57    58    61	 9 ;     OG3C51     CG3RC1     CG3RC1     CG3C41
   75    57    58    73	 9 ;     OG3C51     CG3RC1     CG3RC1      OG302
  118    57    58    52	 9 ;       HGA1     CG3RC1     CG3RC1      CG311
  118    57    58    61	 9 ;       HGA1     CG3RC1     CG3RC1     CG3C41
  118    57    58    73	 9 ;       HGA1     CG3RC1     CG3RC1      OG302
   56    57    75    61	 9 ;      CG321     CG3RC1     OG3C51     CG3C41
   58    57    75    61	 9 ;     CG3RC1     CG3RC1     OG3C51     CG3C41
  118    57    75    61	 9 ;       HGA1     CG3RC1     OG3C51     CG3C41
   52    58    61    75	 9 ;      CG311     CG3RC1     CG3C41     OG3C51
   52    58    61   122	 9 ;      CG311     CG3RC1     CG3C41       HGA2
   52    58    61   123	 9 ;      CG311     CG3RC1     CG3C41       HGA2
   57    58    61    75	 9 ;     CG3RC1     CG3RC1     CG3C41     OG3C51
   57    58    61   122	 9 ;     CG3RC1     CG3RC1     CG3C41       HGA2
   57    58    61   123	 9 ;     CG3RC1     CG3RC1     CG3C41       HGA2
   73    58    61    75	 9 ;      OG302     CG3RC1     CG3C41     OG3C51
   73    58    61   122	 9 ;      OG302     CG3RC1     CG3C41       HGA2
   73    58    61   123	 9 ;      OG302     CG3RC1     CG3C41       HGA2
   52    58    73    59	 9 ;      CG311     CG3RC1      OG302      CG2O2
   57    58    73    59	 9 ;     CG3RC1     CG3RC1      OG302      CG2O2
   61    58    73    59	 9 ;     CG3C41     CG3RC1      OG302      CG2O2
   74    59    60   119	 9 ;      OG2D1      CG2O2      CG331       HGA3
   74    59    60   120	 9 ;      OG2D1      CG2O2      CG331       HGA3
   74    59    60   121	 9 ;      OG2D1      CG2O2      CG331       HGA3
   73    59    60   119	 9 ;      OG302      CG2O2      CG331       HGA3
   73    59    60   120	 9 ;      OG302      CG2O2      CG331       HGA3
   73    59    60   121	 9 ;      OG302      CG2O2      CG331       HGA3
   60    59    73    58	 9 ;      CG331      CG2O2      OG302     CG3RC1
   74    59    73    58	 9 ;      OG2D1      CG2O2      OG302     CG3RC1
   58    61    75    57	 9 ;     CG3RC1     CG3C41     OG3C51     CG3RC1
  122    61    75    57	 9 ;       HGA2     CG3C41     OG3C51     CG3RC1
  123    61    75    57	 9 ;       HGA2     CG3C41     OG3C51     CG3RC1

[ dihedrals ]
;	ai	  aj	ak	  al funct			  c0			c1			  c2			c3
   16    17    63    66	 2
   25    26    15    65	 2
   37    38    68    67	 2
   39    53    36    69	 2
   45    46    71    70	 2
   59    60    74    73	 2

