; Created by cgenff_charmm2gmx.py

[ moleculetype ]
; Name			   nrexcl
IDB				 3

[ atoms ]
;	 nr		  type	resnr residue  atom   cgnr	   charge		mass  typeB    chargeB		massB
; residue	 1 IDB rtp IDB q	qsum
     1      CG331      1    IDB     C1      1      0.012     12.011   ;
     2      OG301      1    IDB     O1      2     -0.373     15.999   ;
     3     CG2D1O      1    IDB     C2      3     -0.037     12.011   ;
     4     CG2D1O      1    IDB     C3      4     -0.037     12.011   ;
     5      OG301      1    IDB     O2      5     -0.373     15.999   ;
     6      CG331      1    IDB     C4      6      0.012     12.011   ;
     7      CG2O5      1    IDB     C5      7      0.374     12.011   ;
     8      OG2D3      1    IDB     O3      8     -0.247     15.999   ;
     9     CG2DC1      1    IDB     C6      9     -0.045     12.011   ;
    10      CG321      1    IDB     C7     10     -0.274     12.011   ;
    11      CG321      1    IDB     C8     11     -0.167     12.011   ;
    12      CG321      1    IDB     C9     12     -0.122     12.011   ;
    13      CG321      1    IDB    C10     13     -0.180     12.011   ;
    14      CG321      1    IDB    C11     14     -0.180     12.011   ;
    15      CG321      1    IDB    C12     15     -0.180     12.011   ;
    16      CG321      1    IDB    C13     16     -0.180     12.011   ;
    17      CG321      1    IDB    C14     17     -0.180     12.011   ;
    18      CG321      1    IDB    C15     18     -0.179     12.011   ;
    19      CG321      1    IDB    C16     19      0.050     12.011   ;
    20      OG311      1    IDB     O4     20     -0.650     15.999   ;
    21     CG2DC1      1    IDB    C17     21      0.072     12.011   ;
    22      CG331      1    IDB    C18     22     -0.241     12.011   ;
    23      CG2O5      1    IDB    C19     23      0.343     12.011   ;
    24      OG2D3      1    IDB     O5     24     -0.247     15.999   ;
    25       HGA3      1    IDB     H1     25      0.090      1.008   ;
    26       HGA3      1    IDB     H2     26      0.090      1.008   ;
    27       HGA3      1    IDB     H3     27      0.090      1.008   ;
    28       HGA3      1    IDB     H4     28      0.090      1.008   ;
    29       HGA3      1    IDB     H5     29      0.090      1.008   ;
    30       HGA3      1    IDB     H6     30      0.090      1.008   ;
    31       HGA2      1    IDB     H7     31      0.090      1.008   ;
    32       HGA2      1    IDB     H8     32      0.090      1.008   ;
    33       HGA2      1    IDB     H9     33      0.090      1.008   ;
    34       HGA2      1    IDB    H10     34      0.090      1.008   ;
    35       HGA2      1    IDB    H11     35      0.090      1.008   ;
    36       HGA2      1    IDB    H12     36      0.090      1.008   ;
    37       HGA2      1    IDB    H13     37      0.090      1.008   ;
    38       HGA2      1    IDB    H14     38      0.090      1.008   ;
    39       HGA2      1    IDB    H15     39      0.090      1.008   ;
    40       HGA2      1    IDB    H16     40      0.090      1.008   ;
    41       HGA2      1    IDB    H17     41      0.090      1.008   ;
    42       HGA2      1    IDB    H18     42      0.090      1.008   ;
    43       HGA2      1    IDB    H19     43      0.090      1.008   ;
    44       HGA2      1    IDB    H20     44      0.090      1.008   ;
    45       HGA2      1    IDB    H21     45      0.090      1.008   ;
    46       HGA2      1    IDB    H22     46      0.090      1.008   ;
    47       HGA2      1    IDB    H23     47      0.090      1.008   ;
    48       HGA2      1    IDB    H24     48      0.090      1.008   ;
    49       HGA2      1    IDB    H25     49      0.090      1.008   ;
    50       HGA2      1    IDB    H26     50      0.090      1.008   ;
    51       HGP1      1    IDB    H27     51      0.419      1.008   ;
    52       HGA3      1    IDB    H28     52      0.090      1.008   ;
    53       HGA3      1    IDB    H29     53      0.090      1.008   ;
    54       HGA3      1    IDB    H30     54      0.090      1.008   ;

[ bonds ]
;	ai	  aj funct			  c0			c1			  c2			c3
    1    25	 1
    1     2	 1
    1    27	 1
    1    26	 1
    2     3	 1
    3     4	 1
    3    23	 1
    4     5	 1
    4     7	 1
    5     6	 1
    6    29	 1
    6    28	 1
    6    30	 1
    7     9	 1
    7     8	 1
    9    10	 1
    9    21	 1
   10    11	 1
   10    31	 1
   10    32	 1
   11    33	 1
   11    12	 1
   11    34	 1
   12    36	 1
   12    13	 1
   12    35	 1
   13    37	 1
   13    14	 1
   13    38	 1
   14    39	 1
   14    15	 1
   14    40	 1
   15    41	 1
   15    42	 1
   15    16	 1
   16    17	 1
   16    43	 1
   16    44	 1
   17    18	 1
   17    45	 1
   17    46	 1
   18    19	 1
   18    47	 1
   18    48	 1
   19    49	 1
   19    20	 1
   19    50	 1
   20    51	 1
   21    22	 1
   21    23	 1
   22    53	 1
   22    52	 1
   22    54	 1
   23    24	 1

[ pairs ]
;	ai	  aj funct			  c0			c1			  c2			c3
    1     4	 1
    1    23	 1
    2    21	 1
    2     5	 1
    2     7	 1
    2    24	 1
    3     6	 1
    3     8	 1
    3     9	 1
    3    22	 1
    3    25	 1
    3    26	 1
    3    27	 1
    4    10	 1
    4    21	 1
    4    24	 1
    4    28	 1
    4    29	 1
    4    30	 1
    5     9	 1
    5    23	 1
    5     8	 1
    6     7	 1
    7    11	 1
    7    22	 1
    7    23	 1
    7    31	 1
    7    32	 1
    8    10	 1
    8    21	 1
    9    33	 1
    9    34	 1
    9    12	 1
    9    52	 1
    9    53	 1
    9    54	 1
    9    24	 1
   10    35	 1
   10    36	 1
   10    13	 1
   10    22	 1
   10    23	 1
   11    37	 1
   11    21	 1
   11    14	 1
   11    38	 1
   12    39	 1
   12    40	 1
   12    15	 1
   12    31	 1
   12    32	 1
   13    33	 1
   13    34	 1
   13    41	 1
   13    16	 1
   13    42	 1
   14    35	 1
   14    36	 1
   14    43	 1
   14    44	 1
   14    17	 1
   15    37	 1
   15    38	 1
   15    45	 1
   15    46	 1
   15    18	 1
   16    39	 1
   16    40	 1
   16    47	 1
   16    48	 1
   16    19	 1
   17    41	 1
   17    42	 1
   17    49	 1
   17    50	 1
   17    20	 1
   18    43	 1
   18    44	 1
   18    51	 1
   19    45	 1
   19    46	 1
   20    47	 1
   20    48	 1
   21    31	 1
   21    32	 1
   22    24	 1
   23    52	 1
   23    53	 1
   23    54	 1
   31    33	 1
   31    34	 1
   32    33	 1
   32    34	 1
   33    35	 1
   33    36	 1
   34    35	 1
   34    36	 1
   35    37	 1
   35    38	 1
   36    37	 1
   36    38	 1
   37    39	 1
   37    40	 1
   38    39	 1
   38    40	 1
   39    41	 1
   39    42	 1
   40    41	 1
   40    42	 1
   41    43	 1
   41    44	 1
   42    43	 1
   42    44	 1
   43    45	 1
   43    46	 1
   44    45	 1
   44    46	 1
   45    47	 1
   45    48	 1
   46    47	 1
   46    48	 1
   47    49	 1
   47    50	 1
   48    49	 1
   48    50	 1
   49    51	 1
   50    51	 1

[ angles ]
;	ai	  aj	ak funct			c0			  c1			c2			  c3
   25     1     2	5
   25     1    27	5
   25     1    26	5
    2     1    27	5
    2     1    26	5
   27     1    26	5
    1     2     3	5
    2     3     4	5
    2     3    23	5
    4     3    23	5
    3     4     5	5
    3     4     7	5
    5     4     7	5
    4     5     6	5
   29     6    28	5
   29     6     5	5
   29     6    30	5
   28     6     5	5
   28     6    30	5
    5     6    30	5
    9     7     4	5
    9     7     8	5
    4     7     8	5
   10     9    21	5
   10     9     7	5
   21     9     7	5
    9    10    11	5
    9    10    31	5
    9    10    32	5
   11    10    31	5
   11    10    32	5
   31    10    32	5
   33    11    10	5
   33    11    12	5
   33    11    34	5
   10    11    12	5
   10    11    34	5
   12    11    34	5
   11    12    36	5
   11    12    13	5
   11    12    35	5
   36    12    13	5
   36    12    35	5
   13    12    35	5
   12    13    37	5
   12    13    14	5
   12    13    38	5
   37    13    14	5
   37    13    38	5
   14    13    38	5
   13    14    39	5
   13    14    15	5
   13    14    40	5
   39    14    15	5
   39    14    40	5
   15    14    40	5
   41    15    42	5
   41    15    14	5
   41    15    16	5
   42    15    14	5
   42    15    16	5
   14    15    16	5
   17    16    43	5
   17    16    44	5
   17    16    15	5
   43    16    44	5
   43    16    15	5
   44    16    15	5
   18    17    45	5
   18    17    46	5
   18    17    16	5
   45    17    46	5
   45    17    16	5
   46    17    16	5
   17    18    19	5
   17    18    47	5
   17    18    48	5
   19    18    47	5
   19    18    48	5
   47    18    48	5
   49    19    18	5
   49    19    20	5
   49    19    50	5
   18    19    20	5
   18    19    50	5
   20    19    50	5
   19    20    51	5
    9    21    22	5
    9    21    23	5
   22    21    23	5
   53    22    52	5
   53    22    21	5
   53    22    54	5
   52    22    21	5
   52    22    54	5
   21    22    54	5
    3    23    21	5
    3    23    24	5
   21    23    24	5

[ dihedrals ]
;	ai	  aj	ak	  al funct			  c0			c1			  c2			c3			  c4			c5
   25     1     2     3	 9
   27     1     2     3	 9
   26     1     2     3	 9
    1     2     3     4	 9
    1     2     3    23	 9
    2     3     4     5	 9
    2     3     4     7	 9
   23     3     4     5	 9
   23     3     4     7	 9
    2     3    23    21	 9
    2     3    23    24	 9
    4     3    23    21	 9
    4     3    23    24	 9
    3     4     5     6	 9
    7     4     5     6	 9
    3     4     7     9	 9
    3     4     7     8	 9
    5     4     7     9	 9
    5     4     7     8	 9
    4     5     6    29	 9
    4     5     6    28	 9
    4     5     6    30	 9
    4     7     9    10	 9
    4     7     9    21	 9
    8     7     9    10	 9
    8     7     9    21	 9
   21     9    10    11	 9
   21     9    10    31	 9
   21     9    10    32	 9
    7     9    10    11	 9
    7     9    10    31	 9
    7     9    10    32	 9
   10     9    21    22	 9
   10     9    21    23	 9
    7     9    21    22	 9
    7     9    21    23	 9
    9    10    11    33	 9
    9    10    11    12	 9
    9    10    11    34	 9
   31    10    11    33	 9
   31    10    11    12	 9
   31    10    11    34	 9
   32    10    11    33	 9
   32    10    11    12	 9
   32    10    11    34	 9
   33    11    12    36	 9
   33    11    12    13	 9
   33    11    12    35	 9
   10    11    12    36	 9
   10    11    12    13	 9
   10    11    12    35	 9
   34    11    12    36	 9
   34    11    12    13	 9
   34    11    12    35	 9
   11    12    13    37	 9
   11    12    13    14	 9
   11    12    13    38	 9
   36    12    13    37	 9
   36    12    13    14	 9
   36    12    13    38	 9
   35    12    13    37	 9
   35    12    13    14	 9
   35    12    13    38	 9
   12    13    14    39	 9
   12    13    14    15	 9
   12    13    14    40	 9
   37    13    14    39	 9
   37    13    14    15	 9
   37    13    14    40	 9
   38    13    14    39	 9
   38    13    14    15	 9
   38    13    14    40	 9
   13    14    15    41	 9
   13    14    15    42	 9
   13    14    15    16	 9
   39    14    15    41	 9
   39    14    15    42	 9
   39    14    15    16	 9
   40    14    15    41	 9
   40    14    15    42	 9
   40    14    15    16	 9
   41    15    16    17	 9
   41    15    16    43	 9
   41    15    16    44	 9
   42    15    16    17	 9
   42    15    16    43	 9
   42    15    16    44	 9
   14    15    16    17	 9
   14    15    16    43	 9
   14    15    16    44	 9
   43    16    17    18	 9
   43    16    17    45	 9
   43    16    17    46	 9
   44    16    17    18	 9
   44    16    17    45	 9
   44    16    17    46	 9
   15    16    17    18	 9
   15    16    17    45	 9
   15    16    17    46	 9
   45    17    18    19	 9
   45    17    18    47	 9
   45    17    18    48	 9
   46    17    18    19	 9
   46    17    18    47	 9
   46    17    18    48	 9
   16    17    18    19	 9
   16    17    18    47	 9
   16    17    18    48	 9
   17    18    19    49	 9
   17    18    19    20	 9
   17    18    19    50	 9
   47    18    19    49	 9
   47    18    19    20	 9
   47    18    19    50	 9
   48    18    19    49	 9
   48    18    19    20	 9
   48    18    19    50	 9
   49    19    20    51	 9
   18    19    20    51	 9
   50    19    20    51	 9
    9    21    22    53	 9
    9    21    22    52	 9
    9    21    22    54	 9
   23    21    22    53	 9
   23    21    22    52	 9
   23    21    22    54	 9
    9    21    23     3	 9
    9    21    23    24	 9
   22    21    23     3	 9
   22    21    23    24	 9

[ dihedrals ]
;	ai	  aj	ak	  al funct			  c0			c1			  c2			c3
    7     4     9     8	 2
   23     3    21    24	 2

