; Created by cgenff_charmm2gmx.py

[ moleculetype ]
; Name			   nrexcl
FUL				 3

[ atoms ]
;	 nr		  type	resnr residue  atom   cgnr	   charge		mass  typeB    chargeB		massB
; residue	 1 FUL rtp FUL q	qsum
     1      CG331      1    FUL     C1      1     -0.271     12.011   ;
     2     CG3RC1      1    FUL     C2      2      0.001     12.011   ;
     3      CG321      1    FUL     C3      3     -0.189     12.011   ;
     4      CG321      1    FUL     C4      4     -0.180     12.011   ;
     5      CG311      1    FUL     C5      5     -0.085     12.011   ;
     6     CG2R61      1    FUL     C6      6      0.007     12.011   ;
     7     CG2R61      1    FUL     C7      7     -0.106     12.011   ;
     8     CG2R61      1    FUL     C8      8     -0.113     12.011   ;
     9     CG2R61      1    FUL     C9      9      0.115     12.011   ;
    10      OG311      1    FUL     O1     10     -0.533     15.999   ;
    11     CG2R61      1    FUL    C10     11     -0.116     12.011   ;
    12     CG2R61      1    FUL    C11     12     -0.003     12.011   ;
    13      CG321      1    FUL    C12     13     -0.190     12.011   ;
    14      CG311      1    FUL    C13     14     -0.089     12.011   ;
    15      CG321      1    FUL    C14     15     -0.197     12.011   ;
    16      CG321      1    FUL    C15     16     -0.192     12.011   ;
    17      CG321      1    FUL    C16     17     -0.157     12.011   ;
    18      CG321      1    FUL    C17     18     -0.180     12.011   ;
    19      CG321      1    FUL    C18     19     -0.180     12.011   ;
    20      CG321      1    FUL    C19     20     -0.180     12.011   ;
    21      CG321      1    FUL    C20     21     -0.180     12.011   ;
    22      CG321      1    FUL    C21     22     -0.189     12.011   ;
    23      CG321      1    FUL    C22     23     -0.059     12.011   ;
    24      SG3O3      1    FUL      S     24      0.325     32.060   ;
    25      OG2P1      1    FUL     O2     25     -0.549     15.999   ;
    26      CG321      1    FUL    C23     26     -0.059     12.011   ;
    27      CG321      1    FUL    C24     27     -0.181     12.011   ;
    28      CG321      1    FUL    C25     28     -0.066     12.011   ;
    29      CG312      1    FUL    C26     29      0.340     12.011   ;
    30       FGA2      1    FUL     F1     30     -0.187     18.998   ;
    31       FGA2      1    FUL     F2     31     -0.187     18.998   ;
    32      CG302      1    FUL    C27     32      0.332     12.011   ;
    33       FGA3      1    FUL     F3     33     -0.140     18.998   ;
    34       FGA3      1    FUL     F4     34     -0.140     18.998   ;
    35       FGA3      1    FUL     F5     35     -0.140     18.998   ;
    36      CG311      1    FUL    C28     36     -0.094     12.011   ;
    37     CG3RC1      1    FUL    C29     37     -0.096     12.011   ;
    38     CG3C52      1    FUL    C30     38     -0.180     12.011   ;
    39     CG3C52      1    FUL    C31     39     -0.179     12.011   ;
    40     CG3C51      1    FUL    C32     40      0.153     12.011   ;
    41      OG311      1    FUL     O3     41     -0.651     15.999   ;
    42       HGA3      1    FUL     H1     42      0.090      1.008   ;
    43       HGA3      1    FUL     H2     43      0.090      1.008   ;
    44       HGA3      1    FUL     H3     44      0.090      1.008   ;
    45       HGA2      1    FUL     H4     45      0.090      1.008   ;
    46       HGA2      1    FUL     H5     46      0.090      1.008   ;
    47       HGA2      1    FUL     H6     47      0.090      1.008   ;
    48       HGA2      1    FUL     H7     48      0.090      1.008   ;
    49       HGA1      1    FUL     H8     49      0.090      1.008   ;
    50      HGR61      1    FUL     H9     50      0.115      1.008   ;
    51      HGR61      1    FUL    H10     51      0.115      1.008   ;
    52       HGP1      1    FUL    H11     52      0.420      1.008   ;
    53      HGR61      1    FUL    H12     53      0.115      1.008   ;
    54       HGA2      1    FUL    H13     54      0.090      1.008   ;
    55       HGA2      1    FUL    H14     55      0.090      1.008   ;
    56       HGA1      1    FUL    H15     56      0.090      1.008   ;
    57       HGA2      1    FUL    H16     57      0.090      1.008   ;
    58       HGA2      1    FUL    H17     58      0.090      1.008   ;
    59       HGA2      1    FUL    H18     59      0.090      1.008   ;
    60       HGA2      1    FUL    H19     60      0.090      1.008   ;
    61       HGA2      1    FUL    H20     61      0.090      1.008   ;
    62       HGA2      1    FUL    H21     62      0.090      1.008   ;
    63       HGA2      1    FUL    H22     63      0.090      1.008   ;
    64       HGA2      1    FUL    H23     64      0.090      1.008   ;
    65       HGA2      1    FUL    H24     65      0.090      1.008   ;
    66       HGA2      1    FUL    H25     66      0.090      1.008   ;
    67       HGA2      1    FUL    H26     67      0.090      1.008   ;
    68       HGA2      1    FUL    H27     68      0.090      1.008   ;
    69       HGA2      1    FUL    H28     69      0.090      1.008   ;
    70       HGA2      1    FUL    H29     70      0.090      1.008   ;
    71       HGA2      1    FUL    H30     71      0.090      1.008   ;
    72       HGA2      1    FUL    H31     72      0.090      1.008   ;
    73       HGA2      1    FUL    H32     73      0.090      1.008   ;
    74       HGA2      1    FUL    H33     74      0.090      1.008   ;
    75       HGA2      1    FUL    H34     75      0.090      1.008   ;
    76       HGA2      1    FUL    H35     76      0.090      1.008   ;
    77       HGA2      1    FUL    H36     77      0.090      1.008   ;
    78       HGA2      1    FUL    H37     78      0.090      1.008   ;
    79       HGA2      1    FUL    H38     79      0.090      1.008   ;
    80       HGA2      1    FUL    H39     80      0.090      1.008   ;
    81       HGA1      1    FUL    H40     81      0.090      1.008   ;
    82       HGA1      1    FUL    H41     82      0.090      1.008   ;
    83       HGA2      1    FUL    H42     83      0.090      1.008   ;
    84       HGA2      1    FUL    H43     84      0.090      1.008   ;
    85       HGA2      1    FUL    H44     85      0.090      1.008   ;
    86       HGA2      1    FUL    H45     86      0.090      1.008   ;
    87       HGA1      1    FUL    H46     87      0.090      1.008   ;
    88       HGP1      1    FUL    H47     88      0.420      1.008   ;

[ bonds ]
;	ai	  aj funct			  c0			c1			  c2			c3
    1     2	 1
    1    43	 1
    1    44	 1
    1    42	 1
    2     3	 1
    2    37	 1
    2    40	 1
    3     4	 1
    3    45	 1
    3    46	 1
    4     5	 1
    4    47	 1
    4    48	 1
    5    49	 1
    5    36	 1
    5     6	 1
    6    12	 1
    6     7	 1
    7    50	 1
    7     8	 1
    8     9	 1
    8    51	 1
    9    10	 1
    9    11	 1
   10    52	 1
   11    12	 1
   11    53	 1
   12    13	 1
   13    14	 1
   13    55	 1
   13    54	 1
   14    36	 1
   14    15	 1
   14    56	 1
   15    57	 1
   15    58	 1
   15    16	 1
   16    17	 1
   16    59	 1
   16    60	 1
   17    18	 1
   17    61	 1
   17    62	 1
   18    19	 1
   18    63	 1
   18    64	 1
   19    65	 1
   19    20	 1
   19    66	 1
   20    68	 1
   20    21	 1
   20    67	 1
   21    69	 1
   21    22	 1
   21    70	 1
   22    71	 1
   22    23	 1
   22    72	 1
   23    73	 1
   23    74	 1
   23    24	 1
   24    25	 1
   24    26	 1
   26    27	 1
   26    76	 1
   26    75	 1
   27    28	 1
   27    77	 1
   27    78	 1
   28    29	 1
   28    79	 1
   28    80	 1
   29    30	 1
   29    31	 1
   29    32	 1
   32    33	 1
   32    34	 1
   32    35	 1
   36    81	 1
   36    37	 1
   37    38	 1
   37    82	 1
   38    83	 1
   38    84	 1
   38    39	 1
   39    85	 1
   39    86	 1
   39    40	 1
   40    41	 1
   40    87	 1
   41    88	 1

[ pairs ]
;	ai	  aj funct			  c0			c1			  c2			c3
    1    36	 1
    1    38	 1
    1    39	 1
    1    41	 1
    1    45	 1
    1    46	 1
    1    82	 1
    1     4	 1
    1    87	 1
    2     5	 1
    2    14	 1
    2    47	 1
    2    48	 1
    2    81	 1
    2    83	 1
    2    84	 1
    2    85	 1
    2    86	 1
    2    88	 1
    3    36	 1
    3    38	 1
    3    39	 1
    3    41	 1
    3    42	 1
    3    43	 1
    3    44	 1
    3    49	 1
    3    82	 1
    3    87	 1
    3     6	 1
    4    37	 1
    4     7	 1
    4    40	 1
    4    12	 1
    4    14	 1
    4    81	 1
    5    38	 1
    5    82	 1
    5     8	 1
    5    13	 1
    5    11	 1
    5    45	 1
    5    46	 1
    5    15	 1
    5    50	 1
    5    56	 1
    6    37	 1
    6     9	 1
    6    14	 1
    6    47	 1
    6    48	 1
    6    81	 1
    6    51	 1
    6    53	 1
    6    54	 1
    6    55	 1
    7    10	 1
    7    11	 1
    7    13	 1
    7    49	 1
    7    36	 1
    8    52	 1
    8    12	 1
    8    53	 1
    9    50	 1
    9    13	 1
   10    51	 1
   10    12	 1
   10    53	 1
   11    14	 1
   11    51	 1
   11    52	 1
   11    54	 1
   11    55	 1
   12    15	 1
   12    49	 1
   12    50	 1
   12    36	 1
   12    56	 1
   13    16	 1
   13    81	 1
   13    53	 1
   13    58	 1
   13    57	 1
   13    37	 1
   14    17	 1
   14    49	 1
   14    82	 1
   14    59	 1
   14    60	 1
   14    38	 1
   15    81	 1
   15    18	 1
   15    54	 1
   15    55	 1
   15    37	 1
   15    61	 1
   15    62	 1
   16    36	 1
   16    19	 1
   16    56	 1
   16    63	 1
   16    64	 1
   17    65	 1
   17    66	 1
   17    20	 1
   17    57	 1
   17    58	 1
   18    67	 1
   18    68	 1
   18    21	 1
   18    59	 1
   18    60	 1
   19    69	 1
   19    70	 1
   19    22	 1
   19    61	 1
   19    62	 1
   20    71	 1
   20    72	 1
   20    23	 1
   20    63	 1
   20    64	 1
   21    65	 1
   21    66	 1
   21    73	 1
   21    74	 1
   21    24	 1
   22    25	 1
   22    26	 1
   22    68	 1
   22    67	 1
   23    69	 1
   23    70	 1
   23    75	 1
   23    76	 1
   23    27	 1
   24    71	 1
   24    72	 1
   24    77	 1
   24    78	 1
   24    28	 1
   25    73	 1
   25    74	 1
   25    75	 1
   25    76	 1
   25    27	 1
   26    73	 1
   26    74	 1
   26    79	 1
   26    80	 1
   26    29	 1
   27    31	 1
   27    30	 1
   27    32	 1
   28    33	 1
   28    34	 1
   28    35	 1
   28    75	 1
   28    76	 1
   29    77	 1
   29    78	 1
   30    33	 1
   30    34	 1
   30    35	 1
   30    79	 1
   30    80	 1
   31    33	 1
   31    34	 1
   31    35	 1
   31    79	 1
   31    80	 1
   32    79	 1
   32    80	 1
   36    39	 1
   36    40	 1
   36    47	 1
   36    48	 1
   36    83	 1
   36    84	 1
   36    54	 1
   36    55	 1
   36    57	 1
   36    58	 1
   37    41	 1
   37    42	 1
   37    43	 1
   37    44	 1
   37    45	 1
   37    46	 1
   37    49	 1
   37    85	 1
   37    87	 1
   37    56	 1
   37    86	 1
   38    41	 1
   38    81	 1
   38    87	 1
   39    82	 1
   39    88	 1
   40    84	 1
   40    42	 1
   40    43	 1
   40    44	 1
   40    45	 1
   40    46	 1
   40    82	 1
   40    83	 1
   41    85	 1
   41    86	 1
   45    47	 1
   45    48	 1
   46    47	 1
   46    48	 1
   47    49	 1
   48    49	 1
   49    81	 1
   50    51	 1
   54    56	 1
   55    56	 1
   56    81	 1
   56    58	 1
   56    57	 1
   57    59	 1
   57    60	 1
   58    59	 1
   58    60	 1
   59    61	 1
   59    62	 1
   60    61	 1
   60    62	 1
   61    63	 1
   61    64	 1
   62    63	 1
   62    64	 1
   63    65	 1
   63    66	 1
   64    65	 1
   64    66	 1
   65    67	 1
   65    68	 1
   66    67	 1
   66    68	 1
   67    69	 1
   67    70	 1
   68    69	 1
   68    70	 1
   69    71	 1
   69    72	 1
   70    71	 1
   70    72	 1
   71    73	 1
   71    74	 1
   72    73	 1
   72    74	 1
   75    77	 1
   75    78	 1
   76    77	 1
   76    78	 1
   77    79	 1
   77    80	 1
   78    79	 1
   78    80	 1
   81    82	 1
   82    83	 1
   82    84	 1
   83    85	 1
   83    86	 1
   84    85	 1
   84    86	 1
   85    87	 1
   86    87	 1
   87    88	 1

[ angles ]
;	ai	  aj	ak funct			c0			  c1			c2			  c3
    2     1    43	5
    2     1    44	5
    2     1    42	5
   43     1    44	5
   43     1    42	5
   44     1    42	5
    1     2     3	5
    1     2    37	5
    1     2    40	5
    3     2    37	5
    3     2    40	5
   37     2    40	5
    2     3     4	5
    2     3    45	5
    2     3    46	5
    4     3    45	5
    4     3    46	5
   45     3    46	5
    3     4     5	5
    3     4    47	5
    3     4    48	5
    5     4    47	5
    5     4    48	5
   47     4    48	5
   49     5    36	5
   49     5     4	5
   49     5     6	5
   36     5     4	5
   36     5     6	5
    4     5     6	5
   12     6     5	5
   12     6     7	5
    5     6     7	5
   50     7     6	5
   50     7     8	5
    6     7     8	5
    9     8    51	5
    9     8     7	5
   51     8     7	5
   10     9    11	5
   10     9     8	5
   11     9     8	5
    9    10    52	5
    9    11    12	5
    9    11    53	5
   12    11    53	5
   11    12    13	5
   11    12     6	5
   13    12     6	5
   12    13    14	5
   12    13    55	5
   12    13    54	5
   14    13    55	5
   14    13    54	5
   55    13    54	5
   36    14    13	5
   36    14    15	5
   36    14    56	5
   13    14    15	5
   13    14    56	5
   15    14    56	5
   57    15    58	5
   57    15    14	5
   57    15    16	5
   58    15    14	5
   58    15    16	5
   14    15    16	5
   17    16    59	5
   17    16    60	5
   17    16    15	5
   59    16    60	5
   59    16    15	5
   60    16    15	5
   18    17    61	5
   18    17    62	5
   18    17    16	5
   61    17    62	5
   61    17    16	5
   62    17    16	5
   17    18    19	5
   17    18    63	5
   17    18    64	5
   19    18    63	5
   19    18    64	5
   63    18    64	5
   65    19    18	5
   65    19    20	5
   65    19    66	5
   18    19    20	5
   18    19    66	5
   20    19    66	5
   19    20    68	5
   19    20    21	5
   19    20    67	5
   68    20    21	5
   68    20    67	5
   21    20    67	5
   20    21    69	5
   20    21    22	5
   20    21    70	5
   69    21    22	5
   69    21    70	5
   22    21    70	5
   21    22    71	5
   21    22    23	5
   21    22    72	5
   71    22    23	5
   71    22    72	5
   23    22    72	5
   73    23    74	5
   73    23    22	5
   73    23    24	5
   74    23    22	5
   74    23    24	5
   22    23    24	5
   25    24    26	5
   25    24    23	5
   26    24    23	5
   27    26    76	5
   27    26    75	5
   27    26    24	5
   76    26    75	5
   76    26    24	5
   75    26    24	5
   26    27    28	5
   26    27    77	5
   26    27    78	5
   28    27    77	5
   28    27    78	5
   77    27    78	5
   27    28    29	5
   27    28    79	5
   27    28    80	5
   29    28    79	5
   29    28    80	5
   79    28    80	5
   28    29    30	5
   28    29    31	5
   28    29    32	5
   30    29    31	5
   30    29    32	5
   31    29    32	5
   33    32    34	5
   33    32    35	5
   33    32    29	5
   34    32    35	5
   34    32    29	5
   35    32    29	5
   81    36    37	5
   81    36     5	5
   81    36    14	5
   37    36     5	5
   37    36    14	5
    5    36    14	5
    2    37    36	5
    2    37    38	5
    2    37    82	5
   36    37    38	5
   36    37    82	5
   38    37    82	5
   83    38    84	5
   83    38    37	5
   83    38    39	5
   84    38    37	5
   84    38    39	5
   37    38    39	5
   85    39    38	5
   85    39    86	5
   85    39    40	5
   38    39    86	5
   38    39    40	5
   86    39    40	5
   41    40     2	5
   41    40    87	5
   41    40    39	5
    2    40    87	5
    2    40    39	5
   87    40    39	5
   88    41    40	5

[ dihedrals ]
;	ai	  aj	ak	  al funct			  c0			c1			  c2			c3			  c4			c5
   43     1     2     3	 9
   43     1     2    37	 9
   43     1     2    40	 9
   44     1     2     3	 9
   44     1     2    37	 9
   44     1     2    40	 9
   42     1     2     3	 9
   42     1     2    37	 9
   42     1     2    40	 9
    1     2     3     4	 9
    1     2     3    45	 9
    1     2     3    46	 9
   37     2     3     4	 9
   37     2     3    45	 9
   37     2     3    46	 9
   40     2     3     4	 9
   40     2     3    45	 9
   40     2     3    46	 9
    1     2    37    36	 9
    1     2    37    38	 9
    1     2    37    82	 9
    3     2    37    36	 9
    3     2    37    38	 9
    3     2    37    82	 9
   40     2    37    36	 9
   40     2    37    38	 9
   40     2    37    82	 9
    1     2    40    41	 9
    1     2    40    87	 9
    1     2    40    39	 9
    3     2    40    41	 9
    3     2    40    87	 9
    3     2    40    39	 9
   37     2    40    41	 9
   37     2    40    87	 9
   37     2    40    39	 9
    2     3     4     5	 9
    2     3     4    47	 9
    2     3     4    48	 9
   45     3     4     5	 9
   45     3     4    47	 9
   45     3     4    48	 9
   46     3     4     5	 9
   46     3     4    47	 9
   46     3     4    48	 9
    3     4     5    49	 9
    3     4     5    36	 9
    3     4     5     6	 9
   47     4     5    49	 9
   47     4     5    36	 9
   47     4     5     6	 9
   48     4     5    49	 9
   48     4     5    36	 9
   48     4     5     6	 9
   49     5    36    81	 9
   49     5    36    37	 9
   49     5    36    14	 9
    4     5    36    81	 9
    4     5    36    37	 9
    4     5    36    14	 9
    6     5    36    81	 9
    6     5    36    37	 9
    6     5    36    14	 9
   49     5     6    12	 9
   49     5     6     7	 9
   36     5     6    12	 9
   36     5     6     7	 9
    4     5     6    12	 9
    4     5     6     7	 9
    5     6    12    11	 9
    5     6    12    13	 9
    7     6    12    11	 9
    7     6    12    13	 9
   12     6     7    50	 9
   12     6     7     8	 9
    5     6     7    50	 9
    5     6     7     8	 9
   50     7     8     9	 9
   50     7     8    51	 9
    6     7     8     9	 9
    6     7     8    51	 9
   51     8     9    10	 9
   51     8     9    11	 9
    7     8     9    10	 9
    7     8     9    11	 9
   11     9    10    52	 9
    8     9    10    52	 9
   10     9    11    12	 9
   10     9    11    53	 9
    8     9    11    12	 9
    8     9    11    53	 9
    9    11    12    13	 9
    9    11    12     6	 9
   53    11    12    13	 9
   53    11    12     6	 9
   11    12    13    14	 9
   11    12    13    55	 9
   11    12    13    54	 9
    6    12    13    14	 9
    6    12    13    55	 9
    6    12    13    54	 9
   12    13    14    36	 9
   12    13    14    15	 9
   12    13    14    56	 9
   55    13    14    36	 9
   55    13    14    15	 9
   55    13    14    56	 9
   54    13    14    36	 9
   54    13    14    15	 9
   54    13    14    56	 9
   13    14    36    81	 9
   13    14    36    37	 9
   13    14    36     5	 9
   15    14    36    81	 9
   15    14    36    37	 9
   15    14    36     5	 9
   56    14    36    81	 9
   56    14    36    37	 9
   56    14    36     5	 9
   36    14    15    57	 9
   36    14    15    58	 9
   36    14    15    16	 9
   13    14    15    57	 9
   13    14    15    58	 9
   13    14    15    16	 9
   56    14    15    57	 9
   56    14    15    58	 9
   56    14    15    16	 9
   57    15    16    17	 9
   57    15    16    59	 9
   57    15    16    60	 9
   58    15    16    17	 9
   58    15    16    59	 9
   58    15    16    60	 9
   14    15    16    17	 9
   14    15    16    59	 9
   14    15    16    60	 9
   59    16    17    18	 9
   59    16    17    61	 9
   59    16    17    62	 9
   60    16    17    18	 9
   60    16    17    61	 9
   60    16    17    62	 9
   15    16    17    18	 9
   15    16    17    61	 9
   15    16    17    62	 9
   61    17    18    19	 9
   61    17    18    63	 9
   61    17    18    64	 9
   62    17    18    19	 9
   62    17    18    63	 9
   62    17    18    64	 9
   16    17    18    19	 9
   16    17    18    63	 9
   16    17    18    64	 9
   17    18    19    65	 9
   17    18    19    20	 9
   17    18    19    66	 9
   63    18    19    65	 9
   63    18    19    20	 9
   63    18    19    66	 9
   64    18    19    65	 9
   64    18    19    20	 9
   64    18    19    66	 9
   65    19    20    68	 9
   65    19    20    21	 9
   65    19    20    67	 9
   18    19    20    68	 9
   18    19    20    21	 9
   18    19    20    67	 9
   66    19    20    68	 9
   66    19    20    21	 9
   66    19    20    67	 9
   19    20    21    69	 9
   19    20    21    22	 9
   19    20    21    70	 9
   68    20    21    69	 9
   68    20    21    22	 9
   68    20    21    70	 9
   67    20    21    69	 9
   67    20    21    22	 9
   67    20    21    70	 9
   20    21    22    71	 9
   20    21    22    23	 9
   20    21    22    72	 9
   69    21    22    71	 9
   69    21    22    23	 9
   69    21    22    72	 9
   70    21    22    71	 9
   70    21    22    23	 9
   70    21    22    72	 9
   21    22    23    73	 9
   21    22    23    74	 9
   21    22    23    24	 9
   71    22    23    73	 9
   71    22    23    74	 9
   71    22    23    24	 9
   72    22    23    73	 9
   72    22    23    74	 9
   72    22    23    24	 9
   73    23    24    25	 9
   73    23    24    26	 9
   74    23    24    25	 9
   74    23    24    26	 9
   22    23    24    25	 9
   22    23    24    26	 9
   25    24    26    27	 9
   25    24    26    76	 9
   25    24    26    75	 9
   23    24    26    27	 9
   23    24    26    76	 9
   23    24    26    75	 9
   76    26    27    28	 9
   76    26    27    77	 9
   76    26    27    78	 9
   75    26    27    28	 9
   75    26    27    77	 9
   75    26    27    78	 9
   24    26    27    28	 9
   24    26    27    77	 9
   24    26    27    78	 9
   26    27    28    29	 9
   26    27    28    79	 9
   26    27    28    80	 9
   77    27    28    29	 9
   77    27    28    79	 9
   77    27    28    80	 9
   78    27    28    29	 9
   78    27    28    79	 9
   78    27    28    80	 9
   27    28    29    30	 9
   27    28    29    31	 9
   27    28    29    32	 9
   79    28    29    30	 9
   79    28    29    31	 9
   79    28    29    32	 9
   80    28    29    30	 9
   80    28    29    31	 9
   80    28    29    32	 9
   28    29    32    33	 9
   28    29    32    34	 9
   28    29    32    35	 9
   30    29    32    33	 9
   30    29    32    34	 9
   30    29    32    35	 9
   31    29    32    33	 9
   31    29    32    34	 9
   31    29    32    35	 9
   81    36    37     2	 9
   81    36    37    38	 9
   81    36    37    82	 9
    5    36    37     2	 9
    5    36    37    38	 9
    5    36    37    82	 9
   14    36    37     2	 9
   14    36    37    38	 9
   14    36    37    82	 9
    2    37    38    83	 9
    2    37    38    84	 9
    2    37    38    39	 9
   36    37    38    83	 9
   36    37    38    84	 9
   36    37    38    39	 9
   82    37    38    83	 9
   82    37    38    84	 9
   82    37    38    39	 9
   83    38    39    85	 9
   83    38    39    86	 9
   83    38    39    40	 9
   84    38    39    85	 9
   84    38    39    86	 9
   84    38    39    40	 9
   37    38    39    85	 9
   37    38    39    86	 9
   37    38    39    40	 9
   85    39    40    41	 9
   85    39    40     2	 9
   85    39    40    87	 9
   38    39    40    41	 9
   38    39    40     2	 9
   38    39    40    87	 9
   86    39    40    41	 9
   86    39    40     2	 9
   86    39    40    87	 9
    2    40    41    88	 9
   87    40    41    88	 9
   39    40    41    88	 9

